<event>
 7    1  0.3802554E-013  0.5930192E+02  0.7816164E-02  0.1266605E+00
        -11   -1    0    0    0    0  0.00000000000E+00  0.00000000000E+00  0.45593999997E+02  0.45594000000E+02  0.51100000000E-03 0. -1.
         11   -1    0    0    0    0 -0.00000000000E+00 -0.00000000000E+00 -0.45593999997E+02  0.45594000000E+02  0.51100000000E-03 0.  1.
    9900012    2    1    2    0    0 -0.69877252924E+01 -0.27665706306E+02  0.14230337101E+02  0.59301919900E+02  0.49999955996E+02 0.  0.
        -12    1    1    2    0    0  0.69877252924E+01  0.27665706306E+02 -0.14230337101E+02  0.31886080100E+02  0.00000000000E+00 0.  1.
         11    1    3    3    0    0  0.13333021501E+02 -0.94528445987E+01  0.22928238517E+02  0.28157234508E+02  0.51100000000E-03 0. -1.
        -11    1    3    3    0    0 -0.36182511894E+01  0.14640850416E+01 -0.23837515372E+01  0.45735717258E+01  0.51100000000E-03 0.  1.
        -12    1    3    3    0    0 -0.16702495604E+02 -0.19676946749E+02 -0.63141498794E+01  0.26571113666E+02  0.00000000000E+00 0.  1.
</event>
<event>
 7    1  0.3802554E-013  0.5930172E+02  0.7816164E-02  0.1266606E+00
        -11   -1    0    0    0    0  0.00000000000E+00  0.00000000000E+00  0.45593999997E+02  0.45594000000E+02  0.51100000000E-03 0. -1.
         11   -1    0    0    0    0 -0.00000000000E+00 -0.00000000000E+00 -0.45593999997E+02  0.45594000000E+02  0.51100000000E-03 0.  1.
    9900012    2    1    2    0    0 -0.15867655818E+02  0.16521330450E+02  0.22181034201E+02  0.59301715499E+02  0.49999583217E+02 0.  0.
        -12    1    1    2    0    0  0.15867655818E+02 -0.16521330450E+02 -0.22181034201E+02  0.31886284501E+02  0.00000000000E+00 0.  1.
         11    1    3    3    0    0 -0.17673839685E+02  0.28700526125E+02  0.95381946751E+01  0.35029444286E+02  0.51100000000E-03 0. -1.
        -11    1    3    3    0    0 -0.32082534354E+01  0.20670798576E+01 -0.97211007418E+00  0.39383635562E+01  0.51100000000E-03 0.  1.
        -12    1    3    3    0    0  0.50144373019E+01 -0.14246275532E+02  0.13614949601E+02  0.20333907657E+02  0.00000000000E+00 0.  1.
</event>
<event>
 7    1  0.3802554E-013  0.5930198E+02  0.7816164E-02  0.1266605E+00
        -11   -1    0    0    0    0  0.00000000000E+00  0.00000000000E+00  0.45593999997E+02  0.45594000000E+02  0.51100000000E-03 0. -1.
         11   -1    0    0    0    0 -0.00000000000E+00 -0.00000000000E+00 -0.45593999997E+02  0.45594000000E+02  0.51100000000E-03 0.  1.
    9900012    2    1    2    0    0 -0.52012556175E+01  0.30568915057E+02  0.74301125531E+01  0.59301981116E+02  0.50000067639E+02 0.  0.
        -12    1    1    2    0    0  0.52012556175E+01 -0.30568915057E+02 -0.74301125531E+01  0.31886018884E+02  0.00000000000E+00 0.  1.
         11    1    3    3    0    0  0.24448818751E+01 -0.62877978642E+00 -0.56986147477E+01  0.62327378982E+01  0.51100000000E-03 0. -1.
        -11    1    3    3    0    0 -0.70649337511E+01  0.28926595056E+02 -0.87730572958E+01  0.31042353729E+02  0.51100000000E-03 0.  1.
         12    1    3    3    0    0 -0.58120374153E+00  0.22710997872E+01  0.21901784597E+02  0.22026889489E+02  0.00000000000E+00 0. -1.
</event>
<event>
 7    1  0.3802554E-013  0.5930194E+02  0.7816164E-02  0.1266605E+00
        -11   -1    0    0    0    0  0.00000000000E+00  0.00000000000E+00  0.45593999997E+02  0.45594000000E+02  0.51100000000E-03 0. -1.
         11   -1    0    0    0    0 -0.00000000000E+00 -0.00000000000E+00 -0.45593999997E+02  0.45594000000E+02  0.51100000000E-03 0.  1.
    9900012    2    1    2    0    0  0.98957761496E+01 -0.16289338627E+02  0.25562710991E+02  0.59301935148E+02  0.49999983806E+02 0.  0.
        -12    1    1    2    0    0 -0.98957761496E+01  0.16289338627E+02 -0.25562710991E+02  0.31886064852E+02  0.00000000000E+00 0.  1.
         11    1    3    3    0    0 -0.21354028091E+01 -0.58028220153E+01  0.96194592122E+01  0.11435326156E+02  0.51100000000E-03 0. -1.
        -11    1    3    3    0    0  0.74151385372E+01 -0.26469812844E+02  0.14728117581E+02  0.31185777516E+02  0.51100000000E-03 0.  1.
        -12    1    3    3    0    0  0.46160404215E+01  0.15983296232E+02  0.12151341982E+01  0.16680831476E+02  0.00000000000E+00 0.  1.
</event>
<event>
 7    1  0.3802554E-013  0.5930198E+02  0.7816164E-02  0.1266605E+00
        -11   -1    0    0    0    0  0.00000000000E+00  0.00000000000E+00  0.45593999997E+02  0.45594000000E+02  0.51100000000E-03 0. -1.
         11   -1    0    0    0    0 -0.00000000000E+00 -0.00000000000E+00 -0.45593999997E+02  0.45594000000E+02  0.51100000000E-03 0.  1.
    9900012    2    1    2    0    0  0.23459798606E+02 -0.14790210026E+02 -0.15735500796E+02  0.59301977223E+02  0.50000060540E+02 0.  0.
        -12    1    1    2    0    0 -0.23459798606E+02  0.14790210026E+02  0.15735500796E+02  0.31886022777E+02  0.00000000000E+00 0.  1.
         11    1    3    3    0    0  0.52913361212E+01 -0.39758034363E+01  0.66315965175E+01  0.93692755080E+01  0.51100000000E-03 0. -1.
        -11    1    3    3    0    0  0.80025315812E+01 -0.96809659137E+01  0.99573424671E+01  0.16028421070E+02  0.51100000000E-03 0.  1.
        -12    1    3    3    0    0  0.10165930903E+02 -0.11334406762E+01 -0.32324439781E+02  0.33904280645E+02  0.00000000000E+00 0.  1.
</event>
<event>
 7    1  0.3802554E-013  0.5930196E+02  0.7816164E-02  0.1266605E+00
        -11   -1    0    0    0    0  0.00000000000E+00  0.00000000000E+00  0.45593999997E+02  0.45594000000E+02  0.51100000000E-03 0.  1.
         11   -1    0    0    0    0 -0.00000000000E+00 -0.00000000000E+00 -0.45593999997E+02  0.45594000000E+02  0.51100000000E-03 0. -1.
    9900012    2    1    2    0    0  0.31381140683E+02  0.42193751895E+01 -0.37604132285E+01  0.59301955636E+02  0.50000021170E+02 0.  0.
        -12    1    1    2    0    0 -0.31381140683E+02 -0.42193751895E+01  0.37604132285E+01  0.31886044364E+02  0.00000000000E+00 0.  1.
         11    1    3    3    0    0  0.62176214795E+01  0.99075157066E+01  0.25992401848E+01  0.11982225759E+02  0.51100000000E-03 0. -1.
        -11    1    3    3    0    0 -0.38615526835E+01  0.71655440131E+00  0.11835072929E+02  0.12469722966E+02  0.51100000000E-03 0.  1.
        -12    1    3    3    0    0  0.29025071887E+02 -0.64046949185E+01 -0.18194726343E+02  0.34850006911E+02  0.00000000000E+00 0.  1.
</event>
<event>
 7    1  0.3802554E-013  0.5930192E+02  0.7816164E-02  0.1266605E+00
        -11   -1    0    0    0    0  0.00000000000E+00  0.00000000000E+00  0.45593999997E+02  0.45594000000E+02  0.51100000000E-03 0.  1.
         11   -1    0    0    0    0 -0.00000000000E+00 -0.00000000000E+00 -0.45593999997E+02  0.45594000000E+02  0.51100000000E-03 0. -1.
    9900012    2    1    2    0    0  0.18929480332E+02  0.16863109821E+01 -0.25603771721E+02  0.59301921585E+02  0.49999959069E+02 0.  0.
        -12    1    1    2    0    0 -0.18929480332E+02 -0.16863109821E+01  0.25603771721E+02  0.31886078415E+02  0.00000000000E+00 0.  1.
         11    1    3    3    0    0  0.98925154214E+01  0.12859899982E+02 -0.17616954196E+01  0.16320001836E+02  0.51100000000E-03 0. -1.
        -11    1    3    3    0    0  0.42376542998E+01 -0.22701042570E+02 -0.13362986441E+02  0.26680788118E+02  0.51100000000E-03 0.  1.
         12    1    3    3    0    0  0.47993106113E+01  0.11527453570E+02 -0.10479089860E+02  0.16301131631E+02  0.00000000000E+00 0. -1.
</event>
<event>
 7    1  0.3802554E-013  0.5930194E+02  0.7816164E-02  0.1266605E+00
        -11   -1    0    0    0    0  0.00000000000E+00  0.00000000000E+00  0.45593999997E+02  0.45594000000E+02  0.51100000000E-03 0.  1.
         11   -1    0    0    0    0 -0.00000000000E+00 -0.00000000000E+00 -0.45593999997E+02  0.45594000000E+02  0.51100000000E-03 0. -1.
    9900012    2    1    2    0    0 -0.14074675164E+02  0.14029169870E+02 -0.24936053821E+02  0.59301939278E+02  0.49999991337E+02 0.  0.
        -12    1    1    2    0    0  0.14074675164E+02 -0.14029169870E+02  0.24936053821E+02  0.31886060722E+02  0.00000000000E+00 0.  1.
         11    1    3    3    0    0  0.26851772624E+01  0.61895184564E+01 -0.30173877432E+01  0.73908690089E+01  0.51100000000E-03 0. -1.
        -11    1    3    3    0    0  0.40782561047E+01  0.16818469600E+02  0.36914834387E+01  0.17695201123E+02  0.51100000000E-03 0.  1.
         12    1    3    3    0    0 -0.20838108531E+02 -0.89788181864E+01 -0.25610149516E+02  0.34215869146E+02  0.00000000000E+00 0. -1.
</event>
<event>
 7    1  0.3802554E-013  0.5930194E+02  0.7816164E-02  0.1266605E+00
        -11   -1    0    0    0    0  0.00000000000E+00  0.00000000000E+00  0.45593999997E+02  0.45594000000E+02  0.51100000000E-03 0. -1.
         11   -1    0    0    0    0 -0.00000000000E+00 -0.00000000000E+00 -0.45593999997E+02  0.45594000000E+02  0.51100000000E-03 0.  1.
    9900012    2    1    2    0    0  0.10980489592E+02  0.29889778781E+02 -0.16584755611E+01  0.59301943981E+02  0.49999999914E+02 0.  0.
        -12    1    1    2    0    0 -0.10980489592E+02 -0.29889778781E+02  0.16584755611E+01  0.31886056019E+02  0.00000000000E+00 0.  1.
         11    1    3    3    0    0 -0.82486310144E+01  0.63089060133E+01 -0.92541992820E+00  0.10425862602E+02  0.51100000000E-03 0. -1.
        -11    1    3    3    0    0 -0.97437538647E+01  0.90777946510E+00  0.59946642622E+01  0.11476097020E+02  0.51100000000E-03 0.  1.
        -12    1    3    3    0    0  0.28972874471E+02  0.22673093303E+02 -0.67277198952E+01  0.37399984359E+02  0.00000000000E+00 0.  1.
</event>
<event>
 7    1  0.3802554E-013  0.5930194E+02  0.7816164E-02  0.1266605E+00
        -11   -1    0    0    0    0  0.00000000000E+00  0.00000000000E+00  0.45593999997E+02  0.45594000000E+02  0.51100000000E-03 0.  1.
         11   -1    0    0    0    0 -0.00000000000E+00 -0.00000000000E+00 -0.45593999997E+02  0.45594000000E+02  0.51100000000E-03 0. -1.
    9900012    2    1    2    0    0 -0.16403924458E+02 -0.62176770604E+01 -0.26626538682E+02  0.59301940227E+02  0.49999993069E+02 0.  0.
        -12    1    1    2    0    0  0.16403924458E+02  0.62176770604E+01  0.26626538682E+02  0.31886059773E+02  0.00000000000E+00 0.  1.
         11    1    3    3    0    0  0.71224383115E+01 -0.30033938442E+01  0.77262882601E+01  0.10929091116E+02  0.51100000000E-03 0. -1.
        -11    1    3    3    0    0  0.47759465365E+01 -0.25282026702E+01 -0.32104752972E+01  0.62855887518E+01  0.51100000000E-03 0.  1.
         12    1    3    3    0    0 -0.28302309306E+02 -0.68608054595E+00 -0.31142351645E+02  0.42087260359E+02  0.00000000000E+00 0. -1.
</event>
<event>
 7    1  0.3802554E-013  0.5930195E+02  0.7816164E-02  0.1266605E+00
        -11   -1    0    0    0    0  0.00000000000E+00  0.00000000000E+00  0.45593999997E+02  0.45594000000E+02  0.51100000000E-03 0.  1.
         11   -1    0    0    0    0 -0.00000000000E+00 -0.00000000000E+00 -0.45593999997E+02  0.45594000000E+02  0.51100000000E-03 0. -1.
    9900012    2    1    2    0    0  0.23140264677E+02  0.20980743925E+02 -0.64075481062E+01  0.59301950736E+02  0.50000012234E+02 0.  0.
        -12    1    1    2    0    0 -0.23140264677E+02 -0.20980743925E+02  0.64075481062E+01  0.31886049264E+02  0.00000000000E+00 0.  1.
         11    1    3    3    0    0  0.48477307814E+01  0.20829842012E+02 -0.59401375281E+01  0.22196126826E+02  0.51100000000E-03 0. -1.
        -11    1    3    3    0    0  0.50328101196E+01  0.10293324771E+02  0.11755404361E+02  0.16415579322E+02  0.51100000000E-03 0.  1.
         12    1    3    3    0    0  0.13259723776E+02 -0.10142422858E+02 -0.12222814939E+02  0.20690244587E+02  0.00000000000E+00 0. -1.
</event>
<event>
 7    1  0.3802554E-013  0.5930188E+02  0.7816164E-02  0.1266605E+00
        -11   -1    0    0    0    0  0.00000000000E+00  0.00000000000E+00  0.45593999997E+02  0.45594000000E+02  0.51100000000E-03 0. -1.
         11   -1    0    0    0    0 -0.00000000000E+00 -0.00000000000E+00 -0.45593999997E+02  0.45594000000E+02  0.51100000000E-03 0.  1.
    9900012    2    1    2    0    0 -0.15223104786E+02  0.11131558729E+02  0.25711283841E+02  0.59301880201E+02  0.49999883596E+02 0.  0.
        -12    1    1    2    0    0  0.15223104786E+02 -0.11131558729E+02 -0.25711283841E+02  0.31886119799E+02  0.00000000000E+00 0.  1.
         11    1    3    3    0    0 -0.59044711250E+01 -0.66587193395E+01  0.13532639936E+01  0.90018134954E+01  0.51100000000E-03 0. -1.
        -11    1    3    3    0    0 -0.24518439909E+02  0.89804085442E+01  0.17537497786E+02  0.31454180359E+02  0.51100000000E-03 0.  1.
         12    1    3    3    0    0  0.15199806248E+02  0.88098695239E+01  0.68205220618E+01  0.18845886347E+02  0.00000000000E+00 0. -1.
</event>
<event>
 7    1  0.3802554E-013  0.5930194E+02  0.7816164E-02  0.1266605E+00
        -11   -1    0    0    0    0  0.00000000000E+00  0.00000000000E+00  0.45593999997E+02  0.45594000000E+02  0.51100000000E-03 0.  1.
         11   -1    0    0    0    0 -0.00000000000E+00 -0.00000000000E+00 -0.45593999997E+02  0.45594000000E+02  0.51100000000E-03 0. -1.
    9900012    2    1    2    0    0 -0.40642953828E+01 -0.27969249011E+02 -0.14762233409E+02  0.59301938431E+02  0.49999989792E+02 0.  0.
        -12    1    1    2    0    0  0.40642953828E+01  0.27969249011E+02  0.14762233409E+02  0.31886061569E+02  0.00000000000E+00 0.  1.
         11    1    3    3    0    0  0.84633052567E+01 -0.84914008103E+01 -0.10516272323E+02  0.15947520416E+02  0.51100000000E-03 0. -1.
        -11    1    3    3    0    0  0.11533396002E+02 -0.10506784235E+02 -0.77791179486E+01  0.17433485441E+02  0.51100000000E-03 0.  1.
         12    1    3    3    0    0 -0.24060996642E+02 -0.89710639652E+01  0.35331568623E+01  0.25920932573E+02  0.00000000000E+00 0. -1.
</event>
<event>
 7    1  0.3802554E-013  0.5930196E+02  0.7816164E-02  0.1266605E+00
        -11   -1    0    0    0    0  0.00000000000E+00  0.00000000000E+00  0.45593999997E+02  0.45594000000E+02  0.51100000000E-03 0. -1.
         11   -1    0    0    0    0 -0.00000000000E+00 -0.00000000000E+00 -0.45593999997E+02  0.45594000000E+02  0.51100000000E-03 0.  1.
    9900012    2    1    2    0    0  0.15232725054E+02  0.95091483507E+01  0.26348804862E+02  0.59301963360E+02  0.50000035258E+02 0.  0.
        -12    1    1    2    0    0 -0.15232725054E+02 -0.95091483507E+01 -0.26348804862E+02  0.31886036640E+02  0.00000000000E+00 0.  1.
         11    1    3    3    0    0 -0.17659277220E+01 -0.11924281817E+01  0.19373237746E+02  0.19490067386E+02  0.51100000000E-03 0. -1.
        -11    1    3    3    0    0  0.45295986781E+01 -0.11228960966E+02 -0.33345872936E+01  0.12558913219E+02  0.51100000000E-03 0.  1.
         12    1    3    3    0    0  0.12469054098E+02  0.21930537499E+02  0.10310154410E+02  0.27252982755E+02  0.00000000000E+00 0. -1.
</event>
<event>
 7    1  0.3802554E-013  0.5930198E+02  0.7816164E-02  0.1266605E+00
        -11   -1    0    0    0    0  0.00000000000E+00  0.00000000000E+00  0.45593999997E+02  0.45594000000E+02  0.51100000000E-03 0.  1.
         11   -1    0    0    0    0 -0.00000000000E+00 -0.00000000000E+00 -0.45593999997E+02  0.45594000000E+02  0.51100000000E-03 0. -1.
    9900012    2    1    2    0    0 -0.91807307384E+01  0.28372848221E+02 -0.11287776342E+02  0.59301980684E+02  0.50000066852E+02 0.  0.
        -12    1    1    2    0    0  0.91807307384E+01 -0.28372848221E+02  0.11287776342E+02  0.31886019316E+02  0.00000000000E+00 0.  1.
         11    1    3    3    0    0 -0.14209704144E+01 -0.33940702453E+01 -0.11083147799E+02  0.11677972219E+02  0.51100000000E-03 0. -1.
        -11    1    3    3    0    0 -0.23178768745E+01 -0.75295939301E+01 -0.10204441386E+01  0.79440949427E+01  0.51100000000E-03 0.  1.
        -12    1    3    3    0    0 -0.54418834494E+01  0.39296512397E+02  0.81581559544E+00  0.39679913522E+02  0.00000000000E+00 0.  1.
</event>
<event>
 7    1  0.3802554E-013  0.5930193E+02  0.7816164E-02  0.1266605E+00
        -11   -1    0    0    0    0  0.00000000000E+00  0.00000000000E+00  0.45593999997E+02  0.45594000000E+02  0.51100000000E-03 0.  1.
         11   -1    0    0    0    0 -0.00000000000E+00 -0.00000000000E+00 -0.45593999997E+02  0.45594000000E+02  0.51100000000E-03 0. -1.
    9900012    2    1    2    0    0 -0.41271481118E+01 -0.68857902724E+01 -0.30858939017E+02  0.59301928174E+02  0.49999971087E+02 0.  0.
        -12    1    1    2    0    0  0.41271481118E+01  0.68857902724E+01  0.30858939017E+02  0.31886071826E+02  0.00000000000E+00 0.  1.
         11    1    3    3    0    0 -0.81649494370E+01  0.12376169184E+01 -0.33071997842E+02  0.34087463039E+02  0.51100000000E-03 0. -1.
        -11    1    3    3    0    0  0.12570236574E+02 -0.80026127851E+01 -0.30199952182E+01  0.15204375367E+02  0.51100000000E-03 0.  1.
         12    1    3    3    0    0 -0.85324352485E+01 -0.12079440569E+00  0.52330540427E+01  0.10010089768E+02  0.00000000000E+00 0. -1.
</event>
<event>
 7    1  0.3802554E-013  0.5930194E+02  0.7816164E-02  0.1266605E+00
        -11   -1    0    0    0    0  0.00000000000E+00  0.00000000000E+00  0.45593999997E+02  0.45594000000E+02  0.51100000000E-03 0. -1.
         11   -1    0    0    0    0 -0.00000000000E+00 -0.00000000000E+00 -0.45593999997E+02  0.45594000000E+02  0.51100000000E-03 0.  1.
    9900012    2    1    2    0    0  0.24801227628E+02 -0.19229662153E+02 -0.56427178552E+01  0.59301936223E+02  0.49999985766E+02 0.  0.
        -12    1    1    2    0    0 -0.24801227628E+02  0.19229662153E+02  0.56427178552E+01  0.31886063777E+02  0.00000000000E+00 0.  1.
         11    1    3    3    0    0  0.88051281899E+01 -0.89397029994E+01  0.89165251611E+01  0.15393277538E+02  0.51100000000E-03 0.  1.
        -11    1    3    3    0    0  0.14720527288E+01  0.40958348864E+01  0.10619122728E+02  0.11476435441E+02  0.51100000000E-03 0. -1.
        -12    1    3    3    0    0  0.14524046710E+02 -0.14385794040E+02 -0.25178365744E+02  0.32432223244E+02  0.00000000000E+00 0.  1.
</event>
<event>
 7    1  0.3802554E-013  0.5930194E+02  0.7816164E-02  0.1266605E+00
        -11   -1    0    0    0    0  0.00000000000E+00  0.00000000000E+00  0.45593999997E+02  0.45594000000E+02  0.51100000000E-03 0. -1.
         11   -1    0    0    0    0 -0.00000000000E+00 -0.00000000000E+00 -0.45593999997E+02  0.45594000000E+02  0.51100000000E-03 0.  1.
    9900012    2    1    2    0    0 -0.28817869563E+02 -0.69528931044E+01  0.11743433484E+02  0.59301944134E+02  0.50000000194E+02 0.  0.
        -12    1    1    2    0    0  0.28817869563E+02  0.69528931044E+01 -0.11743433484E+02  0.31886055866E+02  0.00000000000E+00 0.  1.
         11    1    3    3    0    0  0.90793254236E+00  0.30582684933E+00 -0.76756901878E+01  0.77352499431E+01  0.51100000000E-03 0. -1.
        -11    1    3    3    0    0 -0.78286583747E+01  0.11856388002E+02  0.17351953261E+02  0.22426593826E+02  0.51100000000E-03 0.  1.
         12    1    3    3    0    0 -0.21897143731E+02 -0.19115107956E+02  0.20671704105E+01  0.29140100365E+02  0.00000000000E+00 0. -1.
</event>
<event>
 7    1  0.3802554E-013  0.5930199E+02  0.7816164E-02  0.1266605E+00
        -11   -1    0    0    0    0  0.00000000000E+00  0.00000000000E+00  0.45593999997E+02  0.45594000000E+02  0.51100000000E-03 0. -1.
         11   -1    0    0    0    0 -0.00000000000E+00 -0.00000000000E+00 -0.45593999997E+02  0.45594000000E+02  0.51100000000E-03 0.  1.
    9900012    2    1    2    0    0  0.20738649040E+01  0.14170165761E+02  0.28488998641E+02  0.59301991205E+02  0.50000086040E+02 0.  0.
        -12    1    1    2    0    0 -0.20738649040E+01 -0.14170165761E+02 -0.28488998641E+02  0.31886008795E+02  0.00000000000E+00 0.  1.
         11    1    3    3    0    0  0.17317217450E+02 -0.19041492628E+01  0.27437247739E+02  0.32500990267E+02  0.51100000000E-03 0. -1.
        -11    1    3    3    0    0  0.14062746621E+00  0.14152078212E+01 -0.45979958313E+01  0.48129154561E+01  0.51100000000E-03 0.  1.
        -12    1    3    3    0    0 -0.15383980012E+02  0.14659107203E+02  0.56497467331E+01  0.21988085481E+02  0.00000000000E+00 0.  1.
</event>
<event>
 7    1  0.3802554E-013  0.5930193E+02  0.7816164E-02  0.1266605E+00
        -11   -1    0    0    0    0  0.00000000000E+00  0.00000000000E+00  0.45593999997E+02  0.45594000000E+02  0.51100000000E-03 0. -1.
         11   -1    0    0    0    0 -0.00000000000E+00 -0.00000000000E+00 -0.45593999997E+02  0.45594000000E+02  0.51100000000E-03 0.  1.
    9900012    2    1    2    0    0 -0.25930050208E+02  0.10091779003E+02  0.15572734368E+02  0.59301928387E+02  0.49999971475E+02 0.  0.
        -12    1    1    2    0    0  0.25930050208E+02 -0.10091779003E+02 -0.15572734368E+02  0.31886071613E+02  0.00000000000E+00 0.  1.
         11    1    3    3    0    0  0.48911972617E+01 -0.40073518610E+01  0.29702416262E+01  0.69860586291E+01  0.51100000000E-03 0.  1.
        -11    1    3    3    0    0 -0.15001022265E+02  0.83125990705E+01 -0.13102818050E+02  0.21582720251E+02  0.51100000000E-03 0. -1.
         12    1    3    3    0    0 -0.15820225204E+02  0.57865317936E+01  0.25705310792E+02  0.30733149507E+02  0.00000000000E+00 0. -1.
</event>
<event>
 7    1  0.3802554E-013  0.5930197E+02  0.7816164E-02  0.1266605E+00
        -11   -1    0    0    0    0  0.00000000000E+00  0.00000000000E+00  0.45593999997E+02  0.45594000000E+02  0.51100000000E-03 0.  1.
         11   -1    0    0    0    0 -0.00000000000E+00 -0.00000000000E+00 -0.45593999997E+02  0.45594000000E+02  0.51100000000E-03 0. -1.
    9900012    2    1    2    0    0 -0.97153557293E+01 -0.26629644007E+02  0.14601128411E+02  0.59301968140E+02  0.50000043975E+02 0.  0.
        -12    1    1    2    0    0  0.97153557293E+01  0.26629644007E+02 -0.14601128411E+02  0.31886031860E+02  0.00000000000E+00 0.  1.
         11    1    3    3    0    0  0.89400068020E+01 -0.45332660991E+01 -0.25025410120E+01  0.10331356877E+02  0.51100000000E-03 0. -1.
        -11    1    3    3    0    0  0.30778178176E+01 -0.15154560962E+02  0.20737147742E+02  0.25868184653E+02  0.51100000000E-03 0.  1.
         12    1    3    3    0    0 -0.21733180349E+02 -0.69418169456E+01 -0.36334783195E+01  0.23102426610E+02  0.00000000000E+00 0. -1.
</event>
<event>
 7    1  0.3802554E-013  0.5930195E+02  0.7816164E-02  0.1266605E+00
        -11   -1    0    0    0    0  0.00000000000E+00  0.00000000000E+00  0.45593999997E+02  0.45594000000E+02  0.51100000000E-03 0.  1.
         11   -1    0    0    0    0 -0.00000000000E+00 -0.00000000000E+00 -0.45593999997E+02  0.45594000000E+02  0.51100000000E-03 0. -1.
    9900012    2    1    2    0    0 -0.16312017997E+02 -0.10968939586E+01 -0.27375810358E+02  0.59301951323E+02  0.50000013304E+02 0.  0.
        -12    1    1    2    0    0  0.16312017997E+02  0.10968939586E+01  0.27375810358E+02  0.31886048677E+02  0.00000000000E+00 0.  1.
         11    1    3    3    0    0 -0.48629300355E+01 -0.13601010336E+02 -0.45697680891E+01  0.15149863080E+02  0.51100000000E-03 0. -1.
        -11    1    3    3    0    0 -0.13613180819E+02  0.11426881315E+02 -0.30931740580E+02  0.35674428995E+02  0.51100000000E-03 0.  1.
        -12    1    3    3    0    0  0.21640928575E+01  0.10772350628E+01  0.81256983107E+01  0.84776592473E+01  0.00000000000E+00 0.  1.
</event>
<event>
 7    1  0.3802554E-013  0.5930196E+02  0.7816164E-02  0.1266605E+00
        -11   -1    0    0    0    0  0.00000000000E+00  0.00000000000E+00  0.45593999997E+02  0.45594000000E+02  0.51100000000E-03 0.  1.
         11   -1    0    0    0    0 -0.00000000000E+00 -0.00000000000E+00 -0.45593999997E+02  0.45594000000E+02  0.51100000000E-03 0. -1.
    9900012    2    1    2    0    0  0.16949691334E+02 -0.19153730357E+02 -0.19041068821E+02  0.59301957211E+02  0.50000024043E+02 0.  0.
        -12    1    1    2    0    0 -0.16949691334E+02  0.19153730357E+02  0.19041068821E+02  0.31886042789E+02  0.00000000000E+00 0.  1.
         11    1    3    3    0    0 -0.51383808905E+01 -0.14338353114E+02 -0.40456220423E+01  0.15759390413E+02  0.51100000000E-03 0. -1.
        -11    1    3    3    0    0  0.17396230778E+02 -0.10552739733E+02 -0.24269928402E+02  0.31670468674E+02  0.51100000000E-03 0.  1.
        -12    1    3    3    0    0  0.46918414461E+01  0.57373624902E+01  0.92744816224E+01  0.11872098124E+02  0.00000000000E+00 0.  1.
</event>
<event>
 7    1  0.3802554E-013  0.5930195E+02  0.7816164E-02  0.1266605E+00
        -11   -1    0    0    0    0  0.00000000000E+00  0.00000000000E+00  0.45593999997E+02  0.45594000000E+02  0.51100000000E-03 0.  1.
         11   -1    0    0    0    0 -0.00000000000E+00 -0.00000000000E+00 -0.45593999997E+02  0.45594000000E+02  0.51100000000E-03 0. -1.
    9900012    2    1    2    0    0  0.23304260940E+02 -0.14560442689E+02 -0.16174822722E+02  0.59301953532E+02  0.50000017334E+02 0.  0.
        -12    1    1    2    0    0 -0.23304260940E+02  0.14560442689E+02  0.16174822722E+02  0.31886046468E+02  0.00000000000E+00 0.  1.
         11    1    3    3    0    0  0.33161857019E+01 -0.41159071571E+01  0.22789575540E+01  0.57559905429E+01  0.51100000000E-03 0.  1.
        -11    1    3    3    0    0  0.11298681139E+02 -0.28158392268E+02 -0.88665691824E+01  0.31609670987E+02  0.51100000000E-03 0. -1.
        -12    1    3    3    0    0  0.86893940985E+01  0.17713856736E+02 -0.95872110936E+01  0.21936292002E+02  0.00000000000E+00 0.  1.
</event>
<event>
 7    1  0.3802554E-013  0.5930194E+02  0.7816164E-02  0.1266605E+00
        -11   -1    0    0    0    0  0.00000000000E+00  0.00000000000E+00  0.45593999997E+02  0.45594000000E+02  0.51100000000E-03 0. -1.
         11   -1    0    0    0    0 -0.00000000000E+00 -0.00000000000E+00 -0.45593999997E+02  0.45594000000E+02  0.51100000000E-03 0.  1.
    9900012    2    1    2    0    0 -0.16827096345E+02  0.15972219356E+02  0.21873677675E+02  0.59301941329E+02  0.49999995078E+02 0.  0.
        -12    1    1    2    0    0  0.16827096345E+02 -0.15972219356E+02 -0.21873677675E+02  0.31886058671E+02  0.00000000000E+00 0.  1.
         11    1    3    3    0    0 -0.12658440288E+02  0.24218880192E+01  0.13481224351E+02  0.18650604880E+02  0.51100000000E-03 0. -1.
        -11    1    3    3    0    0  0.48770649551E+01  0.15823343626E+02  0.19868247065E+02  0.25863317803E+02  0.51100000000E-03 0.  1.
         12    1    3    3    0    0 -0.90457210113E+01 -0.22730122886E+01 -0.11475793742E+02  0.14788018646E+02  0.00000000000E+00 0. -1.
</event>
<event>
 7    1  0.3802554E-013  0.5930191E+02  0.7816164E-02  0.1266605E+00
        -11   -1    0    0    0    0  0.00000000000E+00  0.00000000000E+00  0.45593999997E+02  0.45594000000E+02  0.51100000000E-03 0.  1.
         11   -1    0    0    0    0 -0.00000000000E+00 -0.00000000000E+00 -0.45593999997E+02  0.45594000000E+02  0.51100000000E-03 0. -1.
    9900012    2    1    2    0    0  0.12802979271E+02 -0.12569721462E+02 -0.26359217434E+02  0.59301913386E+02  0.49999944117E+02 0.  0.
        -12    1    1    2    0    0 -0.12802979271E+02  0.12569721462E+02  0.26359217434E+02  0.31886086614E+02  0.00000000000E+00 0.  1.
         11    1    3    3    0    0  0.21083435374E+02 -0.17209162087E+02 -0.10728230283E+02  0.29253400352E+02  0.51100000000E-03 0. -1.
        -11    1    3    3    0    0  0.54817454508E+01  0.70173900373E+00  0.32065334489E+01  0.63893526931E+01  0.51100000000E-03 0.  1.
        -12    1    3    3    0    0 -0.13762201554E+02  0.39377016215E+01 -0.18837520600E+02  0.23659160341E+02  0.00000000000E+00 0.  1.
</event>
<event>
 7    1  0.3802554E-013  0.5930197E+02  0.7816164E-02  0.1266605E+00
        -11   -1    0    0    0    0  0.00000000000E+00  0.00000000000E+00  0.45593999997E+02  0.45594000000E+02  0.51100000000E-03 0. -1.
         11   -1    0    0    0    0 -0.00000000000E+00 -0.00000000000E+00 -0.45593999997E+02  0.45594000000E+02  0.51100000000E-03 0.  1.
    9900012    2    1    2    0    0 -0.11198157862E+02  0.23408257757E+02  0.18530339228E+02  0.59301972611E+02  0.50000052130E+02 0.  0.
        -12    1    1    2    0    0  0.11198157862E+02 -0.23408257757E+02 -0.18530339228E+02  0.31886027389E+02  0.00000000000E+00 0.  1.
         11    1    3    3    0    0 -0.42393161759E+01  0.15737179286E+00  0.13516384876E+02  0.14166482552E+02  0.51100000000E-03 0. -1.
        -11    1    3    3    0    0 -0.35775913496E+01 -0.97972658754E+01 -0.32084800271E+01  0.10912374757E+02  0.51100000000E-03 0.  1.
         12    1    3    3    0    0 -0.33812503366E+01  0.33048151840E+02  0.82224343785E+01  0.34223115302E+02  0.00000000000E+00 0. -1.
</event>
<event>
 7    1  0.3802554E-013  0.5930192E+02  0.7816164E-02  0.1266605E+00
        -11   -1    0    0    0    0  0.00000000000E+00  0.00000000000E+00  0.45593999997E+02  0.45594000000E+02  0.51100000000E-03 0.  1.
         11   -1    0    0    0    0 -0.00000000000E+00 -0.00000000000E+00 -0.45593999997E+02  0.45594000000E+02  0.51100000000E-03 0. -1.
    9900012    2    1    2    0    0  0.30305620949E+02  0.63632322120E+01 -0.76026707268E+01  0.59301921729E+02  0.49999959333E+02 0.  0.
        -12    1    1    2    0    0 -0.30305620949E+02 -0.63632322120E+01  0.76026707268E+01  0.31886078271E+02  0.00000000000E+00 0.  1.
         11    1    3    3    0    0  0.96795660440E+01  0.19957850787E+02  0.78550005729E+01  0.23531061198E+02  0.51100000000E-03 0. -1.
        -11    1    3    3    0    0 -0.10643429154E+01  0.33753917796E+01  0.10129940883E+01  0.36813384511E+01  0.51100000000E-03 0.  1.
        -12    1    3    3    0    0  0.21690397821E+02 -0.16970010354E+02 -0.16470665388E+02  0.32089522081E+02  0.00000000000E+00 0.  1.
</event>
<event>
 7    1  0.3802554E-013  0.5930191E+02  0.7816164E-02  0.1266605E+00
        -11   -1    0    0    0    0  0.00000000000E+00  0.00000000000E+00  0.45593999997E+02  0.45594000000E+02  0.51100000000E-03 0.  1.
         11   -1    0    0    0    0 -0.00000000000E+00 -0.00000000000E+00 -0.45593999997E+02  0.45594000000E+02  0.51100000000E-03 0. -1.
    9900012    2    1    2    0    0 -0.30734867952E+02 -0.82846367754E+01  0.18589448444E+01  0.59301906002E+02  0.49999930649E+02 0.  0.
        -12    1    1    2    0    0  0.30734867952E+02  0.82846367754E+01 -0.18589448444E+01  0.31886093998E+02  0.00000000000E+00 0.  1.
         11    1    3    3    0    0  0.28655254902E+01 -0.75684145015E+01 -0.52502030268E+01  0.96465935172E+01  0.51100000000E-03 0. -1.
        -11    1    3    3    0    0 -0.17735384070E+02 -0.18280153580E+02  0.40623245664E+01  0.25791671992E+02  0.51100000000E-03 0.  1.
        -12    1    3    3    0    0 -0.15865009372E+02  0.17563931306E+02  0.30468233049E+01  0.23863640492E+02  0.00000000000E+00 0.  1.
</event>
<event>
 7    1  0.3802554E-013  0.5930194E+02  0.7816164E-02  0.1266605E+00
        -11   -1    0    0    0    0  0.00000000000E+00  0.00000000000E+00  0.45593999997E+02  0.45594000000E+02  0.51100000000E-03 0.  1.
         11   -1    0    0    0    0 -0.00000000000E+00 -0.00000000000E+00 -0.45593999997E+02  0.45594000000E+02  0.51100000000E-03 0. -1.
    9900012    2    1    2    0    0 -0.64986256412E+01  0.57854070017E+01 -0.30676012216E+02  0.59301940431E+02  0.49999993440E+02 0.  0.
        -12    1    1    2    0    0  0.64986256412E+01 -0.57854070017E+01  0.30676012216E+02  0.31886059569E+02  0.00000000000E+00 0.  1.
         11    1    3    3    0    0  0.57870259219E+01  0.12310188146E+02 -0.24442420831E+02  0.27972528266E+02  0.51100000000E-03 0. -1.
        -11    1    3    3    0    0 -0.89913482127E+01  0.10205514483E+02 -0.36559886719E+01  0.14084144347E+02  0.51100000000E-03 0.  1.
         12    1    3    3    0    0 -0.32943033503E+01 -0.16730295628E+02 -0.25776027127E+01  0.17245267818E+02  0.00000000000E+00 0. -1.
</event>
<event>
 7    1  0.3802554E-013  0.5930194E+02  0.7816164E-02  0.1266605E+00
        -11   -1    0    0    0    0  0.00000000000E+00  0.00000000000E+00  0.45593999997E+02  0.45594000000E+02  0.51100000000E-03 0. -1.
         11   -1    0    0    0    0 -0.00000000000E+00 -0.00000000000E+00 -0.45593999997E+02  0.45594000000E+02  0.51100000000E-03 0.  1.
    9900012    2    1    2    0    0 -0.31575326701E+02 -0.39345260443E+01  0.20588713658E+01  0.59301941875E+02  0.49999996074E+02 0.  0.
        -12    1    1    2    0    0  0.31575326701E+02  0.39345260443E+01 -0.20588713658E+01  0.31886058125E+02  0.00000000000E+00 0.  1.
         11    1    3    3    0    0 -0.20829051295E+02 -0.70924509770E+00 -0.11176995986E+02  0.23649051693E+02  0.51100000000E-03 0. -1.
        -11    1    3    3    0    0  0.10189978340E+02  0.21161202313E+01  0.18221627478E+00  0.10408978165E+02  0.51100000000E-03 0.  1.
         12    1    3    3    0    0 -0.20936253747E+02 -0.53414011779E+01  0.13053651077E+02  0.25243912017E+02  0.00000000000E+00 0. -1.
</event>
<event>
 7    1  0.3802554E-013  0.5930193E+02  0.7816164E-02  0.1266605E+00
        -11   -1    0    0    0    0  0.00000000000E+00  0.00000000000E+00  0.45593999997E+02  0.45594000000E+02  0.51100000000E-03 0. -1.
         11   -1    0    0    0    0 -0.00000000000E+00 -0.00000000000E+00 -0.45593999997E+02  0.45594000000E+02  0.51100000000E-03 0.  1.
    9900012    2    1    2    0    0  0.14322741757E+02  0.27082191877E+02  0.88394074355E+01  0.59301934515E+02  0.49999982652E+02 0.  0.
        -12    1    1    2    0    0 -0.14322741757E+02 -0.27082191877E+02 -0.88394074355E+01  0.31886065485E+02  0.00000000000E+00 0.  1.
         11    1    3    3    0    0  0.34197722211E+01 -0.61123839306E+00  0.50058532338E+01  0.60931946692E+01  0.51100000000E-03 0. -1.
        -11    1    3    3    0    0 -0.24240384169E+01  0.14339371442E+02  0.22420826955E+02  0.26724277674E+02  0.51100000000E-03 0.  1.
        -12    1    3    3    0    0  0.13327007952E+02  0.13354058828E+02 -0.18587272753E+02  0.26484462172E+02  0.00000000000E+00 0.  1.
</event>
<event>
 7    1  0.3802554E-013  0.5930194E+02  0.7816164E-02  0.1266605E+00
        -11   -1    0    0    0    0  0.00000000000E+00  0.00000000000E+00  0.45593999997E+02  0.45594000000E+02  0.51100000000E-03 0.  1.
         11   -1    0    0    0    0 -0.00000000000E+00 -0.00000000000E+00 -0.45593999997E+02  0.45594000000E+02  0.51100000000E-03 0. -1.
    9900012    2    1    2    0    0 -0.61511058897E+01 -0.23975854627E+02 -0.20100825658E+02  0.59301938768E+02  0.49999990407E+02 0.  0.
        -12    1    1    2    0    0  0.61511058897E+01  0.23975854627E+02  0.20100825658E+02  0.31886061232E+02  0.00000000000E+00 0.  1.
         11    1    3    3    0    0 -0.89181006820E+01  0.10615628671E+01 -0.10820581548E+02  0.14062162735E+02  0.51100000000E-03 0. -1.
        -11    1    3    3    0    0 -0.72526594546E+01 -0.28847506643E+02 -0.14754189636E+02  0.33203400741E+02  0.51100000000E-03 0.  1.
         12    1    3    3    0    0  0.10019654247E+02  0.38100891485E+01  0.54739455257E+01  0.12036375292E+02  0.00000000000E+00 0. -1.
</event>
<event>
 7    1  0.3802554E-013  0.5930195E+02  0.7816164E-02  0.1266605E+00
        -11   -1    0    0    0    0  0.00000000000E+00  0.00000000000E+00  0.45593999997E+02  0.45594000000E+02  0.51100000000E-03 0. -1.
         11   -1    0    0    0    0 -0.00000000000E+00 -0.00000000000E+00 -0.45593999997E+02  0.45594000000E+02  0.51100000000E-03 0.  1.
    9900012    2    1    2    0    0  0.85337853379E+01 -0.23842984515E+02  0.19375410420E+02  0.59301953966E+02  0.50000018124E+02 0.  0.
        -12    1    1    2    0    0 -0.85337853379E+01  0.23842984515E+02 -0.19375410420E+02  0.31886046034E+02  0.00000000000E+00 0.  1.
         11    1    3    3    0    0  0.81593667997E+01 -0.39189136394E+01 -0.85080180754E+01  0.12422540904E+02  0.51100000000E-03 0. -1.
        -11    1    3    3    0    0  0.15498608703E+01  0.31625343634E+00 -0.66493320294E+01  0.68348885618E+01  0.51100000000E-03 0.  1.
         12    1    3    3    0    0 -0.11754423321E+01 -0.20240324312E+02  0.34532760525E+02  0.40044524500E+02  0.00000000000E+00 0. -1.
</event>
<event>
 7    1  0.3802554E-013  0.5930197E+02  0.7816164E-02  0.1266605E+00
        -11   -1    0    0    0    0  0.00000000000E+00  0.00000000000E+00  0.45593999997E+02  0.45594000000E+02  0.51100000000E-03 0.  1.
         11   -1    0    0    0    0 -0.00000000000E+00 -0.00000000000E+00 -0.45593999997E+02  0.45594000000E+02  0.51100000000E-03 0. -1.
    9900012    2    1    2    0    0  0.12591408260E+01 -0.31336266613E+02 -0.57595259076E+01  0.59301965760E+02  0.50000039635E+02 0.  0.
        -12    1    1    2    0    0 -0.12591408260E+01  0.31336266613E+02  0.57595259076E+01  0.31886034240E+02  0.00000000000E+00 0.  1.
         11    1    3    3    0    0  0.15689947696E+01 -0.25961646870E+02 -0.87897404116E-01  0.26009163366E+02  0.51100000000E-03 0. -1.
        -11    1    3    3    0    0 -0.10854702683E+02 -0.14962463075E+02 -0.42708979265E+01  0.18972096378E+02  0.51100000000E-03 0.  1.
         12    1    3    3    0    0  0.10544848739E+02  0.95878433317E+01 -0.14007305769E+01  0.14320706017E+02  0.00000000000E+00 0. -1.
</event>
<event>
 7    1  0.3802554E-013  0.5930192E+02  0.7816164E-02  0.1266605E+00
        -11   -1    0    0    0    0  0.00000000000E+00  0.00000000000E+00  0.45593999997E+02  0.45594000000E+02  0.51100000000E-03 0.  1.
         11   -1    0    0    0    0 -0.00000000000E+00 -0.00000000000E+00 -0.45593999997E+02  0.45594000000E+02  0.51100000000E-03 0. -1.
    9900012    2    1    2    0    0  0.12296411236E+02  0.18980391034E+01 -0.29358437402E+02  0.59301919520E+02  0.49999955303E+02 0.  0.
        -12    1    1    2    0    0 -0.12296411236E+02 -0.18980391034E+01  0.29358437402E+02  0.31886080480E+02  0.00000000000E+00 0.  1.
         11    1    3    3    0    0  0.14256065022E+02 -0.16581822201E+02 -0.30299113915E+02  0.37366141381E+02  0.51100000000E-03 0. -1.
        -11    1    3    3    0    0  0.16845461787E+01  0.22495585946E+01  0.41328498585E+01  0.49978653356E+01  0.51100000000E-03 0.  1.
        -12    1    3    3    0    0 -0.36441999647E+01  0.16230302710E+02 -0.31921733454E+01  0.16937912803E+02  0.00000000000E+00 0.  1.
</event>
<event>
 7    1  0.3802554E-013  0.5930199E+02  0.7816164E-02  0.1266605E+00
        -11   -1    0    0    0    0  0.00000000000E+00  0.00000000000E+00  0.45593999997E+02  0.45594000000E+02  0.51100000000E-03 0. -1.
         11   -1    0    0    0    0 -0.00000000000E+00 -0.00000000000E+00 -0.45593999997E+02  0.45594000000E+02  0.51100000000E-03 0.  1.
    9900012    2    1    2    0    0  0.28899703961E+02  0.12955401970E+02  0.36989446123E+01  0.59301991775E+02  0.50000087080E+02 0.  0.
        -12    1    1    2    0    0 -0.28899703961E+02 -0.12955401970E+02 -0.36989446123E+01  0.31886008225E+02  0.00000000000E+00 0.  1.
         11    1    3    3    0    0  0.36810938534E+02  0.15375331052E+02  0.98555841257E+01  0.41092317280E+02  0.51100000000E-03 0. -1.
        -11    1    3    3    0    0 -0.54310512529E+01  0.67597022567E+00  0.43422943633E+01  0.69863276516E+01  0.51100000000E-03 0.  1.
        -12    1    3    3    0    0 -0.24801833199E+01 -0.30958993073E+01 -0.10498933877E+02  0.11223346843E+02  0.00000000000E+00 0.  1.
</event>
<event>
 7    1  0.3802554E-013  0.5930188E+02  0.7816164E-02  0.1266605E+00
        -11   -1    0    0    0    0  0.00000000000E+00  0.00000000000E+00  0.45593999997E+02  0.45594000000E+02  0.51100000000E-03 0.  1.
         11   -1    0    0    0    0 -0.00000000000E+00 -0.00000000000E+00 -0.45593999997E+02  0.45594000000E+02  0.51100000000E-03 0. -1.
    9900012    2    1    2    0    0 -0.54794654850E+01  0.23118295933E+00 -0.31410932159E+02  0.59301880032E+02  0.49999883287E+02 0.  0.
        -12    1    1    2    0    0  0.54794654850E+01 -0.23118295933E+00  0.31410932159E+02  0.31886119968E+02  0.00000000000E+00 0.  1.
         11    1    3    3    0    0  0.12410857275E+02  0.51712027563E+01 -0.21014896413E+02  0.24947877420E+02  0.51100000000E-03 0. -1.
        -11    1    3    3    0    0 -0.12071222692E+02  0.99749123994E+01 -0.95073049334E+01  0.18319447099E+02  0.51100000000E-03 0.  1.
        -12    1    3    3    0    0 -0.58191000679E+01 -0.14914932196E+02 -0.88873081165E+00  0.16034555512E+02  0.00000000000E+00 0.  1.
</event>
<event>
 7    1  0.3802554E-013  0.5930194E+02  0.7816164E-02  0.1266605E+00
        -11   -1    0    0    0    0  0.00000000000E+00  0.00000000000E+00  0.45593999997E+02  0.45594000000E+02  0.51100000000E-03 0.  1.
         11   -1    0    0    0    0 -0.00000000000E+00 -0.00000000000E+00 -0.45593999997E+02  0.45594000000E+02  0.51100000000E-03 0. -1.
    9900012    2    1    2    0    0 -0.29088432815E+02  0.12998033202E+02 -0.12785884543E+01  0.59301943813E+02  0.49999999608E+02 0.  0.
        -12    1    1    2    0    0  0.29088432815E+02 -0.12998033202E+02  0.12785884543E+01  0.31886056187E+02  0.00000000000E+00 0.  1.
         11    1    3    3    0    0 -0.43978919840E+01 -0.86376712007E+01  0.23485653751E+00  0.96956678743E+01  0.51100000000E-03 0. -1.
        -11    1    3    3    0    0 -0.13219268617E+02  0.34634647972E+00 -0.16508196315E+02  0.21151585390E+02  0.51100000000E-03 0.  1.
        -12    1    3    3    0    0 -0.11471272214E+02  0.21289357923E+02  0.14994751324E+02  0.28454690549E+02  0.00000000000E+00 0.  1.
</event>
<event>
 7    1  0.3802554E-013  0.5930194E+02  0.7816164E-02  0.1266605E+00
        -11   -1    0    0    0    0  0.00000000000E+00  0.00000000000E+00  0.45593999997E+02  0.45594000000E+02  0.51100000000E-03 0. -1.
         11   -1    0    0    0    0 -0.00000000000E+00 -0.00000000000E+00 -0.45593999997E+02  0.45594000000E+02  0.51100000000E-03 0.  1.
    9900012    2    1    2    0    0 -0.22690811813E+02 -0.47258236733E+00  0.22396971653E+02  0.59301943266E+02  0.49999998611E+02 0.  0.
        -12    1    1    2    0    0  0.22690811813E+02  0.47258236733E+00 -0.22396971653E+02  0.31886056734E+02  0.00000000000E+00 0.  1.
         11    1    3    3    0    0 -0.24046753454E+01  0.12920698939E+02 -0.52778554514E+01  0.14162721597E+02  0.51100000000E-03 0. -1.
        -11    1    3    3    0    0 -0.64542521686E+01  0.60673041461E+01  0.36698448701E+00  0.88659025785E+01  0.51100000000E-03 0.  1.
         12    1    3    3    0    0 -0.13831884299E+02 -0.19460585453E+02  0.27307842617E+02  0.36273319091E+02  0.00000000000E+00 0. -1.
</event>
<event>
 7    1  0.3802554E-013  0.5930194E+02  0.7816164E-02  0.1266605E+00
        -11   -1    0    0    0    0  0.00000000000E+00  0.00000000000E+00  0.45593999997E+02  0.45594000000E+02  0.51100000000E-03 0. -1.
         11   -1    0    0    0    0 -0.00000000000E+00 -0.00000000000E+00 -0.45593999997E+02  0.45594000000E+02  0.51100000000E-03 0.  1.
    9900012    2    1    2    0    0 -0.55405370096E+01  0.25212591774E+02  0.18717591213E+02  0.59301944190E+02  0.50000000296E+02 0.  0.
        -12    1    1    2    0    0  0.55405370096E+01 -0.25212591774E+02 -0.18717591213E+02  0.31886055810E+02  0.00000000000E+00 0.  1.
         11    1    3    3    0    0 -0.18033733943E+02  0.26374963945E+02  0.16104762604E+02  0.35780129428E+02  0.51100000000E-03 0. -1.
        -11    1    3    3    0    0  0.90803614717E+00  0.68733671838E+01 -0.39397539809E+01  0.79742941869E+01  0.51100000000E-03 0.  1.
        -12    1    3    3    0    0  0.11585160787E+02 -0.80357393557E+01  0.65525825898E+01  0.15547520575E+02  0.00000000000E+00 0.  1.
</event>
<event>
 7    1  0.3802554E-013  0.5930195E+02  0.7816164E-02  0.1266605E+00
        -11   -1    0    0    0    0  0.00000000000E+00  0.00000000000E+00  0.45593999997E+02  0.45594000000E+02  0.51100000000E-03 0.  1.
         11   -1    0    0    0    0 -0.00000000000E+00 -0.00000000000E+00 -0.45593999997E+02  0.45594000000E+02  0.51100000000E-03 0. -1.
    9900012    2    1    2    0    0  0.12755034809E+02  0.18670639817E+02 -0.22481911912E+02  0.59301951839E+02  0.50000014245E+02 0.  0.
        -12    1    1    2    0    0 -0.12755034809E+02 -0.18670639817E+02  0.22481911912E+02  0.31886048161E+02  0.00000000000E+00 0.  1.
         11    1    3    3    0    0 -0.27684254185E+00  0.15499544567E+02 -0.21438050143E+02  0.26455670806E+02  0.51100000000E-03 0. -1.
        -11    1    3    3    0    0  0.17707690237E+02  0.11143514623E+02 -0.67501796772E+01  0.21984202001E+02  0.51100000000E-03 0.  1.
         12    1    3    3    0    0 -0.46758128867E+01 -0.79724193731E+01  0.57063179087E+01  0.10862079032E+02  0.00000000000E+00 0. -1.
</event>
<event>
 7    1  0.3802554E-013  0.5930196E+02  0.7816164E-02  0.1266605E+00
        -11   -1    0    0    0    0  0.00000000000E+00  0.00000000000E+00  0.45593999997E+02  0.45594000000E+02  0.51100000000E-03 0.  1.
         11   -1    0    0    0    0 -0.00000000000E+00 -0.00000000000E+00 -0.45593999997E+02  0.45594000000E+02  0.51100000000E-03 0. -1.
    9900012    2    1    2    0    0  0.29565698583E+02  0.11696533644E+02 -0.24042203805E+01  0.59301957479E+02  0.50000024533E+02 0.  0.
        -12    1    1    2    0    0 -0.29565698583E+02 -0.11696533644E+02  0.24042203805E+01  0.31886042521E+02  0.00000000000E+00 0.  1.
         11    1    3    3    0    0  0.18342621578E+02  0.73038573549E+01  0.15717760938E+02  0.25235810029E+02  0.51100000000E-03 0. -1.
        -11    1    3    3    0    0  0.10328542869E+02  0.56627407744E+01  0.35781308468E+01  0.12310501675E+02  0.51100000000E-03 0.  1.
         12    1    3    3    0    0  0.89453413544E+00 -0.12700644851E+01 -0.21700112165E+02  0.21755645776E+02  0.00000000000E+00 0. -1.
</event>
<event>
 7    1  0.3802554E-013  0.5930194E+02  0.7816164E-02  0.1266605E+00
        -11   -1    0    0    0    0  0.00000000000E+00  0.00000000000E+00  0.45593999997E+02  0.45594000000E+02  0.51100000000E-03 0. -1.
         11   -1    0    0    0    0 -0.00000000000E+00 -0.00000000000E+00 -0.45593999997E+02  0.45594000000E+02  0.51100000000E-03 0.  1.
    9900012    2    1    2    0    0  0.11618972408E+02 -0.26767995921E+02  0.12852799496E+02  0.59301943794E+02  0.49999999574E+02 0.  0.
        -12    1    1    2    0    0 -0.11618972408E+02  0.26767995921E+02 -0.12852799496E+02  0.31886056206E+02  0.00000000000E+00 0.  1.
         11    1    3    3    0    0  0.14327105886E+01 -0.10846391879E+02  0.13934893499E+02  0.17716606152E+02  0.51100000000E-03 0. -1.
        -11    1    3    3    0    0  0.21355668998E+02 -0.90491185067E+01  0.91684972297E+01  0.24940178143E+02  0.51100000000E-03 0.  1.
         12    1    3    3    0    0 -0.11169407178E+02 -0.68724855356E+01 -0.10250591233E+02  0.16645159500E+02  0.00000000000E+00 0. -1.
</event>
<event>
 7    1  0.3802554E-013  0.5930195E+02  0.7816164E-02  0.1266605E+00
        -11   -1    0    0    0    0  0.00000000000E+00  0.00000000000E+00  0.45593999997E+02  0.45594000000E+02  0.51100000000E-03 0.  1.
         11   -1    0    0    0    0 -0.00000000000E+00 -0.00000000000E+00 -0.45593999997E+02  0.45594000000E+02  0.51100000000E-03 0. -1.
    9900012    2    1    2    0    0  0.15470731254E+02 -0.93957256727E+01 -0.26250662233E+02  0.59301945774E+02  0.50000003184E+02 0.  0.
        -12    1    1    2    0    0 -0.15470731254E+02  0.93957256727E+01  0.26250662233E+02  0.31886054226E+02  0.00000000000E+00 0.  1.
         11    1    3    3    0    0  0.10388914698E+02 -0.11924555206E+02 -0.18485402195E+01  0.15922991763E+02  0.51100000000E-03 0. -1.
        -11    1    3    3    0    0  0.11571888542E+02 -0.71187488537E+01  0.27322884863E+01  0.13858231860E+02  0.51100000000E-03 0.  1.
        -12    1    3    3    0    0 -0.64900719858E+01  0.96475783869E+01 -0.27134410500E+02  0.29520722151E+02  0.00000000000E+00 0.  1.
</event>
<event>
 7    1  0.3802554E-013  0.5930195E+02  0.7816164E-02  0.1266605E+00
        -11   -1    0    0    0    0  0.00000000000E+00  0.00000000000E+00  0.45593999997E+02  0.45594000000E+02  0.51100000000E-03 0. -1.
         11   -1    0    0    0    0 -0.00000000000E+00 -0.00000000000E+00 -0.45593999997E+02  0.45594000000E+02  0.51100000000E-03 0.  1.
    9900012    2    1    2    0    0 -0.16829695712E+02 -0.12045481235E+02  0.24256714475E+02  0.59301945477E+02  0.50000002642E+02 0.  0.
        -12    1    1    2    0    0  0.16829695712E+02  0.12045481235E+02 -0.24256714475E+02  0.31886054523E+02  0.00000000000E+00 0.  1.
         11    1    3    3    0    0  0.26946072986E+01 -0.16015397575E+02  0.21323593848E+02  0.26803908723E+02  0.51100000000E-03 0. -1.
        -11    1    3    3    0    0 -0.22130555705E+01 -0.94568991243E+01  0.41375784051E+01  0.10556993479E+02  0.51100000000E-03 0.  1.
        -12    1    3    3    0    0 -0.17311247440E+02  0.13426815464E+02 -0.12044577778E+01  0.21941043274E+02  0.00000000000E+00 0.  1.
</event>
<event>
 7    1  0.3802554E-013  0.5930196E+02  0.7816164E-02  0.1266605E+00
        -11   -1    0    0    0    0  0.00000000000E+00  0.00000000000E+00  0.45593999997E+02  0.45594000000E+02  0.51100000000E-03 0. -1.
         11   -1    0    0    0    0 -0.00000000000E+00 -0.00000000000E+00 -0.45593999997E+02  0.45594000000E+02  0.51100000000E-03 0.  1.
    9900012    2    1    2    0    0 -0.11906794720E+02 -0.26574909268E+02 -0.12989311062E+02  0.59301956580E+02  0.50000022892E+02 0.  0.
        -12    1    1    2    0    0  0.11906794720E+02  0.26574909268E+02  0.12989311062E+02  0.31886043420E+02  0.00000000000E+00 0.  1.
         11    1    3    3    0    0  0.38009235368E+00  0.60480880590E+01  0.34384260706E+01  0.69675399870E+01  0.51100000000E-03 0. -1.
        -11    1    3    3    0    0 -0.36030650003E+01 -0.81038232882E+01  0.11267648996E+02  0.14339244870E+02  0.51100000000E-03 0.  1.
         12    1    3    3    0    0 -0.86838220736E+01 -0.24519174039E+02 -0.27695386129E+02  0.37995171722E+02  0.00000000000E+00 0. -1.
</event>
<event>
 7    1  0.3802554E-013  0.5930195E+02  0.7816164E-02  0.1266605E+00
        -11   -1    0    0    0    0  0.00000000000E+00  0.00000000000E+00  0.45593999997E+02  0.45594000000E+02  0.51100000000E-03 0. -1.
         11   -1    0    0    0    0 -0.00000000000E+00 -0.00000000000E+00 -0.45593999997E+02  0.45594000000E+02  0.51100000000E-03 0.  1.
    9900012    2    1    2    0    0 -0.22866267509E+02 -0.19821775875E+02  0.10047446235E+02  0.59301950316E+02  0.50000011468E+02 0.  0.
        -12    1    1    2    0    0  0.22866267509E+02  0.19821775875E+02 -0.10047446235E+02  0.31886049684E+02  0.00000000000E+00 0.  1.
         11    1    3    3    0    0  0.30192373748E+01 -0.18476140013E+02  0.14270778870E+02  0.23540150253E+02  0.51100000000E-03 0. -1.
        -11    1    3    3    0    0 -0.14686440819E+02  0.84838584458E+01  0.56610265943E+01  0.17880565439E+02  0.51100000000E-03 0.  1.
         12    1    3    3    0    0 -0.11199064065E+02 -0.98294943071E+01 -0.98843592298E+01  0.17881234623E+02  0.00000000000E+00 0. -1.
</event>
<event>
 7    1  0.3802554E-013  0.5930193E+02  0.7816164E-02  0.1266605E+00
        -11   -1    0    0    0    0  0.00000000000E+00  0.00000000000E+00  0.45593999997E+02  0.45594000000E+02  0.51100000000E-03 0.  1.
         11   -1    0    0    0    0 -0.00000000000E+00 -0.00000000000E+00 -0.45593999997E+02  0.45594000000E+02  0.51100000000E-03 0. -1.
    9900012    2    1    2    0    0  0.10937171962E+02  0.17673920203E+02 -0.24181231963E+02  0.59301934625E+02  0.49999982851E+02 0.  0.
        -12    1    1    2    0    0 -0.10937171962E+02 -0.17673920203E+02  0.24181231963E+02  0.31886065375E+02  0.00000000000E+00 0.  1.
         11    1    3    3    0    0 -0.49853500673E+01  0.65543847547E+01  0.98314208615E+00  0.82933855227E+01  0.51100000000E-03 0. -1.
        -11    1    3    3    0    0  0.26853953499E+01 -0.18317995648E+01 -0.31323757043E+02  0.31491976651E+02  0.51100000000E-03 0.  1.
        -12    1    3    3    0    0  0.13237126679E+02  0.12951335013E+02  0.61593829946E+01  0.19516572451E+02  0.00000000000E+00 0.  1.
</event>
<event>
 7    1  0.3802554E-013  0.5930194E+02  0.7816164E-02  0.1266605E+00
        -11   -1    0    0    0    0  0.00000000000E+00  0.00000000000E+00  0.45593999997E+02  0.45594000000E+02  0.51100000000E-03 0.  1.
         11   -1    0    0    0    0 -0.00000000000E+00 -0.00000000000E+00 -0.45593999997E+02  0.45594000000E+02  0.51100000000E-03 0. -1.
    9900012    2    1    2    0    0  0.96528946265E+01 -0.27473448643E+02  0.12990472152E+02  0.59301935305E+02  0.49999984092E+02 0.  0.
        -12    1    1    2    0    0 -0.96528946265E+01  0.27473448643E+02 -0.12990472152E+02  0.31886064695E+02  0.00000000000E+00 0.  1.
         11    1    3    3    0    0 -0.90068368531E+01 -0.22298014229E+02 -0.35612286403E+01  0.24310633442E+02  0.51100000000E-03 0. -1.
        -11    1    3    3    0    0 -0.51172944553E+01 -0.47780885596E+01  0.29638014041E+01  0.76026937233E+01  0.51100000000E-03 0.  1.
        -12    1    3    3    0    0  0.23777025935E+02 -0.39734585375E+00  0.13587899389E+02  0.27388608140E+02  0.00000000000E+00 0.  1.
</event>
<event>
 7    1  0.3802554E-013  0.5930194E+02  0.7816164E-02  0.1266605E+00
        -11   -1    0    0    0    0  0.00000000000E+00  0.00000000000E+00  0.45593999997E+02  0.45594000000E+02  0.51100000000E-03 0. -1.
         11   -1    0    0    0    0 -0.00000000000E+00 -0.00000000000E+00 -0.45593999997E+02  0.45594000000E+02  0.51100000000E-03 0.  1.
    9900012    2    1    2    0    0  0.24062235033E+01 -0.31601697924E+02  0.35019010846E+01  0.59301944514E+02  0.50000000888E+02 0.  0.
        -12    1    1    2    0    0 -0.24062235033E+01  0.31601697924E+02 -0.35019010846E+01  0.31886055486E+02  0.00000000000E+00 0.  1.
         11    1    3    3    0    0  0.64072764529E+00 -0.18804272076E+02  0.89124662550E+00  0.18836281508E+02  0.51100000000E-03 0. -1.
        -11    1    3    3    0    0  0.19300389677E+02 -0.11608038504E+02  0.38411642195E+01  0.22847453740E+02  0.51100000000E-03 0.  1.
         12    1    3    3    0    0 -0.17534893819E+02 -0.11893873438E+01 -0.12305097604E+01  0.17618209266E+02  0.00000000000E+00 0. -1.
</event>
<event>
 7    1  0.3802554E-013  0.5930196E+02  0.7816164E-02  0.1266605E+00
        -11   -1    0    0    0    0  0.00000000000E+00  0.00000000000E+00  0.45593999997E+02  0.45594000000E+02  0.51100000000E-03 0.  1.
         11   -1    0    0    0    0 -0.00000000000E+00 -0.00000000000E+00 -0.45593999997E+02  0.45594000000E+02  0.51100000000E-03 0. -1.
    9900012    2    1    2    0    0  0.12003136890E+02  0.29473744785E+02  0.19855694474E+01  0.59301962101E+02  0.50000032961E+02 0.  0.
        -12    1    1    2    0    0 -0.12003136890E+02 -0.29473744785E+02 -0.19855694474E+01  0.31886037899E+02  0.00000000000E+00 0.  1.
         11    1    3    3    0    0 -0.18040305991E+01  0.85262965079E+01  0.83275718565E+00  0.87547554697E+01  0.51100000000E-03 0. -1.
        -11    1    3    3    0    0  0.26987626396E+01  0.23333834329E+02  0.18438465698E+02  0.29861817792E+02  0.51100000000E-03 0.  1.
         12    1    3    3    0    0  0.11108404850E+02 -0.23863860519E+01 -0.17285653436E+02  0.20685388839E+02  0.00000000000E+00 0. -1.
</event>
<event>
 7    1  0.3802554E-013  0.5930196E+02  0.7816164E-02  0.1266605E+00
        -11   -1    0    0    0    0  0.00000000000E+00  0.00000000000E+00  0.45593999997E+02  0.45594000000E+02  0.51100000000E-03 0.  1.
         11   -1    0    0    0    0 -0.00000000000E+00 -0.00000000000E+00 -0.45593999997E+02  0.45594000000E+02  0.51100000000E-03 0. -1.
    9900012    2    1    2    0    0 -0.23452799080E+02 -0.20019683182E+02 -0.81177786971E+01  0.59301955555E+02  0.50000021023E+02 0.  0.
        -12    1    1    2    0    0  0.23452799080E+02  0.20019683182E+02  0.81177786971E+01  0.31886044445E+02  0.00000000000E+00 0.  1.
         11    1    3    3    0    0 -0.21543783156E+02 -0.37874155148E+01 -0.51780586191E+01  0.22478687690E+02  0.51100000000E-03 0. -1.
        -11    1    3    3    0    0 -0.63319602454E+01  0.23403708266E+01 -0.13435746968E+02  0.15036301174E+02  0.51100000000E-03 0.  1.
         12    1    3    3    0    0  0.44229443214E+01 -0.18572638493E+02  0.10496026890E+02  0.21786966690E+02  0.00000000000E+00 0. -1.
</event>
<event>
 7    1  0.3802554E-013  0.5930199E+02  0.7816164E-02  0.1266605E+00
        -11   -1    0    0    0    0  0.00000000000E+00  0.00000000000E+00  0.45593999997E+02  0.45594000000E+02  0.51100000000E-03 0. -1.
         11   -1    0    0    0    0 -0.00000000000E+00 -0.00000000000E+00 -0.45593999997E+02  0.45594000000E+02  0.51100000000E-03 0.  1.
    9900012    2    1    2    0    0  0.21295502207E+02 -0.63835323593E+01  0.22857593897E+02  0.59301992122E+02  0.50000087712E+02 0.  0.
        -12    1    1    2    0    0 -0.21295502207E+02  0.63835323593E+01 -0.22857593897E+02  0.31886007878E+02  0.00000000000E+00 0.  1.
         11    1    3    3    0    0  0.72037967874E+00 -0.19916182482E+02  0.12333921091E+02  0.23437126131E+02  0.51100000000E-03 0. -1.
        -11    1    3    3    0    0 -0.13549088161E+01 -0.41782573575E+01  0.58119880379E+01  0.72851093101E+01  0.51100000000E-03 0.  1.
        -12    1    3    3    0    0  0.21930031345E+02  0.17710907481E+02  0.47116847686E+01  0.28579756681E+02  0.00000000000E+00 0.  1.
</event>
<event>
 7    1  0.3802554E-013  0.5930194E+02  0.7816164E-02  0.1266605E+00
        -11   -1    0    0    0    0  0.00000000000E+00  0.00000000000E+00  0.45593999997E+02  0.45594000000E+02  0.51100000000E-03 0.  1.
         11   -1    0    0    0    0 -0.00000000000E+00 -0.00000000000E+00 -0.45593999997E+02  0.45594000000E+02  0.51100000000E-03 0. -1.
    9900012    2    1    2    0    0 -0.15438207086E+02  0.24984479296E+02  0.12416058958E+02  0.59301937782E+02  0.49999988609E+02 0.  0.
        -12    1    1    2    0    0  0.15438207086E+02 -0.24984479296E+02 -0.12416058958E+02  0.31886062218E+02  0.00000000000E+00 0.  1.
         11    1    3    3    0    0 -0.18435694747E+02  0.17871729421E+01 -0.36017672065E+01  0.18869063443E+02  0.51100000000E-03 0. -1.
        -11    1    3    3    0    0 -0.11264250918E+02  0.22432407175E+01  0.26933056844E+01  0.11797006969E+02  0.51100000000E-03 0.  1.
         12    1    3    3    0    0  0.14261738579E+02  0.20954065637E+02  0.13324520480E+02  0.28635867370E+02  0.00000000000E+00 0. -1.
</event>
<event>
 7    1  0.3802554E-013  0.5930195E+02  0.7816164E-02  0.1266605E+00
        -11   -1    0    0    0    0  0.00000000000E+00  0.00000000000E+00  0.45593999997E+02  0.45594000000E+02  0.51100000000E-03 0. -1.
         11   -1    0    0    0    0 -0.00000000000E+00 -0.00000000000E+00 -0.45593999997E+02  0.45594000000E+02  0.51100000000E-03 0.  1.
    9900012    2    1    2    0    0 -0.22606307328E+02  0.13145650031E+02  0.18244634517E+02  0.59301953923E+02  0.50000018048E+02 0.  0.
        -12    1    1    2    0    0  0.22606307328E+02 -0.13145650031E+02 -0.18244634517E+02  0.31886046077E+02  0.00000000000E+00 0.  1.
         11    1    3    3    0    0  0.13666083220E+01  0.15779744821E+01  0.10601328523E+02  0.10804896505E+02  0.51100000000E-03 0. -1.
        -11    1    3    3    0    0 -0.28800145072E+02  0.22072192176E+02  0.66927383627E+01  0.36897462930E+02  0.51100000000E-03 0.  1.
        -12    1    3    3    0    0  0.48272294228E+01 -0.10504516627E+02  0.95056763115E+00  0.11599594488E+02  0.00000000000E+00 0.  1.
</event>
<event>
 7    1  0.3802554E-013  0.5930191E+02  0.7816164E-02  0.1266605E+00
        -11   -1    0    0    0    0  0.00000000000E+00  0.00000000000E+00  0.45593999997E+02  0.45594000000E+02  0.51100000000E-03 0.  1.
         11   -1    0    0    0    0 -0.00000000000E+00 -0.00000000000E+00 -0.45593999997E+02  0.45594000000E+02  0.51100000000E-03 0. -1.
    9900012    2    1    2    0    0  0.18005046258E+02  0.79628527063E+01  0.25082549007E+02  0.59301906187E+02  0.49999930987E+02 0.  0.
        -12    1    1    2    0    0 -0.18005046258E+02 -0.79628527063E+01 -0.25082549007E+02  0.31886093813E+02  0.00000000000E+00 0.  1.
         11    1    3    3    0    0  0.29251785012E+01 -0.14103087763E+02  0.11582615417E+02  0.18482714462E+02  0.51100000000E-03 0. -1.
        -11    1    3    3    0    0 -0.61567729276E+01  0.14871933397E+02  0.59371483204E+01  0.17156048097E+02  0.51100000000E-03 0.  1.
        -12    1    3    3    0    0  0.21236640685E+02  0.71940070725E+01  0.75627852695E+01  0.23663143628E+02  0.00000000000E+00 0.  1.
</event>
<event>
 7    1  0.3802554E-013  0.5930198E+02  0.7816164E-02  0.1266605E+00
        -11   -1    0    0    0    0  0.00000000000E+00  0.00000000000E+00  0.45593999997E+02  0.45594000000E+02  0.51100000000E-03 0.  1.
         11   -1    0    0    0    0 -0.00000000000E+00 -0.00000000000E+00 -0.45593999997E+02  0.45594000000E+02  0.51100000000E-03 0. -1.
    9900012    2    1    2    0    0 -0.19783222324E+02  0.22251953543E+02 -0.11410207261E+02  0.59301981877E+02  0.50000069027E+02 0.  0.
        -12    1    1    2    0    0  0.19783222324E+02 -0.22251953543E+02  0.11410207261E+02  0.31886018123E+02  0.00000000000E+00 0.  1.
         11    1    3    3    0    0 -0.24149591750E+01  0.93198155836E+01  0.74554033212E+01  0.12176782386E+02  0.51100000000E-03 0. -1.
        -11    1    3    3    0    0 -0.40457886281E+01  0.90370280383E+00  0.11292772017E+02  0.12029621127E+02  0.51100000000E-03 0.  1.
         12    1    3    3    0    0 -0.13322474521E+02  0.12028435156E+02 -0.30158382599E+02  0.35095578363E+02  0.00000000000E+00 0. -1.
</event>
<event>
 7    1  0.3802554E-013  0.5930191E+02  0.7816164E-02  0.1266605E+00
        -11   -1    0    0    0    0  0.00000000000E+00  0.00000000000E+00  0.45593999997E+02  0.45594000000E+02  0.51100000000E-03 0. -1.
         11   -1    0    0    0    0 -0.00000000000E+00 -0.00000000000E+00 -0.45593999997E+02  0.45594000000E+02  0.51100000000E-03 0.  1.
    9900012    2    1    2    0    0 -0.11084444250E+02 -0.23375384962E+02  0.18639990318E+02  0.59301909529E+02  0.49999937083E+02 0.  0.
        -12    1    1    2    0    0  0.11084444250E+02  0.23375384962E+02 -0.18639990318E+02  0.31886090471E+02  0.00000000000E+00 0.  1.
         11    1    3    3    0    0 -0.16664357190E+02 -0.74862128625E+01  0.62471066204E+01  0.19307266119E+02  0.51100000000E-03 0. -1.
        -11    1    3    3    0    0  0.10984971469E+01 -0.25658193538E+02  0.32547596552E+01  0.25887121360E+02  0.51100000000E-03 0.  1.
         12    1    3    3    0    0  0.44814157939E+01  0.97690214388E+01  0.91381240426E+01  0.14107522051E+02  0.00000000000E+00 0. -1.
</event>
<event>
 7    1  0.3802554E-013  0.5930195E+02  0.7816164E-02  0.1266605E+00
        -11   -1    0    0    0    0  0.00000000000E+00  0.00000000000E+00  0.45593999997E+02  0.45594000000E+02  0.51100000000E-03 0. -1.
         11   -1    0    0    0    0 -0.00000000000E+00 -0.00000000000E+00 -0.45593999997E+02  0.45594000000E+02  0.51100000000E-03 0.  1.
    9900012    2    1    2    0    0 -0.45031615683E+01 -0.27390847792E+02  0.15690227115E+02  0.59301949228E+02  0.50000009484E+02 0.  0.
        -12    1    1    2    0    0  0.45031615683E+01  0.27390847792E+02 -0.15690227115E+02  0.31886050772E+02  0.00000000000E+00 0.  1.
         11    1    3    3    0    0  0.22942460024E+01 -0.30295622022E+01 -0.70230215759E+01  0.79852767124E+01  0.51100000000E-03 0. -1.
        -11    1    3    3    0    0  0.19971590892E+01  0.19173922873E+01 -0.88745686065E+01  0.92963974648E+01  0.51100000000E-03 0.  1.
         12    1    3    3    0    0 -0.87945666599E+01 -0.26278677878E+02  0.31587817298E+02  0.42020275051E+02  0.00000000000E+00 0. -1.
</event>
<event>
 7    1  0.3802554E-013  0.5930189E+02  0.7816164E-02  0.1266605E+00
        -11   -1    0    0    0    0  0.00000000000E+00  0.00000000000E+00  0.45593999997E+02  0.45594000000E+02  0.51100000000E-03 0.  1.
         11   -1    0    0    0    0 -0.00000000000E+00 -0.00000000000E+00 -0.45593999997E+02  0.45594000000E+02  0.51100000000E-03 0. -1.
    9900012    2    1    2    0    0 -0.13716425332E+02  0.90826679861E+01 -0.27314630015E+02  0.59301887122E+02  0.49999896217E+02 0.  0.
        -12    1    1    2    0    0  0.13716425332E+02 -0.90826679861E+01  0.27314630015E+02  0.31886112878E+02  0.00000000000E+00 0.  1.
         11    1    3    3    0    0 -0.34554023276E+01  0.84321671778E+01 -0.89007852396E+01  0.12738336889E+02  0.51100000000E-03 0. -1.
        -11    1    3    3    0    0 -0.19217283240E+02  0.15153759221E+02 -0.16259474734E+02  0.29382152959E+02  0.51100000000E-03 0.  1.
         12    1    3    3    0    0  0.89562602356E+01 -0.14503258412E+02 -0.21543700411E+01  0.17181397273E+02  0.00000000000E+00 0. -1.
</event>
<event>
 7    1  0.3802554E-013  0.5930195E+02  0.7816164E-02  0.1266605E+00
        -11   -1    0    0    0    0  0.00000000000E+00  0.00000000000E+00  0.45593999997E+02  0.45594000000E+02  0.51100000000E-03 0.  1.
         11   -1    0    0    0    0 -0.00000000000E+00 -0.00000000000E+00 -0.45593999997E+02  0.45594000000E+02  0.51100000000E-03 0. -1.
    9900012    2    1    2    0    0  0.94158928793E+01 -0.25846669879E+02 -0.16124857550E+02  0.59301946409E+02  0.50000004343E+02 0.  0.
        -12    1    1    2    0    0 -0.94158928793E+01  0.25846669879E+02  0.16124857550E+02  0.31886053591E+02  0.00000000000E+00 0.  1.
         11    1    3    3    0    0  0.72595013441E+01 -0.28697513395E+02 -0.19691346835E+02  0.35552732318E+02  0.51100000000E-03 0. -1.
        -11    1    3    3    0    0 -0.49264769569E+01  0.67148350360E+01 -0.67021051022E+01  0.10690060703E+02  0.51100000000E-03 0.  1.
        -12    1    3    3    0    0  0.70828684921E+01 -0.38639915206E+01  0.10268594387E+02  0.13059153389E+02  0.00000000000E+00 0.  1.
</event>
<event>
 7    1  0.3802554E-013  0.5930194E+02  0.7816164E-02  0.1266605E+00
        -11   -1    0    0    0    0  0.00000000000E+00  0.00000000000E+00  0.45593999997E+02  0.45594000000E+02  0.51100000000E-03 0. -1.
         11   -1    0    0    0    0 -0.00000000000E+00 -0.00000000000E+00 -0.45593999997E+02  0.45594000000E+02  0.51100000000E-03 0.  1.
    9900012    2    1    2    0    0  0.97022702905E+01 -0.15118322859E+02  0.26344315510E+02  0.59301942004E+02  0.49999996309E+02 0.  0.
        -12    1    1    2    0    0 -0.97022702905E+01  0.15118322859E+02 -0.26344315510E+02  0.31886057996E+02  0.00000000000E+00 0.  1.
         11    1    3    3    0    0 -0.11141787768E+02 -0.46898825243E+01 -0.21379580618E+01  0.12276208604E+02  0.51100000000E-03 0. -1.
        -11    1    3    3    0    0 -0.19855826658E+01  0.69488511027E+01  0.11800663757E+02  0.13837800964E+02  0.51100000000E-03 0.  1.
        -12    1    3    3    0    0  0.22829640724E+02 -0.17377291437E+02  0.16681609815E+02  0.33187932435E+02  0.00000000000E+00 0.  1.
</event>
<event>
 7    1  0.3802554E-013  0.5930195E+02  0.7816164E-02  0.1266605E+00
        -11   -1    0    0    0    0  0.00000000000E+00  0.00000000000E+00  0.45593999997E+02  0.45594000000E+02  0.51100000000E-03 0. -1.
         11   -1    0    0    0    0 -0.00000000000E+00 -0.00000000000E+00 -0.45593999997E+02  0.45594000000E+02  0.51100000000E-03 0.  1.
    9900012    2    1    2    0    0 -0.39094085291E+01  0.37394303636E+01  0.31423773052E+02  0.59301947763E+02  0.50000006811E+02 0.  0.
        -12    1    1    2    0    0  0.39094085291E+01 -0.37394303636E+01 -0.31423773052E+02  0.31886052237E+02  0.00000000000E+00 0.  1.
         11    1    3    3    0    0  0.67757507057E+01 -0.89568632795E+01  0.22355432129E+02  0.25018024370E+02  0.51100000000E-03 0. -1.
        -11    1    3    3    0    0 -0.35919273785E+01  0.98884536950E+01  0.19025317894E+02  0.21740427319E+02  0.51100000000E-03 0.  1.
        -12    1    3    3    0    0 -0.70932318563E+01  0.28078399481E+01 -0.99569769717E+01  0.12543496074E+02  0.00000000000E+00 0.  1.
</event>
<event>
 7    1  0.3802554E-013  0.5930195E+02  0.7816164E-02  0.1266605E+00
        -11   -1    0    0    0    0  0.00000000000E+00  0.00000000000E+00  0.45593999997E+02  0.45594000000E+02  0.51100000000E-03 0. -1.
         11   -1    0    0    0    0 -0.00000000000E+00 -0.00000000000E+00 -0.45593999997E+02  0.45594000000E+02  0.51100000000E-03 0.  1.
    9900012    2    1    2    0    0  0.13525566932E+02 -0.70340557681E+01  0.28005380055E+02  0.59301949548E+02  0.50000010068E+02 0.  0.
        -12    1    1    2    0    0 -0.13525566932E+02  0.70340557681E+01 -0.28005380055E+02  0.31886050452E+02  0.00000000000E+00 0.  1.
         11    1    3    3    0    0  0.19083466090E+02 -0.13760885795E+02  0.35873634229E+01  0.23799366220E+02  0.51100000000E-03 0. -1.
        -11    1    3    3    0    0 -0.10683703978E+02 -0.54848803768E+01  0.80964914849E+01  0.14483736329E+02  0.51100000000E-03 0.  1.
        -12    1    3    3    0    0  0.51258048198E+01  0.12211710404E+02  0.16321525147E+02  0.21018846999E+02  0.00000000000E+00 0.  1.
</event>
<event>
 7    1  0.3802554E-013  0.5930195E+02  0.7816164E-02  0.1266605E+00
        -11   -1    0    0    0    0  0.00000000000E+00  0.00000000000E+00  0.45593999997E+02  0.45594000000E+02  0.51100000000E-03 0. -1.
         11   -1    0    0    0    0 -0.00000000000E+00 -0.00000000000E+00 -0.45593999997E+02  0.45594000000E+02  0.51100000000E-03 0.  1.
    9900012    2    1    2    0    0 -0.62620268021E+01 -0.12376326065E+02  0.28711212947E+02  0.59301950144E+02  0.50000011155E+02 0.  0.
        -12    1    1    2    0    0  0.62620268021E+01  0.12376326065E+02 -0.28711212947E+02  0.31886049856E+02  0.00000000000E+00 0.  1.
         11    1    3    3    0    0 -0.22657297424E+01  0.27850318582E+01  0.17338006064E+01  0.39869786206E+01  0.51100000000E-03 0. -1.
        -11    1    3    3    0    0 -0.11080022523E+02  0.10077044936E+02  0.24850913905E+02  0.29015196982E+02  0.51100000000E-03 0.  1.
        -12    1    3    3    0    0  0.70837254628E+01 -0.25238402859E+02  0.21264984356E+01  0.26299774541E+02  0.00000000000E+00 0.  1.
</event>
<event>
 7    1  0.3802554E-013  0.5930191E+02  0.7816164E-02  0.1266605E+00
        -11   -1    0    0    0    0  0.00000000000E+00  0.00000000000E+00  0.45593999997E+02  0.45594000000E+02  0.51100000000E-03 0.  1.
         11   -1    0    0    0    0 -0.00000000000E+00 -0.00000000000E+00 -0.45593999997E+02  0.45594000000E+02  0.51100000000E-03 0. -1.
    9900012    2    1    2    0    0 -0.13987397780E+01  0.25660707401E+02 -0.18875756722E+02  0.59301912609E+02  0.49999942699E+02 0.  0.
        -12    1    1    2    0    0  0.13987397780E+01 -0.25660707401E+02  0.18875756722E+02  0.31886087391E+02  0.00000000000E+00 0.  1.
         11    1    3    3    0    0 -0.49483772455E+01 -0.91167530374E+01 -0.55671241552E+01  0.11772616316E+02  0.51100000000E-03 0. -1.
        -11    1    3    3    0    0 -0.12746474343E+02  0.12477349889E+02 -0.72415895561E+01  0.19250908758E+02  0.51100000000E-03 0.  1.
        -12    1    3    3    0    0  0.16296111811E+02  0.22300110549E+02 -0.60670430112E+01  0.28278387535E+02  0.00000000000E+00 0.  1.
</event>
<event>
 7    1  0.3802554E-013  0.5930192E+02  0.7816164E-02  0.1266605E+00
        -11   -1    0    0    0    0  0.00000000000E+00  0.00000000000E+00  0.45593999997E+02  0.45594000000E+02  0.51100000000E-03 0.  1.
         11   -1    0    0    0    0 -0.00000000000E+00 -0.00000000000E+00 -0.45593999997E+02  0.45594000000E+02  0.51100000000E-03 0. -1.
    9900012    2    1    2    0    0 -0.21714921098E+02 -0.22114206475E+02 -0.74930687719E+01  0.59301921440E+02  0.49999958806E+02 0.  0.
        -12    1    1    2    0    0  0.21714921098E+02  0.22114206475E+02  0.74930687719E+01  0.31886078560E+02  0.00000000000E+00 0.  1.
         11    1    3    3    0    0  0.26968065149E+01 -0.40615695924E+01  0.44700301723E+01  0.66143996655E+01  0.51100000000E-03 0. -1.
        -11    1    3    3    0    0 -0.15871718078E+02  0.60072846671E+01  0.93982315693E+01  0.19399114947E+02  0.51100000000E-03 0.  1.
         12    1    3    3    0    0 -0.85400095341E+01 -0.24059921550E+02 -0.21361330513E+02  0.33288406828E+02  0.00000000000E+00 0. -1.
</event>
<event>
 7    1  0.3802554E-013  0.5930193E+02  0.7816164E-02  0.1266605E+00
        -11   -1    0    0    0    0  0.00000000000E+00  0.00000000000E+00  0.45593999997E+02  0.45594000000E+02  0.51100000000E-03 0.  1.
         11   -1    0    0    0    0 -0.00000000000E+00 -0.00000000000E+00 -0.45593999997E+02  0.45594000000E+02  0.51100000000E-03 0. -1.
    9900012    2    1    2    0    0  0.15657565129E+02 -0.26383430818E+02 -0.86877296501E+01  0.59301930723E+02  0.49999975735E+02 0.  0.
        -12    1    1    2    0    0 -0.15657565129E+02  0.26383430818E+02  0.86877296501E+01  0.31886069277E+02  0.00000000000E+00 0.  1.
         11    1    3    3    0    0  0.85343309258E+01 -0.75288005793E+01 -0.18213078336E+02  0.21476355958E+02  0.51100000000E-03 0. -1.
        -11    1    3    3    0    0  0.18083794108E+02 -0.17089776524E+02  0.33049553916E+01  0.25099936282E+02  0.51100000000E-03 0.  1.
        -12    1    3    3    0    0 -0.10960559905E+02 -0.17648537144E+01  0.62203932941E+01  0.12725638483E+02  0.00000000000E+00 0.  1.
</event>
<event>
 7    1  0.3802554E-013  0.5930181E+02  0.7816164E-02  0.1266605E+00
        -11   -1    0    0    0    0  0.00000000000E+00  0.00000000000E+00  0.45593999997E+02  0.45594000000E+02  0.51100000000E-03 0.  1.
         11   -1    0    0    0    0 -0.00000000000E+00 -0.00000000000E+00 -0.45593999997E+02  0.45594000000E+02  0.51100000000E-03 0. -1.
    9900012    2    1    2    0    0 -0.10509866719E+02 -0.28338470531E+02 -0.10158890115E+02  0.59301807708E+02  0.49999751385E+02 0.  0.
        -12    1    1    2    0    0  0.10509866719E+02  0.28338470531E+02  0.10158890115E+02  0.31886192292E+02  0.00000000000E+00 0.  1.
         11    1    3    3    0    0 -0.19250315508E+02  0.50798735167E+01 -0.14256007471E+01  0.19960263021E+02  0.51100000000E-03 0. -1.
        -11    1    3    3    0    0 -0.26694943617E+00  0.15771209040E+01  0.10390555579E+01  0.19074089915E+01  0.51100000000E-03 0.  1.
         12    1    3    3    0    0  0.90073982248E+01 -0.34995464952E+02 -0.97723449257E+01  0.37434135696E+02  0.00000000000E+00 0. -1.
</event>
<event>
 7    1  0.3802554E-013  0.5930193E+02  0.7816164E-02  0.1266605E+00
        -11   -1    0    0    0    0  0.00000000000E+00  0.00000000000E+00  0.45593999997E+02  0.45594000000E+02  0.51100000000E-03 0. -1.
         11   -1    0    0    0    0 -0.00000000000E+00 -0.00000000000E+00 -0.45593999997E+02  0.45594000000E+02  0.51100000000E-03 0.  1.
    9900012    2    1    2    0    0  0.41456081599E+01 -0.30686324282E+02 -0.76082148148E+01  0.59301929411E+02  0.49999973342E+02 0.  0.
        -12    1    1    2    0    0 -0.41456081599E+01  0.30686324282E+02  0.76082148148E+01  0.31886070589E+02  0.00000000000E+00 0.  1.
         11    1    3    3    0    0 -0.19901496735E+01 -0.18446411983E+02  0.12763682067E+02  0.22519822178E+02  0.51100000000E-03 0. -1.
        -11    1    3    3    0    0 -0.63295943327E+01 -0.16008851016E+02 -0.14452945074E+02  0.22477426384E+02  0.51100000000E-03 0.  1.
        -12    1    3    3    0    0  0.12465352166E+02  0.37689387177E+01 -0.59189518075E+01  0.14304680849E+02  0.00000000000E+00 0.  1.
</event>
<event>
 7    1  0.3802554E-013  0.5930192E+02  0.7816164E-02  0.1266605E+00
        -11   -1    0    0    0    0  0.00000000000E+00  0.00000000000E+00  0.45593999997E+02  0.45594000000E+02  0.51100000000E-03 0. -1.
         11   -1    0    0    0    0 -0.00000000000E+00 -0.00000000000E+00 -0.45593999997E+02  0.45594000000E+02  0.51100000000E-03 0.  1.
    9900012    2    1    2    0    0  0.24128032759E+02  0.41733465408E+01  0.20424094019E+02  0.59301915219E+02  0.49999947460E+02 0.  0.
        -12    1    1    2    0    0 -0.24128032759E+02 -0.41733465408E+01 -0.20424094019E+02  0.31886084781E+02  0.00000000000E+00 0.  1.
         11    1    3    3    0    0  0.18795896895E+02 -0.11040652720E+02  0.13718285327E+02  0.25756030462E+02  0.51100000000E-03 0. -1.
        -11    1    3    3    0    0  0.12123541970E+02  0.91296391266E+01  0.14913442216E+02  0.21277719320E+02  0.51100000000E-03 0.  1.
        -12    1    3    3    0    0 -0.67914061062E+01  0.60843601343E+01 -0.82076335236E+01  0.12268165437E+02  0.00000000000E+00 0.  1.
</event>
<event>
 7    1  0.3802554E-013  0.5930195E+02  0.7816164E-02  0.1266605E+00
        -11   -1    0    0    0    0  0.00000000000E+00  0.00000000000E+00  0.45593999997E+02  0.45594000000E+02  0.51100000000E-03 0.  1.
         11   -1    0    0    0    0 -0.00000000000E+00 -0.00000000000E+00 -0.45593999997E+02  0.45594000000E+02  0.51100000000E-03 0. -1.
    9900012    2    1    2    0    0 -0.26955461827E+01  0.19965999604E+01 -0.31709107460E+02  0.59301954831E+02  0.50000019702E+02 0.  0.
        -12    1    1    2    0    0  0.26955461827E+01 -0.19965999604E+01  0.31709107460E+02  0.31886045169E+02  0.00000000000E+00 0.  1.
         11    1    3    3    0    0 -0.42717208174E+01 -0.90178012621E+00 -0.24358903017E+02  0.24747059675E+02  0.51100000000E-03 0. -1.
        -11    1    3    3    0    0  0.68681080487E+01  0.81795282485E+01 -0.18363518220E+02  0.21243690645E+02  0.51100000000E-03 0.  1.
         12    1    3    3    0    0 -0.52919334139E+01 -0.52811481618E+01  0.11013313777E+02  0.13311204510E+02  0.00000000000E+00 0. -1.
</event>
<event>
 7    1  0.3802554E-013  0.5930195E+02  0.7816164E-02  0.1266605E+00
        -11   -1    0    0    0    0  0.00000000000E+00  0.00000000000E+00  0.45593999997E+02  0.45594000000E+02  0.51100000000E-03 0.  1.
         11   -1    0    0    0    0 -0.00000000000E+00 -0.00000000000E+00 -0.45593999997E+02  0.45594000000E+02  0.51100000000E-03 0. -1.
    9900012    2    1    2    0    0  0.26235718041E+02  0.12919582988E+02 -0.12707945856E+02  0.59301946409E+02  0.50000004342E+02 0.  0.
        -12    1    1    2    0    0 -0.26235718041E+02 -0.12919582988E+02  0.12707945856E+02  0.31886053591E+02  0.00000000000E+00 0.  1.
         11    1    3    3    0    0  0.31958246803E+02  0.11166388693E+02 -0.27153862020E+01  0.33961612118E+02  0.51100000000E-03 0. -1.
        -11    1    3    3    0    0 -0.76890662228E+01  0.10992282836E+02 -0.82099841484E+01  0.15727551027E+02  0.51100000000E-03 0.  1.
        -12    1    3    3    0    0  0.19665374615E+01 -0.92390885407E+01 -0.17825755059E+01  0.96127832642E+01  0.00000000000E+00 0.  1.
</event>
<event>
 7    1  0.3802554E-013  0.5930196E+02  0.7816164E-02  0.1266605E+00
        -11   -1    0    0    0    0  0.00000000000E+00  0.00000000000E+00  0.45593999997E+02  0.45594000000E+02  0.51100000000E-03 0. -1.
         11   -1    0    0    0    0 -0.00000000000E+00 -0.00000000000E+00 -0.45593999997E+02  0.45594000000E+02  0.51100000000E-03 0.  1.
    9900012    2    1    2    0    0  0.24159375876E+01 -0.28570965551E+02 -0.13949297417E+02  0.59301957201E+02  0.50000024025E+02 0.  0.
        -12    1    1    2    0    0 -0.24159375876E+01  0.28570965551E+02  0.13949297417E+02  0.31886042799E+02  0.00000000000E+00 0.  1.
         11    1    3    3    0    0 -0.17243340801E+00 -0.10184434194E+02 -0.79780664089E+00  0.10217090037E+02  0.51100000000E-03 0. -1.
        -11    1    3    3    0    0  0.72815241849E+01 -0.29428511465E+02  0.12483972405E+01  0.30341660756E+02  0.51100000000E-03 0.  1.
        -12    1    3    3    0    0 -0.46931531893E+01  0.11041980107E+02 -0.14399888017E+02  0.18743206408E+02  0.00000000000E+00 0.  1.
</event>
<event>
 7    1  0.3802554E-013  0.5930192E+02  0.7816164E-02  0.1266605E+00
        -11   -1    0    0    0    0  0.00000000000E+00  0.00000000000E+00  0.45593999997E+02  0.45594000000E+02  0.51100000000E-03 0. -1.
         11   -1    0    0    0    0 -0.00000000000E+00 -0.00000000000E+00 -0.45593999997E+02  0.45594000000E+02  0.51100000000E-03 0.  1.
    9900012    2    1    2    0    0 -0.28470812532E+02 -0.40646617689E+01  0.13770015869E+02  0.59301921869E+02  0.49999959588E+02 0.  0.
        -12    1    1    2    0    0  0.28470812532E+02  0.40646617689E+01 -0.13770015869E+02  0.31886078131E+02  0.00000000000E+00 0.  1.
         11    1    3    3    0    0 -0.94494976174E+01 -0.19075583753E+02  0.12436243227E+02  0.24654229791E+02  0.51100000000E-03 0. -1.
        -11    1    3    3    0    0 -0.19319881579E+02  0.65395460418E+00 -0.31890016018E+01  0.19592223262E+02  0.51100000000E-03 0.  1.
        -12    1    3    3    0    0  0.29856666394E+00  0.14356967380E+02  0.45227742436E+01  0.15055468816E+02  0.00000000000E+00 0.  1.
</event>
<event>
 7    1  0.3802554E-013  0.5930171E+02  0.7816164E-02  0.1266606E+00
        -11   -1    0    0    0    0  0.00000000000E+00  0.00000000000E+00  0.45593999997E+02  0.45594000000E+02  0.51100000000E-03 0. -1.
         11   -1    0    0    0    0 -0.00000000000E+00 -0.00000000000E+00 -0.45593999997E+02  0.45594000000E+02  0.51100000000E-03 0.  1.
    9900012    2    1    2    0    0  0.26695607222E+02  0.17432891475E+02  0.41783090245E+00  0.59301706192E+02  0.49999566244E+02 0.  0.
        -12    1    1    2    0    0 -0.26695607222E+02 -0.17432891475E+02 -0.41783090245E+00  0.31886293808E+02  0.00000000000E+00 0.  1.
         11    1    3    3    0    0  0.25413882654E+02  0.52946923919E+01  0.13071765448E+02  0.29064931641E+02  0.51100000000E-03 0. -1.
        -11    1    3    3    0    0  0.59290904798E+00  0.16422767695E+02  0.44317944283E+00  0.16439441845E+02  0.51100000000E-03 0.  1.
        -12    1    3    3    0    0  0.68881551942E+00 -0.42845686117E+01 -0.13097113988E+02  0.13797332707E+02  0.00000000000E+00 0.  1.
</event>
<event>
 7    1  0.3802554E-013  0.5930194E+02  0.7816164E-02  0.1266605E+00
        -11   -1    0    0    0    0  0.00000000000E+00  0.00000000000E+00  0.45593999997E+02  0.45594000000E+02  0.51100000000E-03 0.  1.
         11   -1    0    0    0    0 -0.00000000000E+00 -0.00000000000E+00 -0.45593999997E+02  0.45594000000E+02  0.51100000000E-03 0. -1.
    9900012    2    1    2    0    0  0.20595528803E+02 -0.17610577115E+02 -0.16805134466E+02  0.59301940705E+02  0.49999993940E+02 0.  0.
        -12    1    1    2    0    0 -0.20595528803E+02  0.17610577115E+02  0.16805134466E+02  0.31886059295E+02  0.00000000000E+00 0.  1.
         11    1    3    3    0    0 -0.19134305064E+01 -0.58269352644E+00 -0.83846863421E+01  0.86199601719E+01  0.51100000000E-03 0. -1.
        -11    1    3    3    0    0  0.42147062976E+01 -0.10328176173E+02 -0.23521295717E+02  0.26032409122E+02  0.51100000000E-03 0.  1.
        -12    1    3    3    0    0  0.18294253012E+02 -0.66997074150E+01  0.15100847593E+02  0.24649571411E+02  0.00000000000E+00 0.  1.
</event>
<event>
 7    1  0.3802554E-013  0.5930194E+02  0.7816164E-02  0.1266605E+00
        -11   -1    0    0    0    0  0.00000000000E+00  0.00000000000E+00  0.45593999997E+02  0.45594000000E+02  0.51100000000E-03 0. -1.
         11   -1    0    0    0    0 -0.00000000000E+00 -0.00000000000E+00 -0.45593999997E+02  0.45594000000E+02  0.51100000000E-03 0.  1.
    9900012    2    1    2    0    0 -0.21083444230E+02  0.22529782613E+02  0.80385349872E+01  0.59301940822E+02  0.49999994153E+02 0.  0.
        -12    1    1    2    0    0  0.21083444230E+02 -0.22529782613E+02 -0.80385349872E+01  0.31886059178E+02  0.00000000000E+00 0.  1.
         11    1    3    3    0    0 -0.22905870549E+02  0.72213249966E+01  0.22537915298E+02  0.32936060277E+02  0.51100000000E-03 0. -1.
        -11    1    3    3    0    0 -0.64672580312E+01  0.29298419613E+01 -0.41198554185E+01  0.82086910827E+01  0.51100000000E-03 0.  1.
        -12    1    3    3    0    0  0.82896843501E+01  0.12378615655E+02 -0.10379524893E+02  0.18157189462E+02  0.00000000000E+00 0.  1.
</event>
<event>
 7    1  0.3802554E-013  0.5930194E+02  0.7816164E-02  0.1266605E+00
        -11   -1    0    0    0    0  0.00000000000E+00  0.00000000000E+00  0.45593999997E+02  0.45594000000E+02  0.51100000000E-03 0.  1.
         11   -1    0    0    0    0 -0.00000000000E+00 -0.00000000000E+00 -0.45593999997E+02  0.45594000000E+02  0.51100000000E-03 0. -1.
    9900012    2    1    2    0    0  0.29750762633E+02  0.97210016666E+01 -0.60922086395E+01  0.59301941028E+02  0.49999994529E+02 0.  0.
        -12    1    1    2    0    0 -0.29750762633E+02 -0.97210016666E+01  0.60922086395E+01  0.31886058972E+02  0.00000000000E+00 0.  1.
         11    1    3    3    0    0  0.22130071079E+02 -0.53472644590E+00  0.12190281160E+02  0.25271108669E+02  0.51100000000E-03 0. -1.
        -11    1    3    3    0    0 -0.41981082165E+01  0.40070886705E+01  0.46831165278E+01  0.74573757371E+01  0.51100000000E-03 0.  1.
         12    1    3    3    0    0  0.11818799771E+02  0.62486394420E+01 -0.22965606327E+02  0.26573456622E+02  0.00000000000E+00 0. -1.
</event>
<event>
 7    1  0.3802554E-013  0.5930194E+02  0.7816164E-02  0.1266605E+00
        -11   -1    0    0    0    0  0.00000000000E+00  0.00000000000E+00  0.45593999997E+02  0.45594000000E+02  0.51100000000E-03 0.  1.
         11   -1    0    0    0    0 -0.00000000000E+00 -0.00000000000E+00 -0.45593999997E+02  0.45594000000E+02  0.51100000000E-03 0. -1.
    9900012    2    1    2    0    0 -0.24248204695E+02 -0.10239232063E+01 -0.20680842676E+02  0.59301935591E+02  0.49999984614E+02 0.  0.
        -12    1    1    2    0    0  0.24248204695E+02  0.10239232063E+01  0.20680842676E+02  0.31886064409E+02  0.00000000000E+00 0.  1.
         11    1    3    3    0    0 -0.43458494361E+01  0.98318225893E+01 -0.26840365234E+02  0.28912909728E+02  0.51100000000E-03 0. -1.
        -11    1    3    3    0    0 -0.28317214584E+00 -0.87889364819E+01 -0.20368836917E+01  0.90263218634E+01  0.51100000000E-03 0.  1.
        -12    1    3    3    0    0 -0.19619183113E+02 -0.20668093137E+01  0.81964062498E+01  0.21362704000E+02  0.00000000000E+00 0.  1.
</event>
<event>
 7    1  0.3802554E-013  0.5930189E+02  0.7816164E-02  0.1266605E+00
        -11   -1    0    0    0    0  0.00000000000E+00  0.00000000000E+00  0.45593999997E+02  0.45594000000E+02  0.51100000000E-03 0.  1.
         11   -1    0    0    0    0 -0.00000000000E+00 -0.00000000000E+00 -0.45593999997E+02  0.45594000000E+02  0.51100000000E-03 0. -1.
    9900012    2    1    2    0    0 -0.14621916042E+02 -0.20412447841E+02 -0.19653383487E+02  0.59301891143E+02  0.49999903550E+02 0.  0.
        -12    1    1    2    0    0  0.14621916042E+02  0.20412447841E+02  0.19653383487E+02  0.31886108857E+02  0.00000000000E+00 0.  1.
         11    1    3    3    0    0 -0.21264521826E+01 -0.57443854084E+01 -0.74545542632E+01  0.96483232807E+01  0.51100000000E-03 0. -1.
        -11    1    3    3    0    0 -0.24135298515E+02 -0.23262682337E+02 -0.67591582841E+01  0.34195778174E+02  0.51100000000E-03 0.  1.
         12    1    3    3    0    0  0.11639834656E+02  0.85946199048E+01 -0.54396709393E+01  0.15457789688E+02  0.00000000000E+00 0. -1.
</event>
<event>
 7    1  0.3802554E-013  0.5930195E+02  0.7816164E-02  0.1266605E+00
        -11   -1    0    0    0    0  0.00000000000E+00  0.00000000000E+00  0.45593999997E+02  0.45594000000E+02  0.51100000000E-03 0. -1.
         11   -1    0    0    0    0 -0.00000000000E+00 -0.00000000000E+00 -0.45593999997E+02  0.45594000000E+02  0.51100000000E-03 0.  1.
    9900012    2    1    2    0    0 -0.44861639106E+01  0.14114499278E+02  0.28237835508E+02  0.59301951159E+02  0.50000013005E+02 0.  0.
        -12    1    1    2    0    0  0.44861639106E+01 -0.14114499278E+02 -0.28237835508E+02  0.31886048841E+02  0.00000000000E+00 0.  1.
         11    1    3    3    0    0 -0.47334807315E+01 -0.22184817231E+01  0.15410895266E+02  0.16273389142E+02  0.51100000000E-03 0. -1.
        -11    1    3    3    0    0 -0.46413321931E+01  0.18843829589E+02 -0.83668852678E+01  0.21133779772E+02  0.51100000000E-03 0.  1.
         12    1    3    3    0    0  0.48886490140E+01 -0.25108485877E+01  0.21193825510E+02  0.21894782245E+02  0.00000000000E+00 0. -1.
</event>
<event>
 7    1  0.3802554E-013  0.5930194E+02  0.7816164E-02  0.1266605E+00
        -11   -1    0    0    0    0  0.00000000000E+00  0.00000000000E+00  0.45593999997E+02  0.45594000000E+02  0.51100000000E-03 0. -1.
         11   -1    0    0    0    0 -0.00000000000E+00 -0.00000000000E+00 -0.45593999997E+02  0.45594000000E+02  0.51100000000E-03 0.  1.
    9900012    2    1    2    0    0  0.11155408317E+02 -0.29782413235E+02  0.22990273907E+01  0.59301940354E+02  0.49999993300E+02 0.  0.
        -12    1    1    2    0    0 -0.11155408317E+02  0.29782413235E+02 -0.22990273907E+01  0.31886059646E+02  0.00000000000E+00 0.  1.
         11    1    3    3    0    0  0.33197797013E+01  0.55747754502E+01  0.22263102618E+01  0.68597023425E+01  0.51100000000E-03 0. -1.
        -11    1    3    3    0    0  0.91302124702E+01  0.60526436795E+01  0.10176157418E+01  0.11001400698E+02  0.51100000000E-03 0.  1.
         12    1    3    3    0    0 -0.12945838545E+01 -0.41409832365E+02 -0.94489861283E+00  0.41440837313E+02  0.00000000000E+00 0. -1.
</event>
<event>
 7    1  0.3802554E-013  0.5930195E+02  0.7816164E-02  0.1266605E+00
        -11   -1    0    0    0    0  0.00000000000E+00  0.00000000000E+00  0.45593999997E+02  0.45594000000E+02  0.51100000000E-03 0. -1.
         11   -1    0    0    0    0 -0.00000000000E+00 -0.00000000000E+00 -0.45593999997E+02  0.45594000000E+02  0.51100000000E-03 0.  1.
    9900012    2    1    2    0    0  0.24547920871E+02  0.18469858021E+02  0.85430654682E+01  0.59301952237E+02  0.50000014971E+02 0.  0.
        -12    1    1    2    0    0 -0.24547920871E+02 -0.18469858021E+02 -0.85430654682E+01  0.31886047763E+02  0.00000000000E+00 0.  1.
         11    1    3    3    0    0  0.64080826184E-01 -0.42256721998E+01 -0.67674574630E+01  0.79786523090E+01  0.51100000000E-03 0. -1.
        -11    1    3    3    0    0 -0.10799176192E+01 -0.42804827177E+00 -0.90433483073E+01  0.91176530015E+01  0.51100000000E-03 0.  1.
         12    1    3    3    0    0  0.25563757664E+02  0.23123578492E+02  0.24353871239E+02  0.42205646926E+02  0.00000000000E+00 0. -1.
</event>
<event>
 7    1  0.3802554E-013  0.5930192E+02  0.7816164E-02  0.1266605E+00
        -11   -1    0    0    0    0  0.00000000000E+00  0.00000000000E+00  0.45593999997E+02  0.45594000000E+02  0.51100000000E-03 0. -1.
         11   -1    0    0    0    0 -0.00000000000E+00 -0.00000000000E+00 -0.45593999997E+02  0.45594000000E+02  0.51100000000E-03 0.  1.
    9900012    2    1    2    0    0 -0.18928304733E+02  0.18473073704E+02  0.17809737200E+02  0.59301922925E+02  0.49999961513E+02 0.  0.
        -12    1    1    2    0    0  0.18928304733E+02 -0.18473073704E+02 -0.17809737200E+02  0.31886077075E+02  0.00000000000E+00 0.  1.
         11    1    3    3    0    0  0.93800973524E+00 -0.32333161507E+01  0.18158559796E+02  0.18468012609E+02  0.51100000000E-03 0. -1.
        -11    1    3    3    0    0 -0.18929705256E+02  0.75966617965E+01  0.10565364849E+02  0.22971067589E+02  0.51100000000E-03 0.  1.
         12    1    3    3    0    0 -0.93660921247E+00  0.14109728058E+02 -0.10914187445E+02  0.17862842727E+02  0.00000000000E+00 0. -1.
</event>
<event>
 7    1  0.3802554E-013  0.5930201E+02  0.7816164E-02  0.1266605E+00
        -11   -1    0    0    0    0  0.00000000000E+00  0.00000000000E+00  0.45593999997E+02  0.45594000000E+02  0.51100000000E-03 0.  1.
         11   -1    0    0    0    0 -0.00000000000E+00 -0.00000000000E+00 -0.45593999997E+02  0.45594000000E+02  0.51100000000E-03 0. -1.
    9900012    2    1    2    0    0 -0.28384515929E+02 -0.34537514974E+01 -0.14110531308E+02  0.59302011891E+02  0.50000123766E+02 0.  0.
        -12    1    1    2    0    0  0.28384515929E+02  0.34537514974E+01  0.14110531308E+02  0.31885988109E+02  0.00000000000E+00 0.  1.
         11    1    3    3    0    0 -0.65450298855E+01 -0.20595889224E+01  0.41444546434E+01  0.80159732587E+01  0.51100000000E-03 0. -1.
        -11    1    3    3    0    0 -0.22461486099E+02 -0.19374417516E+02 -0.13989817861E+02  0.32796362846E+02  0.51100000000E-03 0.  1.
         12    1    3    3    0    0  0.62200005602E+00  0.17980254941E+02 -0.42651680903E+01  0.18489675786E+02  0.00000000000E+00 0. -1.
</event>
<event>
 7    1  0.3802554E-013  0.5930196E+02  0.7816164E-02  0.1266605E+00
        -11   -1    0    0    0    0  0.00000000000E+00  0.00000000000E+00  0.45593999997E+02  0.45594000000E+02  0.51100000000E-03 0.  1.
         11   -1    0    0    0    0 -0.00000000000E+00 -0.00000000000E+00 -0.45593999997E+02  0.45594000000E+02  0.51100000000E-03 0. -1.
    9900012    2    1    2    0    0  0.24883476850E+02 -0.44321077606E+01 -0.19439348318E+02  0.59301964461E+02  0.50000037266E+02 0.  0.
        -12    1    1    2    0    0 -0.24883476850E+02  0.44321077606E+01  0.19439348318E+02  0.31886035539E+02  0.00000000000E+00 0.  1.
         11    1    3    3    0    0 -0.75445663395E+01 -0.27287355907E+01  0.41556468697E+00  0.80336276641E+01  0.51100000000E-03 0. -1.
        -11    1    3    3    0    0  0.33148148014E+02  0.92999747425E+01 -0.85450956579E+01  0.35472636032E+02  0.51100000000E-03 0.  1.
         12    1    3    3    0    0 -0.72010482468E+00 -0.11003346912E+02 -0.11309817347E+02  0.15795700765E+02  0.00000000000E+00 0. -1.
</event>
<event>
 7    1  0.3802554E-013  0.5930196E+02  0.7816164E-02  0.1266605E+00
        -11   -1    0    0    0    0  0.00000000000E+00  0.00000000000E+00  0.45593999997E+02  0.45594000000E+02  0.51100000000E-03 0.  1.
         11   -1    0    0    0    0 -0.00000000000E+00 -0.00000000000E+00 -0.45593999997E+02  0.45594000000E+02  0.51100000000E-03 0. -1.
    9900012    2    1    2    0    0 -0.53131475181E+01 -0.30334168348E+02 -0.82661085134E+01  0.59301955154E+02  0.50000020293E+02 0.  0.
        -12    1    1    2    0    0  0.53131475181E+01  0.30334168348E+02  0.82661085134E+01  0.31886044846E+02  0.00000000000E+00 0.  1.
         11    1    3    3    0    0  0.22753449413E+01  0.10616249264E+02  0.29378468601E+01  0.11247794783E+02  0.51100000000E-03 0. -1.
        -11    1    3    3    0    0  0.29680015899E+01  0.13865117450E+00 -0.40635789346E+01  0.50339777119E+01  0.51100000000E-03 0.  1.
         12    1    3    3    0    0 -0.10556494049E+02 -0.41089068787E+02 -0.71403764390E+01  0.43020182660E+02  0.00000000000E+00 0. -1.
</event>
<event>
 7    1  0.3802554E-013  0.5930194E+02  0.7816164E-02  0.1266605E+00
        -11   -1    0    0    0    0  0.00000000000E+00  0.00000000000E+00  0.45593999997E+02  0.45594000000E+02  0.51100000000E-03 0.  1.
         11   -1    0    0    0    0 -0.00000000000E+00 -0.00000000000E+00 -0.45593999997E+02  0.45594000000E+02  0.51100000000E-03 0. -1.
    9900012    2    1    2    0    0 -0.10971005897E+02 -0.17503297815E+02 -0.24289759588E+02  0.59301939948E+02  0.49999992560E+02 0.  0.
        -12    1    1    2    0    0  0.10971005897E+02  0.17503297815E+02  0.24289759588E+02  0.31886060052E+02  0.00000000000E+00 0.  1.
         11    1    3    3    0    0  0.78153738128E-01  0.27151436333E+01 -0.13647809241E+02  0.13915488144E+02  0.51100000000E-03 0. -1.
        -11    1    3    3    0    0  0.48824910742E+01  0.76952414700E+01 -0.95891532052E+01  0.13229033216E+02  0.51100000000E-03 0.  1.
         12    1    3    3    0    0 -0.15931650710E+02 -0.27913682919E+02 -0.10527971415E+01  0.32157418588E+02  0.00000000000E+00 0. -1.
</event>
<event>
 7    1  0.3802554E-013  0.5930196E+02  0.7816164E-02  0.1266605E+00
        -11   -1    0    0    0    0  0.00000000000E+00  0.00000000000E+00  0.45593999997E+02  0.45594000000E+02  0.51100000000E-03 0. -1.
         11   -1    0    0    0    0 -0.00000000000E+00 -0.00000000000E+00 -0.45593999997E+02  0.45594000000E+02  0.51100000000E-03 0.  1.
    9900012    2    1    2    0    0  0.27339358548E+02 -0.37157877058E+01  0.15983498652E+02  0.59301955510E+02  0.50000020940E+02 0.  0.
        -12    1    1    2    0    0 -0.27339358548E+02  0.37157877058E+01 -0.15983498652E+02  0.31886044490E+02  0.00000000000E+00 0.  1.
         11    1    3    3    0    0  0.43518448472E+01  0.88341069587E+00 -0.17777034831E+01  0.47832204597E+01  0.51100000000E-03 0. -1.
        -11    1    3    3    0    0  0.15070483465E+02  0.11220041455E+02 -0.10240004984E+02  0.21397815414E+02  0.51100000000E-03 0.  1.
         12    1    3    3    0    0  0.79170302356E+01 -0.15819239857E+02  0.28001207119E+02  0.33120919636E+02  0.00000000000E+00 0. -1.
</event>
<event>
 7    1  0.3802554E-013  0.5930197E+02  0.7816164E-02  0.1266605E+00
        -11   -1    0    0    0    0  0.00000000000E+00  0.00000000000E+00  0.45593999997E+02  0.45594000000E+02  0.51100000000E-03 0.  1.
         11   -1    0    0    0    0 -0.00000000000E+00 -0.00000000000E+00 -0.45593999997E+02  0.45594000000E+02  0.51100000000E-03 0. -1.
    9900012    2    1    2    0    0 -0.28741662000E+01 -0.28166291083E+02  0.14666916509E+02  0.59301965054E+02  0.50000038346E+02 0.  0.
        -12    1    1    2    0    0  0.28741662000E+01  0.28166291083E+02 -0.14666916509E+02  0.31886034946E+02  0.00000000000E+00 0.  1.
         11    1    3    3    0    0  0.19822165484E-01  0.43668374417E+01 -0.44276609717E+01  0.62188298017E+01  0.51100000000E-03 0. -1.
        -11    1    3    3    0    0  0.63344556062E+01 -0.11849735384E+01 -0.82532828295E+01  0.10471206608E+02  0.51100000000E-03 0.  1.
         12    1    3    3    0    0 -0.92284439716E+01 -0.31348154986E+02  0.27347860310E+02  0.42611928644E+02  0.00000000000E+00 0. -1.
</event>
<event>
 7    1  0.3802554E-013  0.5930197E+02  0.7816164E-02  0.1266605E+00
        -11   -1    0    0    0    0  0.00000000000E+00  0.00000000000E+00  0.45593999997E+02  0.45594000000E+02  0.51100000000E-03 0. -1.
         11   -1    0    0    0    0 -0.00000000000E+00 -0.00000000000E+00 -0.45593999997E+02  0.45594000000E+02  0.51100000000E-03 0.  1.
    9900012    2    1    2    0    0  0.18111030030E+02 -0.73695731758E+01  0.25187278447E+02  0.59301968370E+02  0.50000044395E+02 0.  0.
        -12    1    1    2    0    0 -0.18111030030E+02  0.73695731758E+01 -0.25187278447E+02  0.31886031630E+02  0.00000000000E+00 0.  1.
         11    1    3    3    0    0  0.12422517750E+01  0.13567902299E+02  0.21817842791E+02  0.25722547047E+02  0.51100000000E-03 0. -1.
        -11    1    3    3    0    0  0.49342363940E+01  0.29233041557E+01  0.38299242884E+01  0.68964277923E+01  0.51100000000E-03 0.  1.
        -12    1    3    3    0    0  0.11934541861E+02 -0.23860779630E+02 -0.46048863268E+00  0.26682993531E+02  0.00000000000E+00 0.  1.
</event>
<event>
 7    1  0.3802554E-013  0.5930199E+02  0.7816164E-02  0.1266605E+00
        -11   -1    0    0    0    0  0.00000000000E+00  0.00000000000E+00  0.45593999997E+02  0.45594000000E+02  0.51100000000E-03 0.  1.
         11   -1    0    0    0    0 -0.00000000000E+00 -0.00000000000E+00 -0.45593999997E+02  0.45594000000E+02  0.51100000000E-03 0. -1.
    9900012    2    1    2    0    0  0.20650547230E+02 -0.22392435273E+02 -0.94261095320E+01  0.59301987404E+02  0.50000079107E+02 0.  0.
        -12    1    1    2    0    0 -0.20650547230E+02  0.22392435273E+02  0.94261095320E+01  0.31886012596E+02  0.00000000000E+00 0.  1.
         11    1    3    3    0    0  0.88673354690E+01 -0.57662402530E+01 -0.20675642912E+02  0.23224154991E+02  0.51100000000E-03 0. -1.
        -11    1    3    3    0    0  0.14401395584E+02 -0.17601046679E+02 -0.17236924549E+01  0.22807195244E+02  0.51100000000E-03 0.  1.
        -12    1    3    3    0    0 -0.26181838229E+01  0.97485165848E+00  0.12973225835E+02  0.13270637168E+02  0.00000000000E+00 0.  1.
</event>
<event>
 7    1  0.3802554E-013  0.5930194E+02  0.7816164E-02  0.1266605E+00
        -11   -1    0    0    0    0  0.00000000000E+00  0.00000000000E+00  0.45593999997E+02  0.45594000000E+02  0.51100000000E-03 0. -1.
         11   -1    0    0    0    0 -0.00000000000E+00 -0.00000000000E+00 -0.45593999997E+02  0.45594000000E+02  0.51100000000E-03 0.  1.
    9900012    2    1    2    0    0 -0.15507003538E+02  0.14365488874E+02  0.23872296943E+02  0.59301937360E+02  0.49999987841E+02 0.  0.
        -12    1    1    2    0    0  0.15507003538E+02 -0.14365488874E+02 -0.23872296943E+02  0.31886062640E+02  0.00000000000E+00 0.  1.
         11    1    3    3    0    0  0.47104001428E+01 -0.49734647754E+01 -0.62176973160E+01  0.92511070446E+01  0.51100000000E-03 0. -1.
        -11    1    3    3    0    0 -0.46984314597E+00 -0.48681979471E+01 -0.19831894741E+01  0.52776078468E+01  0.51100000000E-03 0.  1.
        -12    1    3    3    0    0 -0.19747560535E+02  0.24207151596E+02  0.32073183733E+02  0.44773222469E+02  0.00000000000E+00 0.  1.
</event>
<event>
 7    1  0.3802554E-013  0.5930196E+02  0.7816164E-02  0.1266605E+00
        -11   -1    0    0    0    0  0.00000000000E+00  0.00000000000E+00  0.45593999997E+02  0.45594000000E+02  0.51100000000E-03 0. -1.
         11   -1    0    0    0    0 -0.00000000000E+00 -0.00000000000E+00 -0.45593999997E+02  0.45594000000E+02  0.51100000000E-03 0.  1.
    9900012    2    1    2    0    0  0.17120652945E+02  0.83943878990E+01  0.25556542913E+02  0.59301962443E+02  0.50000033585E+02 0.  0.
        -12    1    1    2    0    0 -0.17120652945E+02 -0.83943878990E+01 -0.25556542913E+02  0.31886037557E+02  0.00000000000E+00 0.  1.
         11    1    3    3    0    0  0.16333721015E+01  0.10956755578E+01  0.24730644252E+01  0.31598191819E+01  0.51100000000E-03 0. -1.
        -11    1    3    3    0    0  0.17093176776E+02  0.18851019251E+02 -0.48199270138E+01  0.25899214579E+02  0.51100000000E-03 0.  1.
         12    1    3    3    0    0 -0.16058959330E+01 -0.11552306910E+02  0.27903405501E+02  0.30242928682E+02  0.00000000000E+00 0. -1.
</event>
<event>
 7    1  0.3802554E-013  0.5930188E+02  0.7816164E-02  0.1266605E+00
        -11   -1    0    0    0    0  0.00000000000E+00  0.00000000000E+00  0.45593999997E+02  0.45594000000E+02  0.51100000000E-03 0. -1.
         11   -1    0    0    0    0 -0.00000000000E+00 -0.00000000000E+00 -0.45593999997E+02  0.45594000000E+02  0.51100000000E-03 0.  1.
    9900012    2    1    2    0    0  0.25622784910E+01 -0.29046051285E+02  0.12902954789E+02  0.59301880628E+02  0.49999884375E+02 0.  0.
        -12    1    1    2    0    0 -0.25622784910E+01  0.29046051285E+02 -0.12902954789E+02  0.31886119372E+02  0.00000000000E+00 0.  1.
         11    1    3    3    0    0  0.43759023585E+01  0.54283409569E+01  0.12814552611E+02  0.14588631391E+02  0.51100000000E-03 0.  1.
        -11    1    3    3    0    0  0.49850817242E+01 -0.36758500237E+01  0.99039064000E+01  0.11681193237E+02  0.51100000000E-03 0. -1.
        -12    1    3    3    0    0 -0.67987055917E+01 -0.30798542218E+02 -0.98155042218E+01  0.33032056000E+02  0.00000000000E+00 0.  1.
</event>
<event>
 7    1  0.3802554E-013  0.5930194E+02  0.7816164E-02  0.1266605E+00
        -11   -1    0    0    0    0  0.00000000000E+00  0.00000000000E+00  0.45593999997E+02  0.45594000000E+02  0.51100000000E-03 0.  1.
         11   -1    0    0    0    0 -0.00000000000E+00 -0.00000000000E+00 -0.45593999997E+02  0.45594000000E+02  0.51100000000E-03 0. -1.
    9900012    2    1    2    0    0 -0.23773550148E+02  0.13194696685E+02 -0.16656508831E+02  0.59301937313E+02  0.49999987753E+02 0.  0.
        -12    1    1    2    0    0  0.23773550148E+02 -0.13194696685E+02  0.16656508831E+02  0.31886062687E+02  0.00000000000E+00 0.  1.
         11    1    3    3    0    0 -0.48794289891E+01 -0.56882802290E+01  0.52322213354E+01  0.91401039156E+01  0.51100000000E-03 0. -1.
        -11    1    3    3    0    0 -0.53950179481E+01  0.17268890117E+01  0.10013981366E+02  0.11505137434E+02  0.51100000000E-03 0.  1.
         12    1    3    3    0    0 -0.13499103211E+02  0.17156087902E+02 -0.31902711533E+02  0.38656695963E+02  0.00000000000E+00 0. -1.
</event>
<event>
 7    1  0.3802554E-013  0.5930192E+02  0.7816164E-02  0.1266605E+00
        -11   -1    0    0    0    0  0.00000000000E+00  0.00000000000E+00  0.45593999997E+02  0.45594000000E+02  0.51100000000E-03 0. -1.
         11   -1    0    0    0    0 -0.00000000000E+00 -0.00000000000E+00 -0.45593999997E+02  0.45594000000E+02  0.51100000000E-03 0.  1.
    9900012    2    1    2    0    0  0.69018954411E+00  0.95749780215E-01  0.31878468000E+02  0.59301917587E+02  0.49999951779E+02 0.  0.
        -12    1    1    2    0    0 -0.69018954411E+00 -0.95749780215E-01 -0.31878468000E+02  0.31886082413E+02  0.00000000000E+00 0.  1.
         11    1    3    3    0    0  0.84852800728E+01 -0.81751700010E+01  0.26027317326E+02  0.28570170281E+02  0.51100000000E-03 0. -1.
        -11    1    3    3    0    0  0.21732497738E+01 -0.84412204560E+01  0.70859410414E+01  0.11233333346E+02  0.51100000000E-03 0.  1.
        -12    1    3    3    0    0 -0.99683403025E+01  0.16712140237E+02 -0.12347903675E+01  0.19498413960E+02  0.00000000000E+00 0.  1.
</event>
<event>
 7    1  0.3802554E-013  0.5930179E+02  0.7816164E-02  0.1266605E+00
        -11   -1    0    0    0    0  0.00000000000E+00  0.00000000000E+00  0.45593999997E+02  0.45594000000E+02  0.51100000000E-03 0.  1.
         11   -1    0    0    0    0 -0.00000000000E+00 -0.00000000000E+00 -0.45593999997E+02  0.45594000000E+02  0.51100000000E-03 0. -1.
    9900012    2    1    2    0    0 -0.25096977655E+02 -0.15462100223E+02 -0.12157123140E+02  0.59301788658E+02  0.49999716642E+02 0.  0.
        -12    1    1    2    0    0  0.25096977655E+02  0.15462100223E+02  0.12157123140E+02  0.31886211342E+02  0.00000000000E+00 0.  1.
         11    1    3    3    0    0 -0.46869660035E+01 -0.27370109262E+02 -0.12975408920E+02  0.30650477456E+02  0.51100000000E-03 0. -1.
        -11    1    3    3    0    0 -0.25436434489E-01  0.77393554012E+01 -0.80763975789E+00  0.77814234737E+01  0.51100000000E-03 0.  1.
        -12    1    3    3    0    0 -0.20384575217E+02  0.41686536383E+01  0.16259255386E+01  0.20869887728E+02  0.00000000000E+00 0.  1.
</event>
<event>
 7    1  0.3802554E-013  0.5930196E+02  0.7816164E-02  0.1266605E+00
        -11   -1    0    0    0    0  0.00000000000E+00  0.00000000000E+00  0.45593999997E+02  0.45594000000E+02  0.51100000000E-03 0. -1.
         11   -1    0    0    0    0 -0.00000000000E+00 -0.00000000000E+00 -0.45593999997E+02  0.45594000000E+02  0.51100000000E-03 0.  1.
    9900012    2    1    2    0    0  0.16702177017E+02 -0.21587107174E+02  0.16484957205E+02  0.59301957171E+02  0.50000023971E+02 0.  0.
        -12    1    1    2    0    0 -0.16702177017E+02  0.21587107174E+02 -0.16484957205E+02  0.31886042829E+02  0.00000000000E+00 0.  1.
         11    1    3    3    0    0  0.15604404917E+02 -0.26129455649E+02  0.20462540516E+02  0.36673716337E+02  0.51100000000E-03 0.  1.
        -11    1    3    3    0    0  0.25805682303E+01 -0.84294492530E+01  0.48881278733E+00  0.88291497497E+01  0.51100000000E-03 0. -1.
        -12    1    3    3    0    0 -0.14827961306E+01  0.12971797728E+02 -0.44663960987E+01  0.13799091085E+02  0.00000000000E+00 0.  1.
</event>
<event>
 7    1  0.3802554E-013  0.5930194E+02  0.7816164E-02  0.1266605E+00
        -11   -1    0    0    0    0  0.00000000000E+00  0.00000000000E+00  0.45593999997E+02  0.45594000000E+02  0.51100000000E-03 0. -1.
         11   -1    0    0    0    0 -0.00000000000E+00 -0.00000000000E+00 -0.45593999997E+02  0.45594000000E+02  0.51100000000E-03 0.  1.
    9900012    2    1    2    0    0 -0.49904234465E+01 -0.30687797220E+02  0.70763930817E+01  0.59301944060E+02  0.50000000059E+02 0.  0.
        -12    1    1    2    0    0  0.49904234465E+01  0.30687797220E+02 -0.70763930817E+01  0.31886055940E+02  0.00000000000E+00 0.  1.
         11    1    3    3    0    0 -0.22320717759E+02 -0.36852967599E+01  0.20602804435E+00  0.22623843646E+02  0.51100000000E-03 0. -1.
        -11    1    3    3    0    0  0.32162709596E+01 -0.17832553810E+02 -0.89379155203E+00  0.18142305197E+02  0.51100000000E-03 0.  1.
        -12    1    3    3    0    0  0.14114023353E+02 -0.91699466501E+01  0.77641565894E+01  0.18535795217E+02  0.00000000000E+00 0.  1.
</event>
<event>
 7    1  0.3802554E-013  0.5930193E+02  0.7816164E-02  0.1266605E+00
        -11   -1    0    0    0    0  0.00000000000E+00  0.00000000000E+00  0.45593999997E+02  0.45594000000E+02  0.51100000000E-03 0. -1.
         11   -1    0    0    0    0 -0.00000000000E+00 -0.00000000000E+00 -0.45593999997E+02  0.45594000000E+02  0.51100000000E-03 0.  1.
    9900012    2    1    2    0    0  0.31652775508E+02 -0.27525745830E+01 -0.26919664902E+01  0.59301928625E+02  0.49999971909E+02 0.  0.
        -12    1    1    2    0    0 -0.31652775508E+02  0.27525745830E+01  0.26919664902E+01  0.31886071375E+02  0.00000000000E+00 0.  1.
         11    1    3    3    0    0  0.10245988857E+02 -0.37304173047E+01  0.10573508137E+02  0.15188659438E+02  0.51100000000E-03 0. -1.
        -11    1    3    3    0    0 -0.43837914479E+01  0.87480575868E+01  0.55568880937E+01  0.11252783858E+02  0.51100000000E-03 0.  1.
        -12    1    3    3    0    0  0.25790578098E+02 -0.77702148651E+01 -0.18822362721E+02  0.32860485329E+02  0.00000000000E+00 0.  1.
</event>
<event>
 7    1  0.3802554E-013  0.5930195E+02  0.7816164E-02  0.1266605E+00
        -11   -1    0    0    0    0  0.00000000000E+00  0.00000000000E+00  0.45593999997E+02  0.45594000000E+02  0.51100000000E-03 0.  1.
         11   -1    0    0    0    0 -0.00000000000E+00 -0.00000000000E+00 -0.45593999997E+02  0.45594000000E+02  0.51100000000E-03 0. -1.
    9900012    2    1    2    0    0  0.26435311877E+01 -0.31709329765E+02 -0.20616995784E+01  0.59301945737E+02  0.50000003117E+02 0.  0.
        -12    1    1    2    0    0 -0.26435311877E+01  0.31709329765E+02  0.20616995784E+01  0.31886054263E+02  0.00000000000E+00 0.  1.
         11    1    3    3    0    0 -0.11108631439E+02 -0.33938782774E+02 -0.27877496171E+01  0.35819187830E+02  0.51100000000E-03 0. -1.
        -11    1    3    3    0    0 -0.26754625400E+01 -0.43336252925E+01 -0.22079104182E+01  0.55509707849E+01  0.51100000000E-03 0.  1.
        -12    1    3    3    0    0  0.16427625167E+02  0.65630783014E+01  0.29339604570E+01  0.17931787122E+02  0.00000000000E+00 0.  1.
</event>
<event>
 7    1  0.3802554E-013  0.5930193E+02  0.7816164E-02  0.1266605E+00
        -11   -1    0    0    0    0  0.00000000000E+00  0.00000000000E+00  0.45593999997E+02  0.45594000000E+02  0.51100000000E-03 0. -1.
         11   -1    0    0    0    0 -0.00000000000E+00 -0.00000000000E+00 -0.45593999997E+02  0.45594000000E+02  0.51100000000E-03 0.  1.
    9900012    2    1    2    0    0  0.21325439934E+02 -0.15675802141E+01  0.23653541331E+02  0.59301926024E+02  0.49999967166E+02 0.  0.
        -12    1    1    2    0    0 -0.21325439934E+02  0.15675802141E+01 -0.23653541331E+02  0.31886073976E+02  0.00000000000E+00 0.  1.
         11    1    3    3    0    0 -0.11415141020E+02  0.67889821823E+01  0.17266224839E+02  0.21783439674E+02  0.51100000000E-03 0. -1.
        -11    1    3    3    0    0  0.17864259576E+02  0.27362409351E+01  0.56953919671E+01  0.18948780293E+02  0.51100000000E-03 0.  1.
        -12    1    3    3    0    0  0.14876321378E+02 -0.11092803331E+02  0.69192452428E+00  0.18569706057E+02  0.00000000000E+00 0.  1.
</event>
<event>
 7    1  0.3802554E-013  0.5930196E+02  0.7816164E-02  0.1266605E+00
        -11   -1    0    0    0    0  0.00000000000E+00  0.00000000000E+00  0.45593999997E+02  0.45594000000E+02  0.51100000000E-03 0. -1.
         11   -1    0    0    0    0 -0.00000000000E+00 -0.00000000000E+00 -0.45593999997E+02  0.45594000000E+02  0.51100000000E-03 0.  1.
    9900012    2    1    2    0    0  0.10550793569E+01 -0.31711205518E+02  0.31632256921E+01  0.59301956899E+02  0.50000023475E+02 0.  0.
        -12    1    1    2    0    0 -0.10550793569E+01  0.31711205518E+02 -0.31632256921E+01  0.31886043101E+02  0.00000000000E+00 0.  1.
         11    1    3    3    0    0 -0.55943664157E+01  0.60820868199E+01 -0.48835719097E+01  0.95988536054E+01  0.51100000000E-03 0. -1.
        -11    1    3    3    0    0 -0.14098769033E+01 -0.27978563304E+02 -0.80989362732E+01  0.29161284719E+02  0.51100000000E-03 0.  1.
        -12    1    3    3    0    0  0.80593226759E+01 -0.98147290334E+01  0.16145733875E+02  0.20541818575E+02  0.00000000000E+00 0.  1.
</event>
<event>
 7    1  0.3802554E-013  0.5930194E+02  0.7816164E-02  0.1266605E+00
        -11   -1    0    0    0    0  0.00000000000E+00  0.00000000000E+00  0.45593999997E+02  0.45594000000E+02  0.51100000000E-03 0.  1.
         11   -1    0    0    0    0 -0.00000000000E+00 -0.00000000000E+00 -0.45593999997E+02  0.45594000000E+02  0.51100000000E-03 0. -1.
    9900012    2    1    2    0    0 -0.18039248765E+02 -0.22078019698E+02 -0.14278208453E+02  0.59301942132E+02  0.49999996542E+02 0.  0.
        -12    1    1    2    0    0  0.18039248765E+02  0.22078019698E+02  0.14278208453E+02  0.31886057868E+02  0.00000000000E+00 0.  1.
         11    1    3    3    0    0  0.46246842745E+01 -0.23259134263E+02  0.23196631732E+01  0.23827628267E+02  0.51100000000E-03 0. -1.
        -11    1    3    3    0    0 -0.46063744193E+01  0.83968352004E+01  0.48638593501E+00  0.95896870759E+01  0.51100000000E-03 0.  1.
        -12    1    3    3    0    0 -0.18057558620E+02 -0.72157206346E+01 -0.17084257561E+02  0.25884626789E+02  0.00000000000E+00 0.  1.
</event>
<event>
 7    1  0.3802554E-013  0.5930202E+02  0.7816164E-02  0.1266604E+00
        -11   -1    0    0    0    0  0.00000000000E+00  0.00000000000E+00  0.45593999997E+02  0.45594000000E+02  0.51100000000E-03 0. -1.
         11   -1    0    0    0    0 -0.00000000000E+00 -0.00000000000E+00 -0.45593999997E+02  0.45594000000E+02  0.51100000000E-03 0.  1.
    9900012    2    1    2    0    0  0.18303437096E+02  0.23147410444E+02  0.12078786914E+02  0.59302023253E+02  0.50000144487E+02 0.  0.
        -12    1    1    2    0    0 -0.18303437096E+02 -0.23147410444E+02 -0.12078786914E+02  0.31885976747E+02  0.00000000000E+00 0.  1.
         11    1    3    3    0    0  0.14452465433E+02  0.29339211644E+01 -0.41829191168E+00  0.14753190125E+02  0.51100000000E-03 0.  1.
        -11    1    3    3    0    0  0.84598794039E+01  0.21870334847E+02  0.23070777413E+02  0.32895924923E+02  0.51100000000E-03 0. -1.
         12    1    3    3    0    0 -0.46089077406E+01 -0.16568455673E+01 -0.10573698588E+02  0.11652908204E+02  0.00000000000E+00 0. -1.
</event>
<event>
 7    1  0.3802554E-013  0.5930195E+02  0.7816164E-02  0.1266605E+00
        -11   -1    0    0    0    0  0.00000000000E+00  0.00000000000E+00  0.45593999997E+02  0.45594000000E+02  0.51100000000E-03 0. -1.
         11   -1    0    0    0    0 -0.00000000000E+00 -0.00000000000E+00 -0.45593999997E+02  0.45594000000E+02  0.51100000000E-03 0.  1.
    9900012    2    1    2    0    0 -0.23867744656E+02  0.43011314588E+01  0.20701473961E+02  0.59301953037E+02  0.50000016430E+02 0.  0.
        -12    1    1    2    0    0  0.23867744656E+02 -0.43011314588E+01 -0.20701473961E+02  0.31886046963E+02  0.00000000000E+00 0.  1.
         11    1    3    3    0    0 -0.23442358973E+02 -0.42956116238E+00  0.10204899228E+02  0.25570856175E+02  0.51100000000E-03 0. -1.
        -11    1    3    3    0    0 -0.85540924497E+01 -0.10387457432E+02 -0.28806298022E+00  0.13459374060E+02  0.51100000000E-03 0.  1.
        -12    1    3    3    0    0  0.81287067671E+01  0.15118150053E+02  0.10784637713E+02  0.20271722802E+02  0.00000000000E+00 0.  1.
</event>
<event>
 7    1  0.3802554E-013  0.5930197E+02  0.7816164E-02  0.1266605E+00
        -11   -1    0    0    0    0  0.00000000000E+00  0.00000000000E+00  0.45593999997E+02  0.45594000000E+02  0.51100000000E-03 0.  1.
         11   -1    0    0    0    0 -0.00000000000E+00 -0.00000000000E+00 -0.45593999997E+02  0.45594000000E+02  0.51100000000E-03 0. -1.
    9900012    2    1    2    0    0  0.12315097127E+01 -0.16330225613E+02 -0.27359209288E+02  0.59301965163E+02  0.50000038546E+02 0.  0.
        -12    1    1    2    0    0 -0.12315097127E+01  0.16330225613E+02  0.27359209288E+02  0.31886034837E+02  0.00000000000E+00 0.  1.
         11    1    3    3    0    0  0.53654252861E+01 -0.15068187963E+02  0.25809959422E+01  0.16201839935E+02  0.51100000000E-03 0. -1.
        -11    1    3    3    0    0  0.81565815234E+00 -0.10719484924E+01  0.63409381120E+01  0.64824276466E+01  0.51100000000E-03 0.  1.
         12    1    3    3    0    0 -0.49495737257E+01 -0.19008915797E+00 -0.36281143342E+02  0.36617697581E+02  0.00000000000E+00 0. -1.
</event>
<event>
 7    1  0.3802554E-013  0.5930197E+02  0.7816164E-02  0.1266605E+00
        -11   -1    0    0    0    0  0.00000000000E+00  0.00000000000E+00  0.45593999997E+02  0.45594000000E+02  0.51100000000E-03 0. -1.
         11   -1    0    0    0    0 -0.00000000000E+00 -0.00000000000E+00 -0.45593999997E+02  0.45594000000E+02  0.51100000000E-03 0.  1.
    9900012    2    1    2    0    0  0.20633540653E+02  0.20609720565E+02  0.12892440506E+02  0.59301974788E+02  0.50000056099E+02 0.  0.
        -12    1    1    2    0    0 -0.20633540653E+02 -0.20609720565E+02 -0.12892440506E+02  0.31886025212E+02  0.00000000000E+00 0.  1.
         11    1    3    3    0    0 -0.49168802148E+00 -0.59626716216E+01 -0.76954572562E+01  0.97475777822E+01  0.51100000000E-03 0. -1.
        -11    1    3    3    0    0  0.20980175060E+02  0.41251391238E+01  0.42742875192E+01  0.21804908906E+02  0.51100000000E-03 0.  1.
         12    1    3    3    0    0  0.14505361450E+00  0.22447253063E+02  0.16313610243E+02  0.27749488099E+02  0.00000000000E+00 0. -1.
</event>
<event>
 7    1  0.3802554E-013  0.5930198E+02  0.7816164E-02  0.1266605E+00
        -11   -1    0    0    0    0  0.00000000000E+00  0.00000000000E+00  0.45593999997E+02  0.45594000000E+02  0.51100000000E-03 0.  1.
         11   -1    0    0    0    0 -0.00000000000E+00 -0.00000000000E+00 -0.45593999997E+02  0.45594000000E+02  0.51100000000E-03 0. -1.
    9900012    2    1    2    0    0 -0.19853432963E+02  0.10358339120E+02 -0.22699438173E+02  0.59301976681E+02  0.50000059552E+02 0.  0.
        -12    1    1    2    0    0  0.19853432963E+02 -0.10358339120E+02  0.22699438173E+02  0.31886023319E+02  0.00000000000E+00 0.  1.
         11    1    3    3    0    0 -0.16285480333E+02  0.10295461091E+02 -0.34709727164E+02  0.39698596308E+02  0.51100000000E-03 0. -1.
        -11    1    3    3    0    0 -0.77531249841E+01  0.21140748066E+01  0.15951951028E+01  0.81929791276E+01  0.51100000000E-03 0.  1.
        -12    1    3    3    0    0  0.41851723542E+01 -0.20511967777E+01  0.10415093889E+02  0.11410401245E+02  0.00000000000E+00 0.  1.
</event>
<event>
 7    1  0.3802554E-013  0.5930195E+02  0.7816164E-02  0.1266605E+00
        -11   -1    0    0    0    0  0.00000000000E+00  0.00000000000E+00  0.45593999997E+02  0.45594000000E+02  0.51100000000E-03 0. -1.
         11   -1    0    0    0    0 -0.00000000000E+00 -0.00000000000E+00 -0.45593999997E+02  0.45594000000E+02  0.51100000000E-03 0.  1.
    9900012    2    1    2    0    0 -0.34190306788E+01  0.26956101549E+02  0.16685294394E+02  0.59301949281E+02  0.50000009580E+02 0.  0.
        -12    1    1    2    0    0  0.34190306788E+01 -0.26956101549E+02 -0.16685294394E+02  0.31886050719E+02  0.00000000000E+00 0.  1.
         11    1    3    3    0    0 -0.83528882369E+01  0.21318191867E+01 -0.38339301423E+01  0.94347451232E+01  0.51100000000E-03 0. -1.
        -11    1    3    3    0    0  0.11151144878E+02  0.44397734094E+01 -0.78820898765E+01  0.14359211716E+02  0.51100000000E-03 0.  1.
         12    1    3    3    0    0 -0.62172873203E+01  0.20384508952E+02  0.28401314412E+02  0.35507992441E+02  0.00000000000E+00 0. -1.
</event>
<event>
 7    1  0.3802554E-013  0.5930195E+02  0.7816164E-02  0.1266605E+00
        -11   -1    0    0    0    0  0.00000000000E+00  0.00000000000E+00  0.45593999997E+02  0.45594000000E+02  0.51100000000E-03 0. -1.
         11   -1    0    0    0    0 -0.00000000000E+00 -0.00000000000E+00 -0.45593999997E+02  0.45594000000E+02  0.51100000000E-03 0.  1.
    9900012    2    1    2    0    0 -0.13267048224E+02  0.86800706206E+01  0.27665181295E+02  0.59301945828E+02  0.50000003283E+02 0.  0.
        -12    1    1    2    0    0  0.13267048224E+02 -0.86800706206E+01 -0.27665181295E+02  0.31886054172E+02  0.00000000000E+00 0.  1.
         11    1    3    3    0    0 -0.11943063874E+02  0.56365484355E+01  0.20679630631E+02  0.24536800449E+02  0.51100000000E-03 0. -1.
        -11    1    3    3    0    0 -0.65155617848E+01  0.16100795523E+02 -0.28662264654E+01  0.17604073854E+02  0.51100000000E-03 0.  1.
         12    1    3    3    0    0  0.51915774345E+01 -0.13057273338E+02  0.98517771294E+01  0.17161071525E+02  0.00000000000E+00 0. -1.
</event>
<event>
 7    1  0.3802554E-013  0.5930188E+02  0.7816164E-02  0.1266605E+00
        -11   -1    0    0    0    0  0.00000000000E+00  0.00000000000E+00  0.45593999997E+02  0.45594000000E+02  0.51100000000E-03 0.  1.
         11   -1    0    0    0    0 -0.00000000000E+00 -0.00000000000E+00 -0.45593999997E+02  0.45594000000E+02  0.51100000000E-03 0. -1.
    9900012    2    1    2    0    0 -0.19686161053E+01 -0.31820794292E+02  0.53484882137E+00  0.59301882927E+02  0.49999888566E+02 0.  0.
        -12    1    1    2    0    0  0.19686161053E+01  0.31820794292E+02 -0.53484882137E+00  0.31886117073E+02  0.00000000000E+00 0.  1.
         11    1    3    3    0    0  0.14173608886E+01  0.29184386742E+01  0.11932085903E+02  0.12365309153E+02  0.51100000000E-03 0. -1.
        -11    1    3    3    0    0 -0.20819854380E+01 -0.49918055799E+01  0.92410466256E+01  0.10707461385E+02  0.51100000000E-03 0.  1.
         12    1    3    3    0    0 -0.13039915559E+01 -0.29747427386E+02 -0.20638283708E+02  0.36229112389E+02  0.00000000000E+00 0. -1.
</event>
<event>
 7    1  0.3802554E-013  0.5930194E+02  0.7816164E-02  0.1266605E+00
        -11   -1    0    0    0    0  0.00000000000E+00  0.00000000000E+00  0.45593999997E+02  0.45594000000E+02  0.51100000000E-03 0. -1.
         11   -1    0    0    0    0 -0.00000000000E+00 -0.00000000000E+00 -0.45593999997E+02  0.45594000000E+02  0.51100000000E-03 0.  1.
    9900012    2    1    2    0    0  0.28360595776E+02  0.34305432609E+01  0.14164342716E+02  0.59301943104E+02  0.49999998315E+02 0.  0.
        -12    1    1    2    0    0 -0.28360595776E+02 -0.34305432609E+01 -0.14164342716E+02  0.31886056896E+02  0.00000000000E+00 0.  1.
         11    1    3    3    0    0  0.45984079148E+01  0.68132239226E+01  0.91154810972E+01  0.12274256453E+02  0.51100000000E-03 0. -1.
        -11    1    3    3    0    0  0.71517129947E+01  0.17496620666E+02  0.72770325166E+01  0.20254232545E+02  0.51100000000E-03 0.  1.
        -12    1    3    3    0    0  0.16610474866E+02 -0.20879301327E+02 -0.22281708981E+01  0.26773454106E+02  0.00000000000E+00 0.  1.
</event>
<event>
 7    1  0.3802554E-013  0.5930193E+02  0.7816164E-02  0.1266605E+00
        -11   -1    0    0    0    0  0.00000000000E+00  0.00000000000E+00  0.45593999997E+02  0.45594000000E+02  0.51100000000E-03 0.  1.
         11   -1    0    0    0    0 -0.00000000000E+00 -0.00000000000E+00 -0.45593999997E+02  0.45594000000E+02  0.51100000000E-03 0. -1.
    9900012    2    1    2    0    0  0.12781766051E+02  0.23376464336E+02 -0.17518234279E+02  0.59301934697E+02  0.49999982984E+02 0.  0.
        -12    1    1    2    0    0 -0.12781766051E+02 -0.23376464336E+02  0.17518234279E+02  0.31886065303E+02  0.00000000000E+00 0.  1.
         11    1    3    3    0    0  0.90352461725E+01  0.10419353314E+02  0.70122735462E+01  0.15471605522E+02  0.51100000000E-03 0. -1.
        -11    1    3    3    0    0  0.17767410136E+02  0.45459035382E+01 -0.64197723075E+01  0.19430892380E+02  0.51100000000E-03 0.  1.
         12    1    3    3    0    0 -0.14020890257E+02  0.84112074832E+01 -0.18110735518E+02  0.24399436795E+02  0.00000000000E+00 0. -1.
</event>
<event>
 7    1  0.3802554E-013  0.5930195E+02  0.7816164E-02  0.1266605E+00
        -11   -1    0    0    0    0  0.00000000000E+00  0.00000000000E+00  0.45593999997E+02  0.45594000000E+02  0.51100000000E-03 0. -1.
         11   -1    0    0    0    0 -0.00000000000E+00 -0.00000000000E+00 -0.45593999997E+02  0.45594000000E+02  0.51100000000E-03 0.  1.
    9900012    2    1    2    0    0  0.25807736629E+02 -0.11910658250E+02  0.14450516858E+02  0.59301945253E+02  0.50000002234E+02 0.  0.
        -12    1    1    2    0    0 -0.25807736629E+02  0.11910658250E+02 -0.14450516858E+02  0.31886054747E+02  0.00000000000E+00 0.  1.
         11    1    3    3    0    0  0.18519601766E+02  0.49886081830E+01  0.30381518913E+01  0.19418862694E+02  0.51100000000E-03 0. -1.
        -11    1    3    3    0    0  0.34748899206E+00  0.97498800404E+01  0.69672767138E+01  0.11988488415E+02  0.51100000000E-03 0.  1.
        -12    1    3    3    0    0  0.69406458717E+01 -0.26649146473E+02  0.44450882531E+01  0.27894594144E+02  0.00000000000E+00 0.  1.
</event>
<event>
 7    1  0.3802554E-013  0.5930197E+02  0.7816164E-02  0.1266605E+00
        -11   -1    0    0    0    0  0.00000000000E+00  0.00000000000E+00  0.45593999997E+02  0.45594000000E+02  0.51100000000E-03 0. -1.
         11   -1    0    0    0    0 -0.00000000000E+00 -0.00000000000E+00 -0.45593999997E+02  0.45594000000E+02  0.51100000000E-03 0.  1.
    9900012    2    1    2    0    0 -0.14757320777E+02 -0.28242784220E+02 -0.11338976828E+01  0.59301966992E+02  0.50000041881E+02 0.  0.
        -12    1    1    2    0    0  0.14757320777E+02  0.28242784220E+02  0.11338976828E+01  0.31886033008E+02  0.00000000000E+00 0.  1.
         11    1    3    3    0    0 -0.10881504324E+02 -0.18727308062E+02  0.55578069516E+01  0.22360868095E+02  0.51100000000E-03 0. -1.
        -11    1    3    3    0    0 -0.17200363477E+02 -0.50006454838E+01 -0.12371108609E+02  0.21769319867E+02  0.51100000000E-03 0.  1.
         12    1    3    3    0    0  0.13324547024E+02 -0.45148306745E+01  0.56794039748E+01  0.15171779030E+02  0.00000000000E+00 0. -1.
</event>
<event>
 7    1  0.3802554E-013  0.5930195E+02  0.7816164E-02  0.1266605E+00
        -11   -1    0    0    0    0  0.00000000000E+00  0.00000000000E+00  0.45593999997E+02  0.45594000000E+02  0.51100000000E-03 0.  1.
         11   -1    0    0    0    0 -0.00000000000E+00 -0.00000000000E+00 -0.45593999997E+02  0.45594000000E+02  0.51100000000E-03 0. -1.
    9900012    2    1    2    0    0  0.10206736444E+02  0.25737346914E+02 -0.15815553739E+02  0.59301949208E+02  0.50000009448E+02 0.  0.
        -12    1    1    2    0    0 -0.10206736444E+02 -0.25737346914E+02  0.15815553739E+02  0.31886050792E+02  0.00000000000E+00 0.  1.
         11    1    3    3    0    0  0.14049470694E+02  0.23811048049E+01 -0.17564902179E+02  0.22618202309E+02  0.51100000000E-03 0. -1.
        -11    1    3    3    0    0 -0.14791692907E+02  0.19970712258E+02  0.34760992766E+01  0.25093959305E+02  0.51100000000E-03 0.  1.
         12    1    3    3    0    0  0.10948958657E+02  0.33855298511E+01 -0.17267508367E+01  0.11589787595E+02  0.00000000000E+00 0. -1.
</event>
<event>
 7    1  0.3802554E-013  0.5930197E+02  0.7816164E-02  0.1266605E+00
        -11   -1    0    0    0    0  0.00000000000E+00  0.00000000000E+00  0.45593999997E+02  0.45594000000E+02  0.51100000000E-03 0. -1.
         11   -1    0    0    0    0 -0.00000000000E+00 -0.00000000000E+00 -0.45593999997E+02  0.45594000000E+02  0.51100000000E-03 0.  1.
    9900012    2    1    2    0    0  0.37377348723E+01 -0.14518722859E+01  0.31632899430E+02  0.59301969807E+02  0.50000047015E+02 0.  0.
        -12    1    1    2    0    0 -0.37377348723E+01  0.14518722859E+01 -0.31632899430E+02  0.31886030193E+02  0.00000000000E+00 0.  1.
         11    1    3    3    0    0  0.15583070785E+01  0.67201521604E+01  0.11919643318E+02  0.13771952044E+02  0.51100000000E-03 0. -1.
        -11    1    3    3    0    0  0.71146656938E+01 -0.16293227667E+02  0.27835463642E+02  0.33028787022E+02  0.51100000000E-03 0.  1.
        -12    1    3    3    0    0 -0.49352379000E+01  0.81212032205E+01 -0.81222075295E+01  0.12501230741E+02  0.00000000000E+00 0.  1.
</event>
<event>
 7    1  0.3802554E-013  0.5930193E+02  0.7816164E-02  0.1266605E+00
        -11   -1    0    0    0    0  0.00000000000E+00  0.00000000000E+00  0.45593999997E+02  0.45594000000E+02  0.51100000000E-03 0.  1.
         11   -1    0    0    0    0 -0.00000000000E+00 -0.00000000000E+00 -0.45593999997E+02  0.45594000000E+02  0.51100000000E-03 0. -1.
    9900012    2    1    2    0    0 -0.30678098650E+02 -0.47282125598E-01 -0.86933035470E+01  0.59301929390E+02  0.49999973304E+02 0.  0.
        -12    1    1    2    0    0  0.30678098650E+02  0.47282125598E-01  0.86933035470E+01  0.31886070610E+02  0.00000000000E+00 0.  1.
         11    1    3    3    0    0 -0.94727979053E+00 -0.12248196751E+02 -0.12135466110E+02  0.17268039860E+02  0.51100000000E-03 0. -1.
        -11    1    3    3    0    0 -0.11140952563E+01  0.13078104668E+02 -0.49197389051E+00  0.13134689509E+02  0.51100000000E-03 0.  1.
         12    1    3    3    0    0 -0.28616723604E+02 -0.87719004235E+00  0.39341364532E+01  0.28899200020E+02  0.00000000000E+00 0. -1.
</event>
<event>
 7    1  0.3802554E-013  0.5930194E+02  0.7816164E-02  0.1266605E+00
        -11   -1    0    0    0    0  0.00000000000E+00  0.00000000000E+00  0.45593999997E+02  0.45594000000E+02  0.51100000000E-03 0.  1.
         11   -1    0    0    0    0 -0.00000000000E+00 -0.00000000000E+00 -0.45593999997E+02  0.45594000000E+02  0.51100000000E-03 0. -1.
    9900012    2    1    2    0    0  0.35719169289E+01  0.57315379110E+01 -0.31162662289E+02  0.59301942885E+02  0.49999997917E+02 0.  0.
        -12    1    1    2    0    0 -0.35719169289E+01 -0.57315379110E+01  0.31162662289E+02  0.31886057115E+02  0.00000000000E+00 0.  1.
         11    1    3    3    0    0 -0.36488417296E+00  0.70846378414E+01 -0.64058858332E+01  0.95582742884E+01  0.51100000000E-03 0. -1.
        -11    1    3    3    0    0 -0.15524418815E+02  0.96153467382E+01 -0.28988171608E+01  0.18489608260E+02  0.51100000000E-03 0.  1.
         12    1    3    3    0    0  0.19461219917E+02 -0.10968446669E+02 -0.21857959295E+02  0.31254060336E+02  0.00000000000E+00 0. -1.
</event>
<event>
 7    1  0.3802554E-013  0.5930195E+02  0.7816164E-02  0.1266605E+00
        -11   -1    0    0    0    0  0.00000000000E+00  0.00000000000E+00  0.45593999997E+02  0.45594000000E+02  0.51100000000E-03 0. -1.
         11   -1    0    0    0    0 -0.00000000000E+00 -0.00000000000E+00 -0.45593999997E+02  0.45594000000E+02  0.51100000000E-03 0.  1.
    9900012    2    1    2    0    0 -0.18228008187E+02  0.16057828896E+02  0.20654436713E+02  0.59301954349E+02  0.50000018824E+02 0.  0.
        -12    1    1    2    0    0  0.18228008187E+02 -0.16057828896E+02 -0.20654436713E+02  0.31886045651E+02  0.00000000000E+00 0.  1.
         11    1    3    3    0    0  0.64219601806E+01 -0.57023815967E+00  0.75535296216E+01  0.99308888890E+01  0.51100000000E-03 0. -1.
        -11    1    3    3    0    0 -0.57984503349E+01 -0.24437801533E+01 -0.11416832078E+02  0.13036032475E+02  0.51100000000E-03 0.  1.
        -12    1    3    3    0    0 -0.18851518032E+02  0.19071847209E+02  0.24517739169E+02  0.36335032986E+02  0.00000000000E+00 0.  1.
</event>
<event>
 7    1  0.3802554E-013  0.5930195E+02  0.7816164E-02  0.1266605E+00
        -11   -1    0    0    0    0  0.00000000000E+00  0.00000000000E+00  0.45593999997E+02  0.45594000000E+02  0.51100000000E-03 0. -1.
         11   -1    0    0    0    0 -0.00000000000E+00 -0.00000000000E+00 -0.45593999997E+02  0.45594000000E+02  0.51100000000E-03 0.  1.
    9900012    2    1    2    0    0 -0.19269465681E+02  0.16733731858E+02 -0.19115177050E+02  0.59301951590E+02  0.50000013792E+02 0.  0.
        -12    1    1    2    0    0  0.19269465681E+02 -0.16733731858E+02  0.19115177050E+02  0.31886048410E+02  0.00000000000E+00 0.  1.
         11    1    3    3    0    0 -0.13043707979E+02 -0.29847023737E+01 -0.19801424106E+02  0.23898601695E+02  0.51100000000E-03 0. -1.
        -11    1    3    3    0    0  0.98247649105E+01  0.29960050640E+01 -0.51656376839E+01  0.11497211176E+02  0.51100000000E-03 0.  1.
         12    1    3    3    0    0 -0.16050522613E+02  0.16722429168E+02  0.58518847404E+01  0.23906138719E+02  0.00000000000E+00 0. -1.
</event>
<event>
 7    1  0.3802554E-013  0.5930198E+02  0.7816164E-02  0.1266605E+00
        -11   -1    0    0    0    0  0.00000000000E+00  0.00000000000E+00  0.45593999997E+02  0.45594000000E+02  0.51100000000E-03 0.  1.
         11   -1    0    0    0    0 -0.00000000000E+00 -0.00000000000E+00 -0.45593999997E+02  0.45594000000E+02  0.51100000000E-03 0. -1.
    9900012    2    1    2    0    0  0.27713822298E+02  0.70947177564E+01 -0.14082870554E+02  0.59301980972E+02  0.50000067378E+02 0.  0.
        -12    1    1    2    0    0 -0.27713822298E+02 -0.70947177564E+01  0.14082870554E+02  0.31886019028E+02  0.00000000000E+00 0.  1.
         11    1    3    3    0    0  0.18407432266E+02  0.24033448946E+02 -0.10049582262E+02  0.31897246507E+02  0.51100000000E-03 0. -1.
        -11    1    3    3    0    0  0.72811302490E+01  0.22153745003E+01 -0.27821002416E+01  0.81032600782E+01  0.51100000000E-03 0.  1.
        -12    1    3    3    0    0  0.20252597830E+01 -0.19154105690E+02 -0.12511880501E+01  0.19301474387E+02  0.00000000000E+00 0.  1.
</event>
<event>
 7    1  0.3802554E-013  0.5930194E+02  0.7816164E-02  0.1266605E+00
        -11   -1    0    0    0    0  0.00000000000E+00  0.00000000000E+00  0.45593999997E+02  0.45594000000E+02  0.51100000000E-03 0.  1.
         11   -1    0    0    0    0 -0.00000000000E+00 -0.00000000000E+00 -0.45593999997E+02  0.45594000000E+02  0.51100000000E-03 0. -1.
    9900012    2    1    2    0    0  0.10783234351E+02  0.45979723629E+00 -0.30003852865E+02  0.59301941239E+02  0.49999994915E+02 0.  0.
        -12    1    1    2    0    0 -0.10783234351E+02 -0.45979723629E+00  0.30003852865E+02  0.31886058761E+02  0.00000000000E+00 0.  1.
         11    1    3    3    0    0 -0.44140396035E-01 -0.45696683367E+01 -0.17914008443E+02  0.18487712564E+02  0.51100000000E-03 0. -1.
        -11    1    3    3    0    0 -0.87245883223E+00 -0.38122131564E+01 -0.22495301706E+02  0.22832712337E+02  0.51100000000E-03 0.  1.
        -12    1    3    3    0    0  0.11699833579E+02  0.88416787294E+01  0.10405457284E+02  0.17981516338E+02  0.00000000000E+00 0.  1.
</event>
<event>
 7    1  0.3802554E-013  0.5930193E+02  0.7816164E-02  0.1266605E+00
        -11   -1    0    0    0    0  0.00000000000E+00  0.00000000000E+00  0.45593999997E+02  0.45594000000E+02  0.51100000000E-03 0.  1.
         11   -1    0    0    0    0 -0.00000000000E+00 -0.00000000000E+00 -0.45593999997E+02  0.45594000000E+02  0.51100000000E-03 0. -1.
    9900012    2    1    2    0    0  0.10122057324E+02  0.14472839788E+02 -0.26548109025E+02  0.59301933626E+02  0.49999981030E+02 0.  0.
        -12    1    1    2    0    0 -0.10122057324E+02 -0.14472839788E+02  0.26548109025E+02  0.31886066374E+02  0.00000000000E+00 0.  1.
         11    1    3    3    0    0  0.17883150435E+01  0.13734110502E+02  0.47883913828E+01  0.14654438040E+02  0.51100000000E-03 0. -1.
        -11    1    3    3    0    0 -0.90876674435E+01 -0.56404399741E+01 -0.36141595856E+01  0.11289925263E+02  0.51100000000E-03 0.  1.
         12    1    3    3    0    0  0.17421409724E+02  0.63791692603E+01 -0.27722340822E+02  0.33357570324E+02  0.00000000000E+00 0. -1.
</event>
<event>
 7    1  0.3802554E-013  0.5930195E+02  0.7816164E-02  0.1266605E+00
        -11   -1    0    0    0    0  0.00000000000E+00  0.00000000000E+00  0.45593999997E+02  0.45594000000E+02  0.51100000000E-03 0.  1.
         11   -1    0    0    0    0 -0.00000000000E+00 -0.00000000000E+00 -0.45593999997E+02  0.45594000000E+02  0.51100000000E-03 0. -1.
    9900012    2    1    2    0    0  0.19129194766E+02 -0.23819337013E+02  0.91341767284E+01  0.59301951442E+02  0.50000013522E+02 0.  0.
        -12    1    1    2    0    0 -0.19129194766E+02  0.23819337013E+02 -0.91341767284E+01  0.31886048558E+02  0.00000000000E+00 0.  1.
         11    1    3    3    0    0 -0.36355359921E+01 -0.93022660147E+01  0.20053606361E+01  0.10186792748E+02  0.51100000000E-03 0. -1.
        -11    1    3    3    0    0  0.67248065050E+01  0.61713474939E+00 -0.15872937271E+02  0.17249754076E+02  0.51100000000E-03 0.  1.
        -12    1    3    3    0    0  0.16039924254E+02 -0.15134205747E+02  0.23001753363E+02  0.31865404617E+02  0.00000000000E+00 0.  1.
</event>
<event>
 7    1  0.3802554E-013  0.5930193E+02  0.7816164E-02  0.1266605E+00
        -11   -1    0    0    0    0  0.00000000000E+00  0.00000000000E+00  0.45593999997E+02  0.45594000000E+02  0.51100000000E-03 0.  1.
         11   -1    0    0    0    0 -0.00000000000E+00 -0.00000000000E+00 -0.45593999997E+02  0.45594000000E+02  0.51100000000E-03 0. -1.
    9900012    2    1    2    0    0  0.24714139009E+01  0.23034655021E+02 -0.21909317445E+02  0.59301930792E+02  0.49999975862E+02 0.  0.
        -12    1    1    2    0    0 -0.24714139009E+01 -0.23034655021E+02  0.21909317445E+02  0.31886069208E+02  0.00000000000E+00 0.  1.
         11    1    3    3    0    0 -0.50230861012E+01  0.19741975314E+01 -0.70831441392E+01  0.89050424497E+01  0.51100000000E-03 0. -1.
        -11    1    3    3    0    0 -0.10949582425E+02 -0.27014630184E+01  0.69629505247E+01  0.13254204540E+02  0.51100000000E-03 0.  1.
         12    1    3    3    0    0  0.18444082427E+02  0.23761920508E+02 -0.21789123830E+02  0.37142683803E+02  0.00000000000E+00 0. -1.
</event>
<event>
 7    1  0.3802554E-013  0.5930192E+02  0.7816164E-02  0.1266605E+00
        -11   -1    0    0    0    0  0.00000000000E+00  0.00000000000E+00  0.45593999997E+02  0.45594000000E+02  0.51100000000E-03 0. -1.
         11   -1    0    0    0    0 -0.00000000000E+00 -0.00000000000E+00 -0.45593999997E+02  0.45594000000E+02  0.51100000000E-03 0.  1.
    9900012    2    1    2    0    0 -0.27693234623E+02  0.15548062852E+02 -0.28398017587E+01  0.59301921903E+02  0.49999959650E+02 0.  0.
        -12    1    1    2    0    0  0.27693234623E+02 -0.15548062852E+02  0.28398017587E+01  0.31886078097E+02  0.00000000000E+00 0.  1.
         11    1    3    3    0    0 -0.67470525082E+00 -0.12833998253E+02 -0.17755745945E+01  0.12973796812E+02  0.51100000000E-03 0. -1.
        -11    1    3    3    0    0  0.25984968774E+00 -0.33614101357E+01  0.26801667637E+01  0.43069587998E+01  0.51100000000E-03 0.  1.
        -12    1    3    3    0    0 -0.27278379060E+02  0.31743471241E+02 -0.37443939279E+01  0.42021166291E+02  0.00000000000E+00 0.  1.
</event>
<event>
 7    1  0.3802554E-013  0.5930181E+02  0.7816164E-02  0.1266605E+00
        -11   -1    0    0    0    0  0.00000000000E+00  0.00000000000E+00  0.45593999997E+02  0.45594000000E+02  0.51100000000E-03 0. -1.
         11   -1    0    0    0    0 -0.00000000000E+00 -0.00000000000E+00 -0.45593999997E+02  0.45594000000E+02  0.51100000000E-03 0.  1.
    9900012    2    1    2    0    0  0.56250912185E+01  0.28463665703E+02  0.13225239848E+02  0.59301813563E+02  0.49999762063E+02 0.  0.
        -12    1    1    2    0    0 -0.56250912185E+01 -0.28463665703E+02 -0.13225239848E+02  0.31886186437E+02  0.00000000000E+00 0.  1.
         11    1    3    3    0    0  0.11472753851E+02  0.14505789266E+01  0.13443152609E+02  0.17732642569E+02  0.51100000000E-03 0. -1.
        -11    1    3    3    0    0 -0.10456954914E+02 -0.29446936537E+01 -0.25837331810E+01  0.11166682775E+02  0.51100000000E-03 0.  1.
         12    1    3    3    0    0  0.46092922815E+01  0.29957780430E+02  0.23658204195E+01  0.30402488219E+02  0.00000000000E+00 0. -1.
</event>
<event>
 7    1  0.3802554E-013  0.5930197E+02  0.7816164E-02  0.1266605E+00
        -11   -1    0    0    0    0  0.00000000000E+00  0.00000000000E+00  0.45593999997E+02  0.45594000000E+02  0.51100000000E-03 0.  1.
         11   -1    0    0    0    0 -0.00000000000E+00 -0.00000000000E+00 -0.45593999997E+02  0.45594000000E+02  0.51100000000E-03 0. -1.
    9900012    2    1    2    0    0 -0.26063016477E+02  0.12665315934E+02 -0.13305189621E+02  0.59301966593E+02  0.50000041154E+02 0.  0.
        -12    1    1    2    0    0  0.26063016477E+02 -0.12665315934E+02  0.13305189621E+02  0.31886033407E+02  0.00000000000E+00 0.  1.
         11    1    3    3    0    0 -0.24780589250E+01  0.13854532886E+02  0.23339105109E+00  0.14076339339E+02  0.51100000000E-03 0. -1.
        -11    1    3    3    0    0 -0.79691589443E+01  0.16718927229E+02 -0.10448914357E+02  0.21265225921E+02  0.51100000000E-03 0.  1.
        -12    1    3    3    0    0 -0.15615798607E+02 -0.17908144181E+02 -0.30896663152E+01  0.23960401334E+02  0.00000000000E+00 0.  1.
</event>
<event>
 7    1  0.3802554E-013  0.5930191E+02  0.7816164E-02  0.1266605E+00
        -11   -1    0    0    0    0  0.00000000000E+00  0.00000000000E+00  0.45593999997E+02  0.45594000000E+02  0.51100000000E-03 0. -1.
         11   -1    0    0    0    0 -0.00000000000E+00 -0.00000000000E+00 -0.45593999997E+02  0.45594000000E+02  0.51100000000E-03 0.  1.
    9900012    2    1    2    0    0 -0.28975987890E+02  0.56155107771E+01  0.12065678277E+02  0.59301914825E+02  0.49999946741E+02 0.  0.
        -12    1    1    2    0    0  0.28975987890E+02 -0.56155107771E+01 -0.12065678277E+02  0.31886085175E+02  0.00000000000E+00 0.  1.
         11    1    3    3    0    0  0.75501790944E+01  0.14810475209E+01 -0.44732231602E+01  0.88999118995E+01  0.51100000000E-03 0. -1.
        -11    1    3    3    0    0 -0.11105167381E+02  0.36429317745E+00  0.21525104335E+02  0.24223698500E+02  0.51100000000E-03 0.  1.
        -12    1    3    3    0    0 -0.25420999603E+02  0.37701700787E+01 -0.49862028986E+01  0.26178304426E+02  0.00000000000E+00 0.  1.
</event>
<event>
 7    1  0.3802554E-013  0.5930190E+02  0.7816164E-02  0.1266605E+00
        -11   -1    0    0    0    0  0.00000000000E+00  0.00000000000E+00  0.45593999997E+02  0.45594000000E+02  0.51100000000E-03 0.  1.
         11   -1    0    0    0    0 -0.00000000000E+00 -0.00000000000E+00 -0.45593999997E+02  0.45594000000E+02  0.51100000000E-03 0. -1.
    9900012    2    1    2    0    0  0.19744623023E+02 -0.13533007049E+02 -0.21064915834E+02  0.59301904328E+02  0.49999927598E+02 0.  0.
        -12    1    1    2    0    0 -0.19744623023E+02  0.13533007049E+02  0.21064915834E+02  0.31886095672E+02  0.00000000000E+00 0.  1.
         11    1    3    3    0    0 -0.52270760649E+01 -0.11324069792E+01 -0.14600793199E+02  0.15549528355E+02  0.51100000000E-03 0. -1.
        -11    1    3    3    0    0  0.27317350279E+01  0.37182726280E+01 -0.14433193837E+02  0.15152722930E+02  0.51100000000E-03 0.  1.
        -12    1    3    3    0    0  0.22239964060E+02 -0.16118872698E+02  0.79690712018E+01  0.28599653044E+02  0.00000000000E+00 0.  1.
</event>
<event>
 7    1  0.3802554E-013  0.5930195E+02  0.7816164E-02  0.1266605E+00
        -11   -1    0    0    0    0  0.00000000000E+00  0.00000000000E+00  0.45593999997E+02  0.45594000000E+02  0.51100000000E-03 0.  1.
         11   -1    0    0    0    0 -0.00000000000E+00 -0.00000000000E+00 -0.45593999997E+02  0.45594000000E+02  0.51100000000E-03 0. -1.
    9900012    2    1    2    0    0  0.30429492941E+01 -0.62308858590E+01 -0.31122933796E+02  0.59301945257E+02  0.50000002242E+02 0.  0.
        -12    1    1    2    0    0 -0.30429492941E+01  0.62308858590E+01  0.31122933796E+02  0.31886054743E+02  0.00000000000E+00 0.  1.
         11    1    3    3    0    0 -0.20225850813E+02 -0.78542200127E+01 -0.12148701258E+02  0.24866941019E+02  0.51100000000E-03 0.  1.
        -11    1    3    3    0    0  0.33601407765E+01  0.67574773566E+01 -0.20905216839E+01  0.78309850872E+01  0.51100000000E-03 0. -1.
        -12    1    3    3    0    0  0.19908659331E+02 -0.51341432029E+01 -0.16883710855E+02  0.26604019151E+02  0.00000000000E+00 0.  1.
</event>
<event>
 7    1  0.3802554E-013  0.5930195E+02  0.7816164E-02  0.1266605E+00
        -11   -1    0    0    0    0  0.00000000000E+00  0.00000000000E+00  0.45593999997E+02  0.45594000000E+02  0.51100000000E-03 0.  1.
         11   -1    0    0    0    0 -0.00000000000E+00 -0.00000000000E+00 -0.45593999997E+02  0.45594000000E+02  0.51100000000E-03 0. -1.
    9900012    2    1    2    0    0  0.29384023204E+02  0.70254919345E+01  0.10195175110E+02  0.59301953645E+02  0.50000017541E+02 0.  0.
        -12    1    1    2    0    0 -0.29384023204E+02 -0.70254919345E+01 -0.10195175110E+02  0.31886046355E+02  0.00000000000E+00 0.  1.
         11    1    3    3    0    0  0.18741427561E+02  0.14818900709E+02 -0.22213749687E+00  0.23893310164E+02  0.51100000000E-03 0. -1.
        -11    1    3    3    0    0 -0.38511395551E+01  0.95743846345E+01 -0.41413495900E+00  0.10328195633E+02  0.51100000000E-03 0.  1.
        -12    1    3    3    0    0  0.14493735198E+02 -0.17367793410E+02  0.10831447566E+02  0.25080447849E+02  0.00000000000E+00 0.  1.
</event>
<event>
 7    1  0.3802554E-013  0.5930193E+02  0.7816164E-02  0.1266605E+00
        -11   -1    0    0    0    0  0.00000000000E+00  0.00000000000E+00  0.45593999997E+02  0.45594000000E+02  0.51100000000E-03 0. -1.
         11   -1    0    0    0    0 -0.00000000000E+00 -0.00000000000E+00 -0.45593999997E+02  0.45594000000E+02  0.51100000000E-03 0.  1.
    9900012    2    1    2    0    0 -0.23333531662E+02  0.13293873880E+02  0.17191300623E+02  0.59301927811E+02  0.49999970425E+02 0.  0.
        -12    1    1    2    0    0  0.23333531662E+02 -0.13293873880E+02 -0.17191300623E+02  0.31886072189E+02  0.00000000000E+00 0.  1.
         11    1    3    3    0    0 -0.12959121744E+00  0.48813219711E+01 -0.53224505778E+01  0.72230588038E+01  0.51100000000E-03 0.  1.
        -11    1    3    3    0    0 -0.45625651956E+01  0.17514827476E+02  0.25342385852E+02  0.31141976553E+02  0.51100000000E-03 0. -1.
         12    1    3    3    0    0 -0.18641375249E+02 -0.91022755679E+01 -0.28286346511E+01  0.20936892455E+02  0.00000000000E+00 0. -1.
</event>
<event>
 7    1  0.3802554E-013  0.5930188E+02  0.7816164E-02  0.1266605E+00
        -11   -1    0    0    0    0  0.00000000000E+00  0.00000000000E+00  0.45593999997E+02  0.45594000000E+02  0.51100000000E-03 0. -1.
         11   -1    0    0    0    0 -0.00000000000E+00 -0.00000000000E+00 -0.45593999997E+02  0.45594000000E+02  0.51100000000E-03 0.  1.
    9900012    2    1    2    0    0  0.93074540532E+01 -0.27379344392E+02 -0.13433812224E+02  0.59301882156E+02  0.49999887160E+02 0.  0.
        -12    1    1    2    0    0 -0.93074540532E+01  0.27379344392E+02  0.13433812224E+02  0.31886117844E+02  0.00000000000E+00 0.  1.
         11    1    3    3    0    0  0.36462388707E+01 -0.11471048773E+02 -0.85757438288E+01  0.14779154249E+02  0.51100000000E-03 0. -1.
        -11    1    3    3    0    0 -0.27441759087E+00  0.63484845179E+01 -0.17238086547E+02  0.18371994686E+02  0.51100000000E-03 0.  1.
         12    1    3    3    0    0  0.59356327734E+01 -0.22256780138E+02  0.12380018152E+02  0.26150733220E+02  0.00000000000E+00 0. -1.
</event>
<event>
 7    1  0.3802554E-013  0.5930195E+02  0.7816164E-02  0.1266605E+00
        -11   -1    0    0    0    0  0.00000000000E+00  0.00000000000E+00  0.45593999997E+02  0.45594000000E+02  0.51100000000E-03 0. -1.
         11   -1    0    0    0    0 -0.00000000000E+00 -0.00000000000E+00 -0.45593999997E+02  0.45594000000E+02  0.51100000000E-03 0.  1.
    9900012    2    1    2    0    0  0.10216224946E+02  0.22607660906E+02  0.20031037285E+02  0.59301952291E+02  0.50000015070E+02 0.  0.
        -12    1    1    2    0    0 -0.10216224946E+02 -0.22607660906E+02 -0.20031037285E+02  0.31886047709E+02  0.00000000000E+00 0.  1.
         11    1    3    3    0    0  0.15272771888E+02  0.14458550812E+02  0.30544686892E+02  0.37084837203E+02  0.51100000000E-03 0. -1.
        -11    1    3    3    0    0 -0.80627118987E+01  0.28795955428E+01  0.15623377356E+01  0.87028899288E+01  0.51100000000E-03 0.  1.
        -12    1    3    3    0    0  0.30061649569E+01  0.52695145513E+01 -0.12075987343E+02  0.13514225160E+02  0.00000000000E+00 0.  1.
</event>
<event>
 7    1  0.3802554E-013  0.5930202E+02  0.7816164E-02  0.1266604E+00
        -11   -1    0    0    0    0  0.00000000000E+00  0.00000000000E+00  0.45593999997E+02  0.45594000000E+02  0.51100000000E-03 0. -1.
         11   -1    0    0    0    0 -0.00000000000E+00 -0.00000000000E+00 -0.45593999997E+02  0.45594000000E+02  0.51100000000E-03 0.  1.
    9900012    2    1    2    0    0  0.13160498879E+02 -0.84410840455E+01  0.27789656804E+02  0.59302021014E+02  0.50000140405E+02 0.  0.
        -12    1    1    2    0    0 -0.13160498879E+02  0.84410840455E+01 -0.27789656804E+02  0.31885978986E+02  0.00000000000E+00 0.  1.
         11    1    3    3    0    0  0.11435628180E+02 -0.35693661657E+01  0.12647422969E+02  0.17420426938E+02  0.51100000000E-03 0. -1.
        -11    1    3    3    0    0  0.83470818044E+01 -0.13746730167E+02 -0.66768549643E+01  0.17413407403E+02  0.51100000000E-03 0.  1.
         12    1    3    3    0    0 -0.66222111054E+01  0.88750122868E+01  0.21819088799E+02  0.24468186673E+02  0.00000000000E+00 0. -1.
</event>
<event>
 7    1  0.3802554E-013  0.5930195E+02  0.7816164E-02  0.1266605E+00
        -11   -1    0    0    0    0  0.00000000000E+00  0.00000000000E+00  0.45593999997E+02  0.45594000000E+02  0.51100000000E-03 0.  1.
         11   -1    0    0    0    0 -0.00000000000E+00 -0.00000000000E+00 -0.45593999997E+02  0.45594000000E+02  0.51100000000E-03 0. -1.
    9900012    2    1    2    0    0  0.57442249626E+00 -0.30646916364E+02 -0.87838911304E+01  0.59301949959E+02  0.50000010817E+02 0.  0.
        -12    1    1    2    0    0 -0.57442249626E+00  0.30646916364E+02  0.87838911304E+01  0.31886050041E+02  0.00000000000E+00 0.  1.
         11    1    3    3    0    0 -0.12370001164E+02 -0.13891841466E+02  0.88577337678E+01  0.20602418205E+02  0.51100000000E-03 0. -1.
        -11    1    3    3    0    0 -0.35571099363E+01 -0.69991011733E+00  0.51533381170E+01  0.63007776726E+01  0.51100000000E-03 0.  1.
        -12    1    3    3    0    0  0.16501533597E+02 -0.16055164781E+02 -0.22794963015E+02  0.32398754082E+02  0.00000000000E+00 0.  1.
</event>
<event>
 7    1  0.3802554E-013  0.5930193E+02  0.7816164E-02  0.1266605E+00
        -11   -1    0    0    0    0  0.00000000000E+00  0.00000000000E+00  0.45593999997E+02  0.45594000000E+02  0.51100000000E-03 0.  1.
         11   -1    0    0    0    0 -0.00000000000E+00 -0.00000000000E+00 -0.45593999997E+02  0.45594000000E+02  0.51100000000E-03 0. -1.
    9900012    2    1    2    0    0  0.26237330825E+02  0.44977738041E+01 -0.17552598255E+02  0.59301934023E+02  0.49999981754E+02 0.  0.
        -12    1    1    2    0    0 -0.26237330825E+02 -0.44977738041E+01  0.17552598255E+02  0.31886065977E+02  0.00000000000E+00 0.  1.
         11    1    3    3    0    0  0.13265131460E+02  0.17865835905E+02 -0.13615074675E+02  0.26086817818E+02  0.51100000000E-03 0. -1.
        -11    1    3    3    0    0  0.12475684393E+02  0.57979817788E+00  0.80150182893E+01  0.14839790613E+02  0.51100000000E-03 0.  1.
        -12    1    3    3    0    0  0.49651497216E+00 -0.13947860278E+02 -0.11952541870E+02  0.18375325592E+02  0.00000000000E+00 0.  1.
</event>
<event>
 7    1  0.3802554E-013  0.5930193E+02  0.7816164E-02  0.1266605E+00
        -11   -1    0    0    0    0  0.00000000000E+00  0.00000000000E+00  0.45593999997E+02  0.45594000000E+02  0.51100000000E-03 0.  1.
         11   -1    0    0    0    0 -0.00000000000E+00 -0.00000000000E+00 -0.45593999997E+02  0.45594000000E+02  0.51100000000E-03 0. -1.
    9900012    2    1    2    0    0  0.19457260405E+02 -0.71432468095E+01 -0.24230366051E+02  0.59301927862E+02  0.49999970517E+02 0.  0.
        -12    1    1    2    0    0 -0.19457260405E+02  0.71432468095E+01  0.24230366051E+02  0.31886072138E+02  0.00000000000E+00 0.  1.
         11    1    3    3    0    0 -0.35377311513E+01  0.18892149708E+01  0.10588007412E+02  0.11322127721E+02  0.51100000000E-03 0. -1.
        -11    1    3    3    0    0 -0.17443523594E+01  0.28905076826E+01  0.31040348765E+00  0.33903024058E+01  0.51100000000E-03 0.  1.
         12    1    3    3    0    0  0.24739343916E+02 -0.11922969463E+02 -0.35128776951E+02  0.44589497735E+02  0.00000000000E+00 0. -1.
</event>
<event>
 7    1  0.3802554E-013  0.5930194E+02  0.7816164E-02  0.1266605E+00
        -11   -1    0    0    0    0  0.00000000000E+00  0.00000000000E+00  0.45593999997E+02  0.45594000000E+02  0.51100000000E-03 0.  1.
         11   -1    0    0    0    0 -0.00000000000E+00 -0.00000000000E+00 -0.45593999997E+02  0.45594000000E+02  0.51100000000E-03 0. -1.
    9900012    2    1    2    0    0 -0.30175489418E+02 -0.90759252606E+00 -0.10263393699E+02  0.59301935081E+02  0.49999983684E+02 0.  0.
        -12    1    1    2    0    0  0.30175489418E+02  0.90759252606E+00  0.10263393699E+02  0.31886064919E+02  0.00000000000E+00 0.  1.
         11    1    3    3    0    0  0.80784698554E+01 -0.16792227855E+01 -0.57283190733E+01  0.10044655496E+02  0.51100000000E-03 0. -1.
        -11    1    3    3    0    0 -0.22949509827E+02 -0.41270751320E+01  0.11979433969E+02  0.26214873429E+02  0.51100000000E-03 0.  1.
        -12    1    3    3    0    0 -0.15304449446E+02  0.48987053914E+01 -0.16514508594E+02  0.23042406156E+02  0.00000000000E+00 0.  1.
</event>
<event>
 7    1  0.3802554E-013  0.5930194E+02  0.7816164E-02  0.1266605E+00
        -11   -1    0    0    0    0  0.00000000000E+00  0.00000000000E+00  0.45593999997E+02  0.45594000000E+02  0.51100000000E-03 0.  1.
         11   -1    0    0    0    0 -0.00000000000E+00 -0.00000000000E+00 -0.45593999997E+02  0.45594000000E+02  0.51100000000E-03 0. -1.
    9900012    2    1    2    0    0 -0.43530479680E+01 -0.30992752940E+02 -0.61008884787E+01  0.59301943460E+02  0.49999998965E+02 0.  0.
        -12    1    1    2    0    0  0.43530479680E+01  0.30992752940E+02  0.61008884787E+01  0.31886056540E+02  0.00000000000E+00 0.  1.
         11    1    3    3    0    0  0.71277032059E+01 -0.81560190940E+01  0.91189824013E+01  0.14159118643E+02  0.51100000000E-03 0. -1.
        -11    1    3    3    0    0 -0.15538229810E+02  0.34376147035E+01 -0.56769096754E+01  0.16896185493E+02  0.51100000000E-03 0.  1.
         12    1    3    3    0    0  0.40574786362E+01 -0.26274348550E+02 -0.95429612045E+01  0.28246639325E+02  0.00000000000E+00 0. -1.
</event>
<event>
 7    1  0.3802554E-013  0.5930180E+02  0.7816164E-02  0.1266605E+00
        -11   -1    0    0    0    0  0.00000000000E+00  0.00000000000E+00  0.45593999997E+02  0.45594000000E+02  0.51100000000E-03 0.  1.
         11   -1    0    0    0    0 -0.00000000000E+00 -0.00000000000E+00 -0.45593999997E+02  0.45594000000E+02  0.51100000000E-03 0. -1.
    9900012    2    1    2    0    0 -0.30042653295E+02  0.70998534580E+01 -0.79850308968E+01  0.59301801504E+02  0.49999740070E+02 0.  0.
        -12    1    1    2    0    0  0.30042653295E+02 -0.70998534580E+01  0.79850308968E+01  0.31886198496E+02  0.00000000000E+00 0.  1.
         11    1    3    3    0    0 -0.20319445255E+02  0.12467097098E+02  0.15933077224E+00  0.23839751511E+02  0.51100000000E-03 0. -1.
        -11    1    3    3    0    0  0.92926184752E+01  0.34501868248E+01  0.46035214392E+01  0.10929270660E+02  0.51100000000E-03 0.  1.
         12    1    3    3    0    0 -0.19015826515E+02 -0.88174304653E+01 -0.12747883108E+02  0.24532779333E+02  0.00000000000E+00 0. -1.
</event>
<event>
 7    1  0.3802554E-013  0.5930195E+02  0.7816164E-02  0.1266605E+00
        -11   -1    0    0    0    0  0.00000000000E+00  0.00000000000E+00  0.45593999997E+02  0.45594000000E+02  0.51100000000E-03 0.  1.
         11   -1    0    0    0    0 -0.00000000000E+00 -0.00000000000E+00 -0.45593999997E+02  0.45594000000E+02  0.51100000000E-03 0. -1.
    9900012    2    1    2    0    0 -0.33371741873E+01 -0.13672286263E+02 -0.28612100094E+02  0.59301946387E+02  0.50000004302E+02 0.  0.
        -12    1    1    2    0    0  0.33371741873E+01  0.13672286263E+02  0.28612100094E+02  0.31886053613E+02  0.00000000000E+00 0.  1.
         11    1    3    3    0    0 -0.54008018968E+01 -0.35286180987E+01 -0.50021908740E+01  0.81634380389E+01  0.51100000000E-03 0. -1.
        -11    1    3    3    0    0 -0.16932043964E+02 -0.14914202974E+02 -0.30942157272E+01  0.22775024355E+02  0.51100000000E-03 0.  1.
         12    1    3    3    0    0  0.18995671674E+02  0.47705348089E+01 -0.20515693493E+02  0.28363483993E+02  0.00000000000E+00 0. -1.
</event>
<event>
 7    1  0.3802554E-013  0.5930194E+02  0.7816164E-02  0.1266605E+00
        -11   -1    0    0    0    0  0.00000000000E+00  0.00000000000E+00  0.45593999997E+02  0.45594000000E+02  0.51100000000E-03 0.  1.
         11   -1    0    0    0    0 -0.00000000000E+00 -0.00000000000E+00 -0.45593999997E+02  0.45594000000E+02  0.51100000000E-03 0. -1.
    9900012    2    1    2    0    0  0.26461583943E+02 -0.69183598153E+01 -0.16390287371E+02  0.59301942743E+02  0.49999997657E+02 0.  0.
        -12    1    1    2    0    0 -0.26461583943E+02  0.69183598153E+01  0.16390287371E+02  0.31886057257E+02  0.00000000000E+00 0.  1.
         11    1    3    3    0    0  0.10041156715E+02 -0.23348386260E+02 -0.15200776773E+02  0.29614786575E+02  0.51100000000E-03 0. -1.
        -11    1    3    3    0    0  0.26854401729E+01 -0.14898779602E+01 -0.58738136687E+01  0.66281982872E+01  0.51100000000E-03 0.  1.
        -12    1    3    3    0    0  0.13734987055E+02  0.17919904405E+02  0.46843030706E+01  0.23058957881E+02  0.00000000000E+00 0.  1.
</event>
<event>
 7    1  0.3802554E-013  0.5930190E+02  0.7816164E-02  0.1266605E+00
        -11   -1    0    0    0    0  0.00000000000E+00  0.00000000000E+00  0.45593999997E+02  0.45594000000E+02  0.51100000000E-03 0. -1.
         11   -1    0    0    0    0 -0.00000000000E+00 -0.00000000000E+00 -0.45593999997E+02  0.45594000000E+02  0.51100000000E-03 0.  1.
    9900012    2    1    2    0    0  0.30672373221E+02 -0.14747461856E+01  0.85880131348E+01  0.59301900757E+02  0.49999921084E+02 0.  0.
        -12    1    1    2    0    0 -0.30672373221E+02  0.14747461856E+01 -0.85880131348E+01  0.31886099243E+02  0.00000000000E+00 0.  1.
         11    1    3    3    0    0  0.84103176876E+01  0.71332393688E+01  0.12844826365E+02  0.16929445121E+02  0.51100000000E-03 0. -1.
        -11    1    3    3    0    0 -0.84895334346E+01  0.26229681967E+01 -0.37118678098E+01  0.96296470858E+01  0.51100000000E-03 0.  1.
        -12    1    3    3    0    0  0.30751588968E+02 -0.11230953751E+02 -0.54494542002E+00  0.32742808550E+02  0.00000000000E+00 0.  1.
</event>
<event>
 7    1  0.3802554E-013  0.5930215E+02  0.7816164E-02  0.1266604E+00
        -11   -1    0    0    0    0  0.00000000000E+00  0.00000000000E+00  0.45593999997E+02  0.45594000000E+02  0.51100000000E-03 0. -1.
         11   -1    0    0    0    0 -0.00000000000E+00 -0.00000000000E+00 -0.45593999997E+02  0.45594000000E+02  0.51100000000E-03 0.  1.
    9900012    2    1    2    0    0  0.25299048398E+02  0.18396650173E+02 -0.61829709186E+01  0.59302145506E+02  0.50000367447E+02 0.  0.
        -12    1    1    2    0    0 -0.25299048398E+02 -0.18396650173E+02  0.61829709186E+01  0.31885854494E+02  0.00000000000E+00 0.  1.
         11    1    3    3    0    0  0.81267658420E+01  0.15912358118E+02  0.35839056301E+01  0.18223387274E+02  0.51100000000E-03 0. -1.
        -11    1    3    3    0    0 -0.63669329415E+00  0.16827893676E+02 -0.21502886584E+01  0.16976664145E+02  0.51100000000E-03 0.  1.
        -12    1    3    3    0    0  0.17808975850E+02 -0.14343601621E+02 -0.76165878903E+01  0.24102094087E+02  0.00000000000E+00 0.  1.
</event>
<event>
 7    1  0.3802554E-013  0.5930193E+02  0.7816164E-02  0.1266605E+00
        -11   -1    0    0    0    0  0.00000000000E+00  0.00000000000E+00  0.45593999997E+02  0.45594000000E+02  0.51100000000E-03 0.  1.
         11   -1    0    0    0    0 -0.00000000000E+00 -0.00000000000E+00 -0.45593999997E+02  0.45594000000E+02  0.51100000000E-03 0. -1.
    9900012    2    1    2    0    0  0.28948259985E+02 -0.23611211460E+01 -0.13158461576E+02  0.59301925292E+02  0.49999965831E+02 0.  0.
        -12    1    1    2    0    0 -0.28948259985E+02  0.23611211460E+01  0.13158461576E+02  0.31886074708E+02  0.00000000000E+00 0.  1.
         11    1    3    3    0    0  0.80045743201E+01  0.40689110042E+00 -0.49712510332E+00  0.80303115782E+01  0.51100000000E-03 0. -1.
        -11    1    3    3    0    0  0.20911305606E+02  0.16134388464E+02  0.31878823367E+01  0.26603830312E+02  0.51100000000E-03 0.  1.
        -12    1    3    3    0    0  0.32380058702E-01 -0.18902400710E+02 -0.15849218810E+02  0.24667783402E+02  0.00000000000E+00 0.  1.
</event>
<event>
 7    1  0.3802554E-013  0.5930198E+02  0.7816164E-02  0.1266605E+00
        -11   -1    0    0    0    0  0.00000000000E+00  0.00000000000E+00  0.45593999997E+02  0.45594000000E+02  0.51100000000E-03 0.  1.
         11   -1    0    0    0    0 -0.00000000000E+00 -0.00000000000E+00 -0.45593999997E+02  0.45594000000E+02  0.51100000000E-03 0. -1.
    9900012    2    1    2    0    0 -0.55709426929E+01 -0.11391294037E+02 -0.29256133153E+02  0.59301979404E+02  0.50000064519E+02 0.  0.
        -12    1    1    2    0    0  0.55709426929E+01  0.11391294037E+02  0.29256133153E+02  0.31886020596E+02  0.00000000000E+00 0.  1.
         11    1    3    3    0    0 -0.49044495596E+01 -0.11086685189E+02 -0.95119647776E+01  0.15409272798E+02  0.51100000000E-03 0. -1.
        -11    1    3    3    0    0 -0.86466274139E+01 -0.16959082858E+02 -0.36215945078E+01  0.19377579933E+02  0.51100000000E-03 0.  1.
        -12    1    3    3    0    0  0.79801342806E+01  0.16654474010E+02 -0.16122573868E+02  0.24515126673E+02  0.00000000000E+00 0.  1.
</event>
<event>
 7    1  0.3802554E-013  0.5930197E+02  0.7816164E-02  0.1266605E+00
        -11   -1    0    0    0    0  0.00000000000E+00  0.00000000000E+00  0.45593999997E+02  0.45594000000E+02  0.51100000000E-03 0.  1.
         11   -1    0    0    0    0 -0.00000000000E+00 -0.00000000000E+00 -0.45593999997E+02  0.45594000000E+02  0.51100000000E-03 0. -1.
    9900012    2    1    2    0    0  0.11842649091E+02 -0.74746209908E+00 -0.29595805760E+02  0.59301972407E+02  0.50000051757E+02 0.  0.
        -12    1    1    2    0    0 -0.11842649091E+02  0.74746209908E+00  0.29595805760E+02  0.31886027593E+02  0.00000000000E+00 0.  1.
         11    1    3    3    0    0 -0.73755984039E+01  0.14654946872E+01 -0.11709808669E+02  0.13916420008E+02  0.51100000000E-03 0. -1.
        -11    1    3    3    0    0 -0.87351439572E+01 -0.26013095175E+01  0.39291437877E+01  0.99251056581E+01  0.51100000000E-03 0.  1.
        -12    1    3    3    0    0  0.27953391452E+02  0.38835273124E+00 -0.21815140879E+02  0.35460446741E+02  0.00000000000E+00 0.  1.
</event>
<event>
 7    1  0.3802554E-013  0.5930195E+02  0.7816164E-02  0.1266605E+00
        -11   -1    0    0    0    0  0.00000000000E+00  0.00000000000E+00  0.45593999997E+02  0.45594000000E+02  0.51100000000E-03 0. -1.
         11   -1    0    0    0    0 -0.00000000000E+00 -0.00000000000E+00 -0.45593999997E+02  0.45594000000E+02  0.51100000000E-03 0.  1.
    9900012    2    1    2    0    0  0.31184664437E+02 -0.59618294711E+01  0.29484752692E+01  0.59301949553E+02  0.50000010077E+02 0.  0.
        -12    1    1    2    0    0 -0.31184664437E+02  0.59618294711E+01 -0.29484752692E+01  0.31886050447E+02  0.00000000000E+00 0.  1.
         11    1    3    3    0    0 -0.49371159846E+01 -0.67103989031E+01 -0.24882041721E+01  0.86945803778E+01  0.51100000000E-03 0. -1.
        -11    1    3    3    0    0  0.21754930292E+02  0.17166788441E+02 -0.13911904023E+01  0.27747270648E+02  0.51100000000E-03 0.  1.
         12    1    3    3    0    0  0.14366850129E+02 -0.16418219009E+02  0.68278698436E+01  0.22860098527E+02  0.00000000000E+00 0. -1.
</event>
<event>
 7    1  0.3802554E-013  0.5930194E+02  0.7816164E-02  0.1266605E+00
        -11   -1    0    0    0    0  0.00000000000E+00  0.00000000000E+00  0.45593999997E+02  0.45594000000E+02  0.51100000000E-03 0.  1.
         11   -1    0    0    0    0 -0.00000000000E+00 -0.00000000000E+00 -0.45593999997E+02  0.45594000000E+02  0.51100000000E-03 0. -1.
    9900012    2    1    2    0    0  0.12658707177E+02  0.73338848433E+01 -0.28331824101E+02  0.59301937352E+02  0.49999987825E+02 0.  0.
        -12    1    1    2    0    0 -0.12658707177E+02 -0.73338848433E+01  0.28331824101E+02  0.31886062648E+02  0.00000000000E+00 0.  1.
         11    1    3    3    0    0 -0.36529050400E+01  0.17199158900E+01 -0.27303925463E+01  0.48741019293E+01  0.51100000000E-03 0. -1.
        -11    1    3    3    0    0  0.18077231927E-01  0.21267803068E+02 -0.23562469220E+02  0.31741293769E+02  0.51100000000E-03 0.  1.
         12    1    3    3    0    0  0.16293534985E+02 -0.15653834114E+02 -0.20389623346E+01  0.22686541653E+02  0.00000000000E+00 0. -1.
</event>
<event>
 7    1  0.3802554E-013  0.5930195E+02  0.7816164E-02  0.1266605E+00
        -11   -1    0    0    0    0  0.00000000000E+00  0.00000000000E+00  0.45593999997E+02  0.45594000000E+02  0.51100000000E-03 0.  1.
         11   -1    0    0    0    0 -0.00000000000E+00 -0.00000000000E+00 -0.45593999997E+02  0.45594000000E+02  0.51100000000E-03 0. -1.
    9900012    2    1    2    0    0  0.10475279896E+02 -0.10029039927E+02 -0.28397309684E+02  0.59301947750E+02  0.50000006789E+02 0.  0.
        -12    1    1    2    0    0 -0.10475279896E+02  0.10029039927E+02  0.28397309684E+02  0.31886052250E+02  0.00000000000E+00 0.  1.
         11    1    3    3    0    0  0.13559671876E+02 -0.17217766449E+02 -0.14504650149E+02  0.26281192117E+02  0.51100000000E-03 0. -1.
        -11    1    3    3    0    0  0.12737130625E+01 -0.23706568488E+01  0.81605944025E+01  0.85928842727E+01  0.51100000000E-03 0.  1.
         12    1    3    3    0    0 -0.43581050427E+01  0.95593833702E+01 -0.22053253937E+02  0.24427871361E+02  0.00000000000E+00 0. -1.
</event>
<event>
 7    1  0.3802554E-013  0.5930195E+02  0.7816164E-02  0.1266605E+00
        -11   -1    0    0    0    0  0.00000000000E+00  0.00000000000E+00  0.45593999997E+02  0.45594000000E+02  0.51100000000E-03 0.  1.
         11   -1    0    0    0    0 -0.00000000000E+00 -0.00000000000E+00 -0.45593999997E+02  0.45594000000E+02  0.51100000000E-03 0. -1.
    9900012    2    1    2    0    0  0.25278147763E+02  0.42332032422E+01 -0.18968805132E+02  0.59301947686E+02  0.50000006673E+02 0.  0.
        -12    1    1    2    0    0 -0.25278147763E+02 -0.42332032422E+01  0.18968805132E+02  0.31886052314E+02  0.00000000000E+00 0.  1.
         11    1    3    3    0    0  0.32654176098E+01 -0.52276941323E+00 -0.70321772602E+01  0.77709560098E+01  0.51100000000E-03 0. -1.
        -11    1    3    3    0    0  0.30016717686E+02  0.16763911247E+02 -0.13665044326E+02  0.36996830913E+02  0.51100000000E-03 0.  1.
         12    1    3    3    0    0 -0.80039875329E+01 -0.12007938592E+02  0.17284164543E+01  0.14534160763E+02  0.00000000000E+00 0. -1.
</event>
<event>
 7    1  0.3802554E-013  0.5930193E+02  0.7816164E-02  0.1266605E+00
        -11   -1    0    0    0    0  0.00000000000E+00  0.00000000000E+00  0.45593999997E+02  0.45594000000E+02  0.51100000000E-03 0. -1.
         11   -1    0    0    0    0 -0.00000000000E+00 -0.00000000000E+00 -0.45593999997E+02  0.45594000000E+02  0.51100000000E-03 0.  1.
    9900012    2    1    2    0    0  0.18205516330E+01  0.22890808264E+02  0.22122793137E+02  0.59301929571E+02  0.49999973634E+02 0.  0.
        -12    1    1    2    0    0 -0.18205516330E+01 -0.22890808264E+02 -0.22122793137E+02  0.31886070429E+02  0.00000000000E+00 0.  1.
         11    1    3    3    0    0  0.16013223381E+02  0.55466611283E+01  0.13802011260E+02  0.21855989747E+02  0.51100000000E-03 0. -1.
        -11    1    3    3    0    0 -0.88256202928E+00  0.21292474893E+02  0.99572988942E-01  0.21310990541E+02  0.51100000000E-03 0.  1.
        -12    1    3    3    0    0 -0.13310109719E+02 -0.39483277566E+01  0.82212088874E+01  0.16134949283E+02  0.00000000000E+00 0.  1.
</event>
<event>
 7    1  0.3802554E-013  0.5930209E+02  0.7816164E-02  0.1266604E+00
        -11   -1    0    0    0    0  0.00000000000E+00  0.00000000000E+00  0.45593999997E+02  0.45594000000E+02  0.51100000000E-03 0. -1.
         11   -1    0    0    0    0 -0.00000000000E+00 -0.00000000000E+00 -0.45593999997E+02  0.45594000000E+02  0.51100000000E-03 0.  1.
    9900012    2    1    2    0    0 -0.21786999425E+02 -0.13763403123E+02  0.18777824370E+02  0.59302089357E+02  0.50000265045E+02 0.  0.
        -12    1    1    2    0    0  0.21786999425E+02  0.13763403123E+02 -0.18777824370E+02  0.31885910643E+02  0.00000000000E+00 0.  1.
         11    1    3    3    0    0 -0.14119068224E+01  0.74937120219E+00  0.25881630038E+01  0.30419773288E+01  0.51100000000E-03 0. -1.
        -11    1    3    3    0    0  0.26606601859E+01  0.29020252661E+01  0.25589866629E+02  0.25890966332E+02  0.51100000000E-03 0.  1.
         12    1    3    3    0    0 -0.23035752788E+02 -0.17414799592E+02 -0.94002052630E+01  0.30369145696E+02  0.00000000000E+00 0. -1.
</event>
<event>
 7    1  0.3802554E-013  0.5930195E+02  0.7816164E-02  0.1266605E+00
        -11   -1    0    0    0    0  0.00000000000E+00  0.00000000000E+00  0.45593999997E+02  0.45594000000E+02  0.51100000000E-03 0.  1.
         11   -1    0    0    0    0 -0.00000000000E+00 -0.00000000000E+00 -0.45593999997E+02  0.45594000000E+02  0.51100000000E-03 0. -1.
    9900012    2    1    2    0    0 -0.27011232981E+02 -0.12031531887E+02 -0.11931278769E+02  0.59301954780E+02  0.50000019610E+02 0.  0.
        -12    1    1    2    0    0  0.27011232981E+02  0.12031531887E+02  0.11931278769E+02  0.31886045220E+02  0.00000000000E+00 0.  1.
         11    1    3    3    0    0 -0.24717440721E+02  0.48705248187E+01 -0.89763818807E+01  0.26744145522E+02  0.51100000000E-03 0.  1.
        -11    1    3    3    0    0 -0.10810443655E+02 -0.63066564869E+01  0.82087376438E+01  0.14967397303E+02  0.51100000000E-03 0. -1.
         12    1    3    3    0    0  0.85166513946E+01 -0.10595400219E+02 -0.11163634532E+02  0.17590411955E+02  0.00000000000E+00 0. -1.
</event>
<event>
 7    1  0.3802554E-013  0.5930195E+02  0.7816164E-02  0.1266605E+00
        -11   -1    0    0    0    0  0.00000000000E+00  0.00000000000E+00  0.45593999997E+02  0.45594000000E+02  0.51100000000E-03 0. -1.
         11   -1    0    0    0    0 -0.00000000000E+00 -0.00000000000E+00 -0.45593999997E+02  0.45594000000E+02  0.51100000000E-03 0.  1.
    9900012    2    1    2    0    0  0.18331477665E+01 -0.93730609886E+01  0.30422125772E+02  0.59301946003E+02  0.50000003603E+02 0.  0.
        -12    1    1    2    0    0 -0.18331477665E+01  0.93730609886E+01 -0.30422125772E+02  0.31886053997E+02  0.00000000000E+00 0.  1.
         11    1    3    3    0    0  0.12904335252E+02 -0.13264892816E+02  0.23624480022E+02  0.30009920131E+02  0.51100000000E-03 0. -1.
        -11    1    3    3    0    0  0.32234495669E+00  0.12891888924E+02  0.71947707291E+01  0.14767174151E+02  0.51100000000E-03 0.  1.
         12    1    3    3    0    0 -0.11393532442E+02 -0.90000570964E+01 -0.39712497900E+00  0.14524851721E+02  0.00000000000E+00 0. -1.
</event>
<event>
 7    1  0.3802554E-013  0.5930193E+02  0.7816164E-02  0.1266605E+00
        -11   -1    0    0    0    0  0.00000000000E+00  0.00000000000E+00  0.45593999997E+02  0.45594000000E+02  0.51100000000E-03 0. -1.
         11   -1    0    0    0    0 -0.00000000000E+00 -0.00000000000E+00 -0.45593999997E+02  0.45594000000E+02  0.51100000000E-03 0.  1.
    9900012    2    1    2    0    0  0.11676876797E+02 -0.12123306975E+02  0.27081316791E+02  0.59301925565E+02  0.49999966329E+02 0.  0.
        -12    1    1    2    0    0 -0.11676876797E+02  0.12123306975E+02 -0.27081316791E+02  0.31886074435E+02  0.00000000000E+00 0.  1.
         11    1    3    3    0    0 -0.11092036253E+02  0.99111048807E+00  0.17872309268E+02  0.21057896549E+02  0.51100000000E-03 0. -1.
        -11    1    3    3    0    0 -0.34695004089E+01  0.40987470641E+01  0.33261631354E+01  0.63166860020E+01  0.51100000000E-03 0.  1.
        -12    1    3    3    0    0  0.26238413459E+02 -0.17213164527E+02  0.58828443872E+01  0.31927343014E+02  0.00000000000E+00 0.  1.
</event>
<event>
 7    1  0.3802554E-013  0.5930198E+02  0.7816164E-02  0.1266605E+00
        -11   -1    0    0    0    0  0.00000000000E+00  0.00000000000E+00  0.45593999997E+02  0.45594000000E+02  0.51100000000E-03 0.  1.
         11   -1    0    0    0    0 -0.00000000000E+00 -0.00000000000E+00 -0.45593999997E+02  0.45594000000E+02  0.51100000000E-03 0. -1.
    9900012    2    1    2    0    0  0.18583719642E+02  0.24437984922E+02 -0.86109623934E+01  0.59301977731E+02  0.50000061466E+02 0.  0.
        -12    1    1    2    0    0 -0.18583719642E+02 -0.24437984922E+02  0.86109623934E+01  0.31886022269E+02  0.00000000000E+00 0.  1.
         11    1    3    3    0    0 -0.47913739535E+01 -0.38392041244E+01  0.62687071033E+01  0.87745906845E+01  0.51100000000E-03 0. -1.
        -11    1    3    3    0    0  0.21343885759E+02  0.21826559906E+02  0.37035328423E+01  0.30751850878E+02  0.51100000000E-03 0.  1.
         12    1    3    3    0    0  0.20312078371E+01  0.64506291407E+01 -0.18583202339E+02  0.19775536169E+02  0.00000000000E+00 0. -1.
</event>
<event>
 7    1  0.3802554E-013  0.5930196E+02  0.7816164E-02  0.1266605E+00
        -11   -1    0    0    0    0  0.00000000000E+00  0.00000000000E+00  0.45593999997E+02  0.45594000000E+02  0.51100000000E-03 0. -1.
         11   -1    0    0    0    0 -0.00000000000E+00 -0.00000000000E+00 -0.45593999997E+02  0.45594000000E+02  0.51100000000E-03 0.  1.
    9900012    2    1    2    0    0  0.18783777947E+02  0.23114555446E+02  0.11384487834E+02  0.59301959941E+02  0.50000029022E+02 0.  0.
        -12    1    1    2    0    0 -0.18783777947E+02 -0.23114555446E+02 -0.11384487834E+02  0.31886040059E+02  0.00000000000E+00 0.  1.
         11    1    3    3    0    0  0.21017991389E+02  0.18980316368E+02 -0.49893628723E+01  0.28755905717E+02  0.51100000000E-03 0. -1.
        -11    1    3    3    0    0 -0.23062350861E+01  0.37174900399E+01 -0.64087412045E+01  0.77595371354E+01  0.51100000000E-03 0.  1.
        -12    1    3    3    0    0  0.72021643966E-01  0.41674903815E+00  0.22782591910E+02  0.22786517089E+02  0.00000000000E+00 0.  1.
</event>
<event>
 7    1  0.3802554E-013  0.5930194E+02  0.7816164E-02  0.1266605E+00
        -11   -1    0    0    0    0  0.00000000000E+00  0.00000000000E+00  0.45593999997E+02  0.45594000000E+02  0.51100000000E-03 0.  1.
         11   -1    0    0    0    0 -0.00000000000E+00 -0.00000000000E+00 -0.45593999997E+02  0.45594000000E+02  0.51100000000E-03 0. -1.
    9900012    2    1    2    0    0 -0.12167381548E+02 -0.23877545068E+02 -0.17278260198E+02  0.59301943366E+02  0.49999998793E+02 0.  0.
        -12    1    1    2    0    0  0.12167381548E+02  0.23877545068E+02  0.17278260198E+02  0.31886056634E+02  0.00000000000E+00 0.  1.
         11    1    3    3    0    0 -0.16215813651E+02 -0.15708250728E+02 -0.18159189699E+01  0.22649488189E+02  0.51100000000E-03 0. -1.
        -11    1    3    3    0    0 -0.10939257567E+02  0.30863409608E+01  0.13847935116E+01  0.11450349776E+02  0.51100000000E-03 0.  1.
         12    1    3    3    0    0  0.14987689671E+02 -0.11255635301E+02 -0.16847134740E+02  0.25202105401E+02  0.00000000000E+00 0. -1.
</event>
<event>
 7    1  0.3802554E-013  0.5930195E+02  0.7816164E-02  0.1266605E+00
        -11   -1    0    0    0    0  0.00000000000E+00  0.00000000000E+00  0.45593999997E+02  0.45594000000E+02  0.51100000000E-03 0.  1.
         11   -1    0    0    0    0 -0.00000000000E+00 -0.00000000000E+00 -0.45593999997E+02  0.45594000000E+02  0.51100000000E-03 0. -1.
    9900012    2    1    2    0    0  0.21846052612E+02  0.48360073680E+01 -0.22717471453E+02  0.59301945192E+02  0.50000002123E+02 0.  0.
        -12    1    1    2    0    0 -0.21846052612E+02 -0.48360073680E+01  0.22717471453E+02  0.31886054808E+02  0.00000000000E+00 0.  1.
         11    1    3    3    0    0 -0.79037337564E+00 -0.32105941582E+01 -0.15706628644E+01  0.36605446339E+01  0.51100000000E-03 0. -1.
        -11    1    3    3    0    0  0.37489843995E+01 -0.16104737691E+02  0.27581246854E+01  0.16763791700E+02  0.51100000000E-03 0.  1.
        -12    1    3    3    0    0  0.18887441589E+02  0.24151339217E+02 -0.23904933274E+02  0.38877608858E+02  0.00000000000E+00 0.  1.
</event>
<event>
 7    1  0.3802554E-013  0.5930192E+02  0.7816164E-02  0.1266605E+00
        -11   -1    0    0    0    0  0.00000000000E+00  0.00000000000E+00  0.45593999997E+02  0.45594000000E+02  0.51100000000E-03 0.  1.
         11   -1    0    0    0    0 -0.00000000000E+00 -0.00000000000E+00 -0.45593999997E+02  0.45594000000E+02  0.51100000000E-03 0. -1.
    9900012    2    1    2    0    0  0.15785169792E+02  0.46872640886E+01 -0.27305309210E+02  0.59301922458E+02  0.49999960661E+02 0.  0.
        -12    1    1    2    0    0 -0.15785169792E+02 -0.46872640886E+01  0.27305309210E+02  0.31886077542E+02  0.00000000000E+00 0.  1.
         11    1    3    3    0    0  0.11074892040E+02 -0.17522965278E+02 -0.22237614885E+01  0.20848325142E+02  0.51100000000E-03 0.  1.
        -11    1    3    3    0    0  0.94946202013E+01  0.45104988990E+01 -0.65532651716E+01  0.12386997124E+02  0.51100000000E-03 0. -1.
        -12    1    3    3    0    0 -0.47843424498E+01  0.17699730467E+02 -0.18528282550E+02  0.26066600191E+02  0.00000000000E+00 0.  1.
</event>
<event>
 7    1  0.3802554E-013  0.5930194E+02  0.7816164E-02  0.1266605E+00
        -11   -1    0    0    0    0  0.00000000000E+00  0.00000000000E+00  0.45593999997E+02  0.45594000000E+02  0.51100000000E-03 0. -1.
         11   -1    0    0    0    0 -0.00000000000E+00 -0.00000000000E+00 -0.45593999997E+02  0.45594000000E+02  0.51100000000E-03 0.  1.
    9900012    2    1    2    0    0 -0.16849419375E+02  0.10063189488E+02  0.25130655394E+02  0.59301944169E+02  0.50000000257E+02 0.  0.
        -12    1    1    2    0    0  0.16849419375E+02 -0.10063189488E+02 -0.25130655394E+02  0.31886055831E+02  0.00000000000E+00 0.  1.
         11    1    3    3    0    0 -0.70944010363E+01 -0.62248847902E+01  0.77358555419E+01  0.12203408456E+02  0.51100000000E-03 0. -1.
        -11    1    3    3    0    0 -0.12252347142E+02  0.15378209439E+02 -0.82451724670E+01  0.21321168010E+02  0.51100000000E-03 0.  1.
         12    1    3    3    0    0  0.24973288035E+01  0.90986483936E+00  0.25639972319E+02  0.25777367703E+02  0.00000000000E+00 0. -1.
</event>
<event>
 7    1  0.3802554E-013  0.5930199E+02  0.7816164E-02  0.1266605E+00
        -11   -1    0    0    0    0  0.00000000000E+00  0.00000000000E+00  0.45593999997E+02  0.45594000000E+02  0.51100000000E-03 0.  1.
         11   -1    0    0    0    0 -0.00000000000E+00 -0.00000000000E+00 -0.45593999997E+02  0.45594000000E+02  0.51100000000E-03 0. -1.
    9900012    2    1    2    0    0  0.76566326723E+01  0.25718552823E+02 -0.17223513938E+02  0.59301993421E+02  0.50000090081E+02 0.  0.
        -12    1    1    2    0    0 -0.76566326723E+01 -0.25718552823E+02  0.17223513938E+02  0.31886006579E+02  0.00000000000E+00 0.  1.
         11    1    3    3    0    0 -0.16310813844E+02  0.16036697017E+02  0.34219247196E+01  0.23128507702E+02  0.51100000000E-03 0. -1.
        -11    1    3    3    0    0  0.81689869576E+01  0.11161291248E+02 -0.93057667975E+01  0.16670454888E+02  0.51100000000E-03 0.  1.
        -12    1    3    3    0    0  0.15798459559E+02 -0.14794354423E+01 -0.11339671861E+02  0.19503030830E+02  0.00000000000E+00 0.  1.
</event>
<event>
 7    1  0.3802554E-013  0.5930195E+02  0.7816164E-02  0.1266605E+00
        -11   -1    0    0    0    0  0.00000000000E+00  0.00000000000E+00  0.45593999997E+02  0.45594000000E+02  0.51100000000E-03 0.  1.
         11   -1    0    0    0    0 -0.00000000000E+00 -0.00000000000E+00 -0.45593999997E+02  0.45594000000E+02  0.51100000000E-03 0. -1.
    9900012    2    1    2    0    0 -0.10442668695E+02 -0.24287861966E+02 -0.17826122583E+02  0.59301949528E+02  0.50000010031E+02 0.  0.
        -12    1    1    2    0    0  0.10442668695E+02  0.24287861966E+02  0.17826122583E+02  0.31886050472E+02  0.00000000000E+00 0.  1.
         11    1    3    3    0    0  0.38119758195E+01 -0.17547761506E+02  0.32481022811E+01  0.18248431774E+02  0.51100000000E-03 0. -1.
        -11    1    3    3    0    0  0.53457170820E+01  0.44754930574E+01  0.33964830089E+01  0.77551806116E+01  0.51100000000E-03 0.  1.
         12    1    3    3    0    0 -0.19600361596E+02 -0.11215593518E+02 -0.24470707873E+02  0.33298337143E+02  0.00000000000E+00 0. -1.
</event>
<event>
 7    1  0.3802554E-013  0.5930195E+02  0.7816164E-02  0.1266605E+00
        -11   -1    0    0    0    0  0.00000000000E+00  0.00000000000E+00  0.45593999997E+02  0.45594000000E+02  0.51100000000E-03 0.  1.
         11   -1    0    0    0    0 -0.00000000000E+00 -0.00000000000E+00 -0.45593999997E+02  0.45594000000E+02  0.51100000000E-03 0. -1.
    9900012    2    1    2    0    0  0.24948131697E+02  0.19541150971E+02 -0.35290689518E+01  0.59301950008E+02  0.50000010906E+02 0.  0.
        -12    1    1    2    0    0 -0.24948131697E+02 -0.19541150971E+02  0.35290689518E+01  0.31886049992E+02  0.00000000000E+00 0.  1.
         11    1    3    3    0    0 -0.43494514319E+01 -0.29223872850E+01 -0.13958262340E+02  0.14909432015E+02  0.51100000000E-03 0. -1.
        -11    1    3    3    0    0  0.15921651129E+02  0.17139314396E+02 -0.43119524507E+01  0.23787559918E+02  0.51100000000E-03 0.  1.
         12    1    3    3    0    0  0.13375932000E+02  0.53242238594E+01  0.14741145839E+02  0.20604958074E+02  0.00000000000E+00 0. -1.
</event>
<event>
 7    1  0.3802554E-013  0.5930195E+02  0.7816164E-02  0.1266605E+00
        -11   -1    0    0    0    0  0.00000000000E+00  0.00000000000E+00  0.45593999997E+02  0.45594000000E+02  0.51100000000E-03 0.  1.
         11   -1    0    0    0    0 -0.00000000000E+00 -0.00000000000E+00 -0.45593999997E+02  0.45594000000E+02  0.51100000000E-03 0. -1.
    9900012    2    1    2    0    0  0.27391062935E+02  0.10792541653E+02 -0.12246259861E+02  0.59301950313E+02  0.50000011464E+02 0.  0.
        -12    1    1    2    0    0 -0.27391062935E+02 -0.10792541653E+02  0.12246259861E+02  0.31886049687E+02  0.00000000000E+00 0.  1.
         11    1    3    3    0    0  0.24700119543E+02  0.10380675531E+02 -0.97808256278E+01  0.28522252368E+02  0.51100000000E-03 0.  1.
        -11    1    3    3    0    0 -0.10433745849E+02 -0.36028747411E+01  0.79053437577E+01  0.13577121162E+02  0.51100000000E-03 0. -1.
         12    1    3    3    0    0  0.13124689241E+02  0.40147408631E+01 -0.10370777991E+02  0.17202576784E+02  0.00000000000E+00 0. -1.
</event>
<event>
 7    1  0.3802554E-013  0.5930193E+02  0.7816164E-02  0.1266605E+00
        -11   -1    0    0    0    0  0.00000000000E+00  0.00000000000E+00  0.45593999997E+02  0.45594000000E+02  0.51100000000E-03 0.  1.
         11   -1    0    0    0    0 -0.00000000000E+00 -0.00000000000E+00 -0.45593999997E+02  0.45594000000E+02  0.51100000000E-03 0. -1.
    9900012    2    1    2    0    0 -0.45181004834E+01 -0.28139908194E+02 -0.14298741629E+02  0.59301926593E+02  0.49999968204E+02 0.  0.
        -12    1    1    2    0    0  0.45181004834E+01  0.28139908194E+02  0.14298741629E+02  0.31886073407E+02  0.00000000000E+00 0.  1.
         11    1    3    3    0    0 -0.56132037242E+01 -0.53101505201E+01  0.85487210348E+01  0.11523297540E+02  0.51100000000E-03 0.  1.
        -11    1    3    3    0    0  0.66879915516E+01 -0.78326051055E+00  0.73535513886E+01  0.99708297703E+01  0.51100000000E-03 0. -1.
         12    1    3    3    0    0 -0.55928883108E+01 -0.22046497163E+02 -0.30201014053E+02  0.37807799283E+02  0.00000000000E+00 0. -1.
</event>
<event>
 7    1  0.3802554E-013  0.5930190E+02  0.7816164E-02  0.1266605E+00
        -11   -1    0    0    0    0  0.00000000000E+00  0.00000000000E+00  0.45593999997E+02  0.45594000000E+02  0.51100000000E-03 0. -1.
         11   -1    0    0    0    0 -0.00000000000E+00 -0.00000000000E+00 -0.45593999997E+02  0.45594000000E+02  0.51100000000E-03 0.  1.
    9900012    2    1    2    0    0  0.55806752148E+01 -0.25155730623E+02  0.18782128749E+02  0.59301904608E+02  0.49999928107E+02 0.  0.
        -12    1    1    2    0    0 -0.55806752148E+01  0.25155730623E+02 -0.18782128749E+02  0.31886095392E+02  0.00000000000E+00 0.  1.
         11    1    3    3    0    0 -0.28632808820E+01  0.29355535571E+01  0.18341499924E+02  0.18794320201E+02  0.51100000000E-03 0. -1.
        -11    1    3    3    0    0  0.31342279507E+01  0.26994506407E+01  0.74174901252E+01  0.84929134358E+01  0.51100000000E-03 0.  1.
        -12    1    3    3    0    0  0.53097281461E+01 -0.30790734820E+02 -0.69768613002E+01  0.32014670971E+02  0.00000000000E+00 0.  1.
</event>
<event>
 7    1  0.3802554E-013  0.5930198E+02  0.7816164E-02  0.1266605E+00
        -11   -1    0    0    0    0  0.00000000000E+00  0.00000000000E+00  0.45593999997E+02  0.45594000000E+02  0.51100000000E-03 0.  1.
         11   -1    0    0    0    0 -0.00000000000E+00 -0.00000000000E+00 -0.45593999997E+02  0.45594000000E+02  0.51100000000E-03 0. -1.
    9900012    2    1    2    0    0  0.78615578698E+01 -0.22733876464E+02 -0.20930479771E+02  0.59301980890E+02  0.50000067227E+02 0.  0.
        -12    1    1    2    0    0 -0.78615578698E+01  0.22733876464E+02  0.20930479771E+02  0.31886019110E+02  0.00000000000E+00 0.  1.
         11    1    3    3    0    0  0.74580850982E+01 -0.49169423675E+01 -0.24692278880E+02  0.26258484193E+02  0.51100000000E-03 0. -1.
        -11    1    3    3    0    0  0.40759870532E+01 -0.40231021565E+01 -0.11066805063E+02  0.12460866582E+02  0.51100000000E-03 0.  1.
        -12    1    3    3    0    0 -0.36725142817E+01 -0.13793831940E+02  0.14828604171E+02  0.20582630114E+02  0.00000000000E+00 0.  1.
</event>
<event>
 7    1  0.3802554E-013  0.5930194E+02  0.7816164E-02  0.1266605E+00
        -11   -1    0    0    0    0  0.00000000000E+00  0.00000000000E+00  0.45593999997E+02  0.45594000000E+02  0.51100000000E-03 0.  1.
         11   -1    0    0    0    0 -0.00000000000E+00 -0.00000000000E+00 -0.45593999997E+02  0.45594000000E+02  0.51100000000E-03 0. -1.
    9900012    2    1    2    0    0 -0.53067901945E+01  0.12924987798E+02 -0.28661882717E+02  0.59301939524E+02  0.49999991787E+02 0.  0.
        -12    1    1    2    0    0  0.53067901945E+01 -0.12924987798E+02  0.28661882717E+02  0.31886060476E+02  0.00000000000E+00 0.  1.
         11    1    3    3    0    0 -0.23541424104E+02  0.13286010415E+02 -0.12462849986E+02  0.29766413147E+02  0.51100000000E-03 0. -1.
        -11    1    3    3    0    0  0.66282356880E+01  0.79775685986E+01 -0.75786396364E+01  0.12845656390E+02  0.51100000000E-03 0.  1.
        -12    1    3    3    0    0  0.11606398221E+02 -0.83385912148E+01 -0.86203930945E+01  0.16689869988E+02  0.00000000000E+00 0.  1.
</event>
<event>
 7    1  0.3802554E-013  0.5930193E+02  0.7816164E-02  0.1266605E+00
        -11   -1    0    0    0    0  0.00000000000E+00  0.00000000000E+00  0.45593999997E+02  0.45594000000E+02  0.51100000000E-03 0.  1.
         11   -1    0    0    0    0 -0.00000000000E+00 -0.00000000000E+00 -0.45593999997E+02  0.45594000000E+02  0.51100000000E-03 0. -1.
    9900012    2    1    2    0    0 -0.23430791835E+02  0.11955727057E+02 -0.18021646064E+02  0.59301934982E+02  0.49999983502E+02 0.  0.
        -12    1    1    2    0    0  0.23430791835E+02 -0.11955727057E+02  0.18021646064E+02  0.31886065018E+02  0.00000000000E+00 0.  1.
         11    1    3    3    0    0  0.98536462578E+01  0.14025386691E+02 -0.12772333637E+02  0.21376115718E+02  0.51100000000E-03 0. -1.
        -11    1    3    3    0    0  0.12193510080E+01  0.24726821805E+01 -0.27616159406E+00  0.27707831986E+01  0.51100000000E-03 0.  1.
         12    1    3    3    0    0 -0.34503789101E+02 -0.45423418145E+01 -0.49731508328E+01  0.35155036065E+02  0.00000000000E+00 0. -1.
</event>
<event>
 7    1  0.3802554E-013  0.5930188E+02  0.7816164E-02  0.1266605E+00
        -11   -1    0    0    0    0  0.00000000000E+00  0.00000000000E+00  0.45593999997E+02  0.45594000000E+02  0.51100000000E-03 0. -1.
         11   -1    0    0    0    0 -0.00000000000E+00 -0.00000000000E+00 -0.45593999997E+02  0.45594000000E+02  0.51100000000E-03 0.  1.
    9900012    2    1    2    0    0  0.42319754401E+01  0.31602887490E+02 -0.26941003145E+00  0.59301879264E+02  0.49999881887E+02 0.  0.
        -12    1    1    2    0    0 -0.42319754401E+01 -0.31602887490E+02  0.26941003145E+00  0.31886120736E+02  0.00000000000E+00 0.  1.
         11    1    3    3    0    0  0.37570710408E+01  0.33865888722E+02  0.14613818962E+02  0.37075297796E+02  0.51100000000E-03 0. -1.
        -11    1    3    3    0    0 -0.16603915779E+01  0.61088647732E+01 -0.11134913349E+02  0.12808646476E+02  0.51100000000E-03 0.  1.
        -12    1    3    3    0    0  0.21352959772E+01 -0.83718660058E+01 -0.37483156452E+01  0.94179349916E+01  0.00000000000E+00 0.  1.
</event>
<event>
 7    1  0.3802554E-013  0.5930198E+02  0.7816164E-02  0.1266605E+00
        -11   -1    0    0    0    0  0.00000000000E+00  0.00000000000E+00  0.45593999997E+02  0.45594000000E+02  0.51100000000E-03 0.  1.
         11   -1    0    0    0    0 -0.00000000000E+00 -0.00000000000E+00 -0.45593999997E+02  0.45594000000E+02  0.51100000000E-03 0. -1.
    9900012    2    1    2    0    0  0.10225679539E+02 -0.26900726935E+01 -0.30081839381E+02  0.59301983101E+02  0.50000071260E+02 0.  0.
        -12    1    1    2    0    0 -0.10225679539E+02  0.26900726935E+01  0.30081839381E+02  0.31886016899E+02  0.00000000000E+00 0.  1.
         11    1    3    3    0    0  0.34653203378E+01  0.86540202262E+01 -0.31314767151E+01  0.98339543316E+01  0.51100000000E-03 0. -1.
        -11    1    3    3    0    0  0.21791161637E+02 -0.10767431229E+02 -0.23963063517E+02  0.34132399771E+02  0.51100000000E-03 0.  1.
         12    1    3    3    0    0 -0.15030802436E+02 -0.57666169068E+00 -0.29872991494E+01  0.15335628999E+02  0.00000000000E+00 0. -1.
</event>
<event>
 7    1  0.3802554E-013  0.5930195E+02  0.7816164E-02  0.1266605E+00
        -11   -1    0    0    0    0  0.00000000000E+00  0.00000000000E+00  0.45593999997E+02  0.45594000000E+02  0.51100000000E-03 0. -1.
         11   -1    0    0    0    0 -0.00000000000E+00 -0.00000000000E+00 -0.45593999997E+02  0.45594000000E+02  0.51100000000E-03 0.  1.
    9900012    2    1    2    0    0 -0.26082419337E+02 -0.17209145437E+02  0.63460969169E+01  0.59301949269E+02  0.50000009559E+02 0.  0.
        -12    1    1    2    0    0  0.26082419337E+02  0.17209145437E+02 -0.63460969169E+01  0.31886050731E+02  0.00000000000E+00 0.  1.
         11    1    3    3    0    0 -0.20332005421E+02  0.21483110377E+01  0.10045153971E+02  0.22779613766E+02  0.51100000000E-03 0. -1.
        -11    1    3    3    0    0  0.36009515851E+01 -0.46947510482E+01  0.11817251850E+02  0.13215709639E+02  0.51100000000E-03 0.  1.
        -12    1    3    3    0    0 -0.93513655010E+01 -0.14662705426E+02 -0.15516308904E+02  0.23306625864E+02  0.00000000000E+00 0.  1.
</event>
<event>
 7    1  0.3802554E-013  0.5930194E+02  0.7816164E-02  0.1266605E+00
        -11   -1    0    0    0    0  0.00000000000E+00  0.00000000000E+00  0.45593999997E+02  0.45594000000E+02  0.51100000000E-03 0. -1.
         11   -1    0    0    0    0 -0.00000000000E+00 -0.00000000000E+00 -0.45593999997E+02  0.45594000000E+02  0.51100000000E-03 0.  1.
    9900012    2    1    2    0    0 -0.30190921266E+02  0.36462658674E+01  0.95881982352E+01  0.59301944630E+02  0.50000001099E+02 0.  0.
        -12    1    1    2    0    0  0.30190921266E+02 -0.36462658674E+01 -0.95881982352E+01  0.31886055370E+02  0.00000000000E+00 0.  1.
         11    1    3    3    0    0 -0.11476493450E+00  0.49498630350E+01  0.19102879929E+02  0.19734090729E+02  0.51100000000E-03 0. -1.
        -11    1    3    3    0    0  0.19449689474E+01 -0.32496865495E+01 -0.62685856810E+01  0.73238332571E+01  0.51100000000E-03 0.  1.
        -12    1    3    3    0    0 -0.32021125279E+02  0.19460893819E+01 -0.32460960126E+01  0.32244020644E+02  0.00000000000E+00 0.  1.
</event>
<event>
 7    1  0.3802554E-013  0.5930199E+02  0.7816164E-02  0.1266605E+00
        -11   -1    0    0    0    0  0.00000000000E+00  0.00000000000E+00  0.45593999997E+02  0.45594000000E+02  0.51100000000E-03 0.  1.
         11   -1    0    0    0    0 -0.00000000000E+00 -0.00000000000E+00 -0.45593999997E+02  0.45594000000E+02  0.51100000000E-03 0. -1.
    9900012    2    1    2    0    0  0.22469816267E+02  0.22126718114E+02  0.47152443794E+01  0.59301986967E+02  0.50000078311E+02 0.  0.
        -12    1    1    2    0    0 -0.22469816267E+02 -0.22126718114E+02 -0.47152443794E+01  0.31886013033E+02  0.00000000000E+00 0.  1.
         11    1    3    3    0    0  0.80082242833E+01  0.18883204229E+00  0.80835512588E+01  0.11380295028E+02  0.51100000000E-03 0. -1.
        -11    1    3    3    0    0 -0.36969997524E+01  0.24776767758E+02  0.80160248747E+01  0.26302332269E+02  0.51100000000E-03 0.  1.
         12    1    3    3    0    0  0.18158591736E+02 -0.28388816863E+01 -0.11384331754E+02  0.21619359670E+02  0.00000000000E+00 0. -1.
</event>
<event>
 7    1  0.3802554E-013  0.5930185E+02  0.7816164E-02  0.1266605E+00
        -11   -1    0    0    0    0  0.00000000000E+00  0.00000000000E+00  0.45593999997E+02  0.45594000000E+02  0.51100000000E-03 0.  1.
         11   -1    0    0    0    0 -0.00000000000E+00 -0.00000000000E+00 -0.45593999997E+02  0.45594000000E+02  0.51100000000E-03 0. -1.
    9900012    2    1    2    0    0 -0.29245765671E+02  0.11585087469E+02  0.52151228077E+01  0.59301849915E+02  0.49999828360E+02 0.  0.
        -12    1    1    2    0    0  0.29245765671E+02 -0.11585087469E+02 -0.52151228077E+01  0.31886150085E+02  0.00000000000E+00 0.  1.
         11    1    3    3    0    0 -0.48426077942E+01  0.29108757062E+01 -0.21419205579E+01  0.60425054045E+01  0.51100000000E-03 0. -1.
        -11    1    3    3    0    0 -0.16266195219E+02 -0.64068538647E+01 -0.16397441681E+02  0.23969000340E+02  0.51100000000E-03 0.  1.
        -12    1    3    3    0    0 -0.81369626577E+01  0.15081065627E+02  0.23754485047E+02  0.29290344170E+02  0.00000000000E+00 0.  1.
</event>
<event>
 7    1  0.3802554E-013  0.5930194E+02  0.7816164E-02  0.1266605E+00
        -11   -1    0    0    0    0  0.00000000000E+00  0.00000000000E+00  0.45593999997E+02  0.45594000000E+02  0.51100000000E-03 0.  1.
         11   -1    0    0    0    0 -0.00000000000E+00 -0.00000000000E+00 -0.45593999997E+02  0.45594000000E+02  0.51100000000E-03 0. -1.
    9900012    2    1    2    0    0 -0.23850571707E+02 -0.55388395837E+01 -0.20425285809E+02  0.59301940114E+02  0.49999992862E+02 0.  0.
        -12    1    1    2    0    0  0.23850571707E+02  0.55388395837E+01  0.20425285809E+02  0.31886059886E+02  0.00000000000E+00 0.  1.
         11    1    3    3    0    0 -0.20257595942E+02  0.72271375305E+01 -0.11482138038E+02  0.24381164952E+02  0.51100000000E-03 0. -1.
        -11    1    3    3    0    0  0.96856360818E+00 -0.21636279132E+01 -0.19280881901E+02  0.19426060031E+02  0.51100000000E-03 0.  1.
        -12    1    3    3    0    0 -0.45615393733E+01 -0.10602349201E+02  0.10337734130E+02  0.15494715130E+02  0.00000000000E+00 0.  1.
</event>
<event>
 7    1  0.3802554E-013  0.5930197E+02  0.7816164E-02  0.1266605E+00
        -11   -1    0    0    0    0  0.00000000000E+00  0.00000000000E+00  0.45593999997E+02  0.45594000000E+02  0.51100000000E-03 0.  1.
         11   -1    0    0    0    0 -0.00000000000E+00 -0.00000000000E+00 -0.45593999997E+02  0.45594000000E+02  0.51100000000E-03 0. -1.
    9900012    2    1    2    0    0 -0.23838400335E+02  0.21170176701E+02 -0.52262658240E+00  0.59301970918E+02  0.50000049041E+02 0.  0.
        -12    1    1    2    0    0  0.23838400335E+02 -0.21170176701E+02  0.52262658240E+00  0.31886029082E+02  0.00000000000E+00 0.  1.
         11    1    3    3    0    0 -0.87949125390E+01  0.48646658657E+01 -0.13516740348E+02  0.16843922656E+02  0.51100000000E-03 0. -1.
        -11    1    3    3    0    0 -0.67759728113E+01  0.20888505172E+02 -0.46447971207E+01  0.22445881503E+02  0.51100000000E-03 0.  1.
        -12    1    3    3    0    0 -0.82675149850E+01 -0.45829943370E+01  0.17638910886E+02  0.20012166759E+02  0.00000000000E+00 0.  1.
</event>
<event>
 7    1  0.3802554E-013  0.5930194E+02  0.7816164E-02  0.1266605E+00
        -11   -1    0    0    0    0  0.00000000000E+00  0.00000000000E+00  0.45593999997E+02  0.45594000000E+02  0.51100000000E-03 0. -1.
         11   -1    0    0    0    0 -0.00000000000E+00 -0.00000000000E+00 -0.45593999997E+02  0.45594000000E+02  0.51100000000E-03 0.  1.
    9900012    2    1    2    0    0 -0.20723315021E+02 -0.14349101423E+02  0.19528658857E+02  0.59301936997E+02  0.49999987178E+02 0.  0.
        -12    1    1    2    0    0  0.20723315021E+02  0.14349101423E+02 -0.19528658857E+02  0.31886063003E+02  0.00000000000E+00 0.  1.
         11    1    3    3    0    0 -0.23490548682E+02 -0.19440028773E+02 -0.10088693475E+01  0.30508005731E+02  0.51100000000E-03 0. -1.
        -11    1    3    3    0    0  0.93975289636E+01 -0.95611885655E+00  0.46065807217E+01  0.10509438619E+02  0.51100000000E-03 0.  1.
        -12    1    3    3    0    0 -0.66302953026E+01  0.60470462074E+01  0.15930947483E+02  0.18284492646E+02  0.00000000000E+00 0.  1.
</event>
<event>
 7    1  0.3802554E-013  0.5930198E+02  0.7816164E-02  0.1266605E+00
        -11   -1    0    0    0    0  0.00000000000E+00  0.00000000000E+00  0.45593999997E+02  0.45594000000E+02  0.51100000000E-03 0.  1.
         11   -1    0    0    0    0 -0.00000000000E+00 -0.00000000000E+00 -0.45593999997E+02  0.45594000000E+02  0.51100000000E-03 0. -1.
    9900012    2    1    2    0    0  0.18257014150E+02  0.16177877743E+02 -0.20534754167E+02  0.59301977629E+02  0.50000061281E+02 0.  0.
        -12    1    1    2    0    0 -0.18257014150E+02 -0.16177877743E+02  0.20534754167E+02  0.31886022371E+02  0.00000000000E+00 0.  1.
         11    1    3    3    0    0  0.19227205216E+02  0.47727084398E+01  0.39246700966E+01  0.20195722366E+02  0.51100000000E-03 0. -1.
        -11    1    3    3    0    0  0.88695446425E+01 -0.13378324634E+01  0.95589396844E+00  0.90206624704E+01  0.51100000000E-03 0.  1.
         12    1    3    3    0    0 -0.98397357087E+01  0.12743001766E+02 -0.25415318232E+02  0.30085592793E+02  0.00000000000E+00 0. -1.
</event>
<event>
 7    1  0.3802554E-013  0.5930195E+02  0.7816164E-02  0.1266605E+00
        -11   -1    0    0    0    0  0.00000000000E+00  0.00000000000E+00  0.45593999997E+02  0.45594000000E+02  0.51100000000E-03 0. -1.
         11   -1    0    0    0    0 -0.00000000000E+00 -0.00000000000E+00 -0.45593999997E+02  0.45594000000E+02  0.51100000000E-03 0.  1.
    9900012    2    1    2    0    0  0.29674878848E+02  0.64585984697E+01  0.97163901364E+01  0.59301950290E+02  0.50000011421E+02 0.  0.
        -12    1    1    2    0    0 -0.29674878848E+02 -0.64585984697E+01 -0.97163901364E+01  0.31886049710E+02  0.00000000000E+00 0.  1.
         11    1    3    3    0    0  0.14759706255E+02  0.12869873640E+02  0.53535966338E+01  0.20301319500E+02  0.51100000000E-03 0. -1.
        -11    1    3    3    0    0  0.17856282799E+02  0.85209772600E+00 -0.11535950890E+02  0.21275597973E+02  0.51100000000E-03 0.  1.
        -12    1    3    3    0    0 -0.29411102059E+01 -0.72633728968E+01  0.15898744393E+02  0.17725032816E+02  0.00000000000E+00 0.  1.
</event>
<event>
 7    1  0.3802554E-013  0.5930196E+02  0.7816164E-02  0.1266605E+00
        -11   -1    0    0    0    0  0.00000000000E+00  0.00000000000E+00  0.45593999997E+02  0.45594000000E+02  0.51100000000E-03 0.  1.
         11   -1    0    0    0    0 -0.00000000000E+00 -0.00000000000E+00 -0.45593999997E+02  0.45594000000E+02  0.51100000000E-03 0. -1.
    9900012    2    1    2    0    0 -0.12096629178E+02  0.10124480353E+02 -0.27710761567E+02  0.59301955302E+02  0.50000020561E+02 0.  0.
        -12    1    1    2    0    0  0.12096629178E+02 -0.10124480353E+02  0.27710761567E+02  0.31886044698E+02  0.00000000000E+00 0.  1.
         11    1    3    3    0    0 -0.27369146958E+01 -0.99509636261E+01 -0.21237571268E+02  0.23612429201E+02  0.51100000000E-03 0. -1.
        -11    1    3    3    0    0 -0.11103272792E+02  0.67734683659E+00  0.59233948930E+01  0.12602701010E+02  0.51100000000E-03 0.  1.
        -12    1    3    3    0    0  0.17435583102E+01  0.19398097142E+02 -0.12396585192E+02  0.23086825090E+02  0.00000000000E+00 0.  1.
</event>
<event>
 7    1  0.3802554E-013  0.5930197E+02  0.7816164E-02  0.1266605E+00
        -11   -1    0    0    0    0  0.00000000000E+00  0.00000000000E+00  0.45593999997E+02  0.45594000000E+02  0.51100000000E-03 0.  1.
         11   -1    0    0    0    0 -0.00000000000E+00 -0.00000000000E+00 -0.45593999997E+02  0.45594000000E+02  0.51100000000E-03 0. -1.
    9900012    2    1    2    0    0  0.21519006601E+02 -0.51483938968E+01 -0.22959651355E+02  0.59301965516E+02  0.50000039189E+02 0.  0.
        -12    1    1    2    0    0 -0.21519006601E+02  0.51483938968E+01  0.22959651355E+02  0.31886034484E+02  0.00000000000E+00 0.  1.
         11    1    3    3    0    0  0.16923142048E+02  0.10604764451E+02 -0.13370284947E+02  0.24033690637E+02  0.51100000000E-03 0. -1.
        -11    1    3    3    0    0  0.26745515886E+01 -0.10901758767E+02 -0.20388661989E+02  0.23274430356E+02  0.51100000000E-03 0.  1.
        -12    1    3    3    0    0  0.19213129646E+01 -0.48513995809E+01  0.10799295581E+02  0.11993844523E+02  0.00000000000E+00 0.  1.
</event>
<event>
 7    1  0.3802554E-013  0.5930194E+02  0.7816164E-02  0.1266605E+00
        -11   -1    0    0    0    0  0.00000000000E+00  0.00000000000E+00  0.45593999997E+02  0.45594000000E+02  0.51100000000E-03 0. -1.
         11   -1    0    0    0    0 -0.00000000000E+00 -0.00000000000E+00 -0.45593999997E+02  0.45594000000E+02  0.51100000000E-03 0.  1.
    9900012    2    1    2    0    0 -0.36623282525E+01  0.26522193954E+01  0.31563806683E+02  0.59301940220E+02  0.49999993056E+02 0.  0.
        -12    1    1    2    0    0  0.36623282525E+01 -0.26522193954E+01 -0.31563806683E+02  0.31886059780E+02  0.00000000000E+00 0.  1.
         11    1    3    3    0    0  0.10312048649E+02  0.13438427120E+02 -0.17601784192E+01  0.17030205493E+02  0.51100000000E-03 0. -1.
        -11    1    3    3    0    0  0.30937349851E+01  0.11993431473E+01  0.46180108077E+00  0.33500568118E+01  0.51100000000E-03 0.  1.
         12    1    3    3    0    0 -0.17068111887E+02 -0.11985550872E+02  0.32862184022E+02  0.38921677915E+02  0.00000000000E+00 0. -1.
</event>
<event>
 7    1  0.3802554E-013  0.5930196E+02  0.7816164E-02  0.1266605E+00
        -11   -1    0    0    0    0  0.00000000000E+00  0.00000000000E+00  0.45593999997E+02  0.45594000000E+02  0.51100000000E-03 0.  1.
         11   -1    0    0    0    0 -0.00000000000E+00 -0.00000000000E+00 -0.45593999997E+02  0.45594000000E+02  0.51100000000E-03 0. -1.
    9900012    2    1    2    0    0  0.34975107407E+01 -0.10156851449E+02 -0.30022085037E+02  0.59301955989E+02  0.50000021814E+02 0.  0.
        -12    1    1    2    0    0 -0.34975107407E+01  0.10156851449E+02  0.30022085037E+02  0.31886044011E+02  0.00000000000E+00 0.  1.
         11    1    3    3    0    0  0.66155175359E+01 -0.15028211693E+02 -0.15563084856E+02  0.22623479605E+02  0.51100000000E-03 0. -1.
        -11    1    3    3    0    0  0.14778983279E+02  0.45960878166E+01 -0.92761774519E+01  0.18044108134E+02  0.51100000000E-03 0.  1.
        -12    1    3    3    0    0 -0.17896990074E+02  0.27527242743E+00 -0.51828227291E+01  0.18634368249E+02  0.00000000000E+00 0.  1.
</event>
<event>
 7    1  0.3802554E-013  0.5930201E+02  0.7816164E-02  0.1266605E+00
        -11   -1    0    0    0    0  0.00000000000E+00  0.00000000000E+00  0.45593999997E+02  0.45594000000E+02  0.51100000000E-03 0. -1.
         11   -1    0    0    0    0 -0.00000000000E+00 -0.00000000000E+00 -0.45593999997E+02  0.45594000000E+02  0.51100000000E-03 0.  1.
    9900012    2    1    2    0    0 -0.62837249009E+01 -0.13218433528E+02  0.28328500080E+02  0.59302014044E+02  0.50000127693E+02 0.  0.
        -12    1    1    2    0    0  0.62837249009E+01  0.13218433528E+02 -0.28328500080E+02  0.31885985956E+02  0.00000000000E+00 0.  1.
         11    1    3    3    0    0  0.36146281333E+01  0.11333651744E+01  0.35291681272E+01  0.51773623682E+01  0.51100000000E-03 0. -1.
        -11    1    3    3    0    0 -0.89455336091E+01 -0.11277827106E+02 -0.11040111872E+02  0.18141004002E+02  0.51100000000E-03 0.  1.
         12    1    3    3    0    0 -0.95281942510E+00 -0.30739715971E+01  0.35839443825E+02  0.35983647674E+02  0.00000000000E+00 0. -1.
</event>
<event>
 7    1  0.3802554E-013  0.5930190E+02  0.7816164E-02  0.1266605E+00
        -11   -1    0    0    0    0  0.00000000000E+00  0.00000000000E+00  0.45593999997E+02  0.45594000000E+02  0.51100000000E-03 0.  1.
         11   -1    0    0    0    0 -0.00000000000E+00 -0.00000000000E+00 -0.45593999997E+02  0.45594000000E+02  0.51100000000E-03 0. -1.
    9900012    2    1    2    0    0  0.22545993837E+02  0.21195840579E+02  0.76901271237E+01  0.59301897210E+02  0.49999914616E+02 0.  0.
        -12    1    1    2    0    0 -0.22545993837E+02 -0.21195840579E+02 -0.76901271237E+01  0.31886102790E+02  0.00000000000E+00 0.  1.
         11    1    3    3    0    0  0.18399744351E+02  0.34990358734E+01  0.15293170008E+02  0.24180051559E+02  0.51100000000E-03 0.  1.
        -11    1    3    3    0    0  0.68244008342E+01  0.18351262110E+02  0.65939359776E+01  0.20659652943E+02  0.51100000000E-03 0. -1.
         12    1    3    3    0    0 -0.26781513486E+01 -0.65445740482E+00 -0.14196978862E+02  0.14462192709E+02  0.00000000000E+00 0. -1.
</event>
<event>
 7    1  0.3802554E-013  0.5930194E+02  0.7816164E-02  0.1266605E+00
        -11   -1    0    0    0    0  0.00000000000E+00  0.00000000000E+00  0.45593999997E+02  0.45594000000E+02  0.51100000000E-03 0. -1.
         11   -1    0    0    0    0 -0.00000000000E+00 -0.00000000000E+00 -0.45593999997E+02  0.45594000000E+02  0.51100000000E-03 0.  1.
    9900012    2    1    2    0    0  0.26870295880E+01  0.19632193550E+02  0.24981547970E+02  0.59301938930E+02  0.49999990703E+02 0.  0.
        -12    1    1    2    0    0 -0.26870295880E+01 -0.19632193550E+02 -0.24981547970E+02  0.31886061070E+02  0.00000000000E+00 0.  1.
         11    1    3    3    0    0  0.65726623909E+01  0.12539074630E+02 -0.49209731219E+01  0.14988137316E+02  0.51100000000E-03 0. -1.
        -11    1    3    3    0    0 -0.12243396503E+02 -0.57625547919E+01  0.38245267216E+01  0.14061820670E+02  0.51100000000E-03 0.  1.
         12    1    3    3    0    0  0.83577636998E+01  0.12855673712E+02  0.26077994370E+02  0.30251980944E+02  0.00000000000E+00 0. -1.
</event>
<event>
 7    1  0.3802554E-013  0.5930201E+02  0.7816164E-02  0.1266605E+00
        -11   -1    0    0    0    0  0.00000000000E+00  0.00000000000E+00  0.45593999997E+02  0.45594000000E+02  0.51100000000E-03 0.  1.
         11   -1    0    0    0    0 -0.00000000000E+00 -0.00000000000E+00 -0.45593999997E+02  0.45594000000E+02  0.51100000000E-03 0. -1.
    9900012    2    1    2    0    0  0.43135489147E+00 -0.31742181241E+02 -0.29939947057E+01  0.59302013403E+02  0.50000126524E+02 0.  0.
        -12    1    1    2    0    0 -0.43135489147E+00  0.31742181241E+02  0.29939947057E+01  0.31885986597E+02  0.00000000000E+00 0.  1.
         11    1    3    3    0    0 -0.12534955224E+02 -0.21734798285E+02 -0.10091167096E+02  0.27043635343E+02  0.51100000000E-03 0. -1.
        -11    1    3    3    0    0  0.31727858920E+01 -0.18334577806E+02  0.38945909357E+01  0.19010290698E+02  0.51100000000E-03 0.  1.
        -12    1    3    3    0    0  0.97935242231E+01  0.83271948496E+01  0.32025814546E+01  0.13248087362E+02  0.00000000000E+00 0.  1.
</event>
<event>
 7    1  0.3802554E-013  0.5930199E+02  0.7816164E-02  0.1266605E+00
        -11   -1    0    0    0    0  0.00000000000E+00  0.00000000000E+00  0.45593999997E+02  0.45594000000E+02  0.51100000000E-03 0.  1.
         11   -1    0    0    0    0 -0.00000000000E+00 -0.00000000000E+00 -0.45593999997E+02  0.45594000000E+02  0.51100000000E-03 0. -1.
    9900012    2    1    2    0    0 -0.19324622224E+01 -0.92729516439E+01 -0.30446598518E+02  0.59301993606E+02  0.50000090419E+02 0.  0.
        -12    1    1    2    0    0  0.19324622224E+01  0.92729516439E+01  0.30446598518E+02  0.31886006394E+02  0.00000000000E+00 0.  1.
         11    1    3    3    0    0 -0.13782975123E+02 -0.10578943304E+01 -0.59749563063E+00  0.13836420959E+02  0.51100000000E-03 0. -1.
        -11    1    3    3    0    0  0.14257169544E+02  0.45159449195E+01 -0.24461934655E+01  0.15154026021E+02  0.51100000000E-03 0.  1.
         12    1    3    3    0    0 -0.24066566424E+01 -0.12731002233E+02 -0.27402909422E+02  0.30311546626E+02  0.00000000000E+00 0. -1.
</event>
<event>
 7    1  0.3802554E-013  0.5930194E+02  0.7816164E-02  0.1266605E+00
        -11   -1    0    0    0    0  0.00000000000E+00  0.00000000000E+00  0.45593999997E+02  0.45594000000E+02  0.51100000000E-03 0. -1.
         11   -1    0    0    0    0 -0.00000000000E+00 -0.00000000000E+00 -0.45593999997E+02  0.45594000000E+02  0.51100000000E-03 0.  1.
    9900012    2    1    2    0    0  0.77806606445E+01  0.31230730033E+01  0.30764083427E+02  0.59301935738E+02  0.49999984881E+02 0.  0.
        -12    1    1    2    0    0 -0.77806606445E+01 -0.31230730033E+01 -0.30764083427E+02  0.31886064262E+02  0.00000000000E+00 0.  1.
         11    1    3    3    0    0 -0.19492689832E+01  0.10335130426E+02  0.13118558848E+02  0.16814016682E+02  0.51100000000E-03 0. -1.
        -11    1    3    3    0    0  0.47923458335E+01  0.65879960591E+01 -0.89615118219E+01  0.12111026590E+02  0.51100000000E-03 0.  1.
         12    1    3    3    0    0  0.49375837942E+01 -0.13800053482E+02  0.26607036401E+02  0.30376892466E+02  0.00000000000E+00 0. -1.
</event>
<event>
 7    1  0.3802554E-013  0.5930196E+02  0.7816164E-02  0.1266605E+00
        -11   -1    0    0    0    0  0.00000000000E+00  0.00000000000E+00  0.45593999997E+02  0.45594000000E+02  0.51100000000E-03 0. -1.
         11   -1    0    0    0    0 -0.00000000000E+00 -0.00000000000E+00 -0.45593999997E+02  0.45594000000E+02  0.51100000000E-03 0.  1.
    9900012    2    1    2    0    0  0.42486141358E+01 -0.31167083032E+02  0.52231901863E+01  0.59301960695E+02  0.50000030398E+02 0.  0.
        -12    1    1    2    0    0 -0.42486141358E+01  0.31167083032E+02 -0.52231901863E+01  0.31886039305E+02  0.00000000000E+00 0.  1.
         11    1    3    3    0    0  0.11358273946E+01  0.53288215230E+01  0.63517969242E+00  0.54854257990E+01  0.51100000000E-03 0. -1.
        -11    1    3    3    0    0 -0.44040500985E+01  0.73699303323E+01  0.35741012057E+01  0.92997704306E+01  0.51100000000E-03 0.  1.
         12    1    3    3    0    0  0.75168368396E+01 -0.43865834888E+02  0.10139092882E+01  0.44516764466E+02  0.00000000000E+00 0. -1.
</event>
<event>
 7    1  0.3802554E-013  0.5930193E+02  0.7816164E-02  0.1266605E+00
        -11   -1    0    0    0    0  0.00000000000E+00  0.00000000000E+00  0.45593999997E+02  0.45594000000E+02  0.51100000000E-03 0. -1.
         11   -1    0    0    0    0 -0.00000000000E+00 -0.00000000000E+00 -0.45593999997E+02  0.45594000000E+02  0.51100000000E-03 0.  1.
    9900012    2    1    2    0    0  0.13223361777E+02 -0.37431212148E+01  0.28772435959E+02  0.59301932131E+02  0.49999978304E+02 0.  0.
        -12    1    1    2    0    0 -0.13223361777E+02  0.37431212148E+01 -0.28772435959E+02  0.31886067869E+02  0.00000000000E+00 0.  1.
         11    1    3    3    0    0  0.19434946985E+02  0.55869504971E+01  0.10417554353E+02  0.22747672829E+02  0.51100000000E-03 0. -1.
        -11    1    3    3    0    0  0.57654969032E+01 -0.11540344615E+02 -0.17797492237E+01  0.13022596359E+02  0.51100000000E-03 0.  1.
         12    1    3    3    0    0 -0.11977082112E+02  0.22102729033E+01  0.20134630830E+02  0.23531662943E+02  0.00000000000E+00 0. -1.
</event>
<event>
 7    1  0.3802554E-013  0.5930191E+02  0.7816164E-02  0.1266605E+00
        -11   -1    0    0    0    0  0.00000000000E+00  0.00000000000E+00  0.45593999997E+02  0.45594000000E+02  0.51100000000E-03 0. -1.
         11   -1    0    0    0    0 -0.00000000000E+00 -0.00000000000E+00 -0.45593999997E+02  0.45594000000E+02  0.51100000000E-03 0.  1.
    9900012    2    1    2    0    0  0.28876567534E+01 -0.66407562878E+01  0.31052932156E+02  0.59301908971E+02  0.49999936065E+02 0.  0.
        -12    1    1    2    0    0 -0.28876567534E+01  0.66407562878E+01 -0.31052932156E+02  0.31886091029E+02  0.00000000000E+00 0.  1.
         11    1    3    3    0    0  0.35187460013E+01 -0.28394507548E+01  0.12996744645E+02  0.13760793060E+02  0.51100000000E-03 0. -1.
        -11    1    3    3    0    0  0.18530562639E+02 -0.51146704344E+01  0.17998892916E+02  0.26334421425E+02  0.51100000000E-03 0.  1.
         12    1    3    3    0    0 -0.19161651886E+02  0.13133649014E+01  0.57294595189E-01  0.19206694485E+02  0.00000000000E+00 0. -1.
</event>
<event>
 7    1  0.3802554E-013  0.5930196E+02  0.7816164E-02  0.1266605E+00
        -11   -1    0    0    0    0  0.00000000000E+00  0.00000000000E+00  0.45593999997E+02  0.45594000000E+02  0.51100000000E-03 0. -1.
         11   -1    0    0    0    0 -0.00000000000E+00 -0.00000000000E+00 -0.45593999997E+02  0.45594000000E+02  0.51100000000E-03 0.  1.
    9900012    2    1    2    0    0 -0.90877127263E-01 -0.19959655061E+02  0.24866110714E+02  0.59301959938E+02  0.50000029016E+02 0.  0.
        -12    1    1    2    0    0  0.90877127263E-01  0.19959655061E+02 -0.24866110714E+02  0.31886040062E+02  0.00000000000E+00 0.  1.
         11    1    3    3    0    0 -0.10373126836E+02  0.38350334106E+01  0.11875958147E+02  0.16227988901E+02  0.51100000000E-03 0. -1.
        -11    1    3    3    0    0  0.19185366993E+02 -0.51746290235E+01  0.99142812907E+01  0.22206937338E+02  0.51100000000E-03 0.  1.
         12    1    3    3    0    0 -0.89031172846E+01 -0.18620059448E+02  0.30758712762E+01  0.20867033698E+02  0.00000000000E+00 0. -1.
</event>
<event>
 7    1  0.3802554E-013  0.5930195E+02  0.7816164E-02  0.1266605E+00
        -11   -1    0    0    0    0  0.00000000000E+00  0.00000000000E+00  0.45593999997E+02  0.45594000000E+02  0.51100000000E-03 0. -1.
         11   -1    0    0    0    0 -0.00000000000E+00 -0.00000000000E+00 -0.45593999997E+02  0.45594000000E+02  0.51100000000E-03 0.  1.
    9900012    2    1    2    0    0 -0.99167389106E+01  0.16493227126E+02  0.25423446332E+02  0.59301954854E+02  0.50000019745E+02 0.  0.
        -12    1    1    2    0    0  0.99167389106E+01 -0.16493227126E+02 -0.25423446332E+02  0.31886045146E+02  0.00000000000E+00 0.  1.
         11    1    3    3    0    0 -0.13216136488E+02 -0.43917162941E+01  0.67468916544E+01  0.15474946944E+02  0.51100000000E-03 0. -1.
        -11    1    3    3    0    0 -0.92690632261E+01  0.23319650743E+02  0.18230196221E+02  0.31017119441E+02  0.51100000000E-03 0.  1.
        -12    1    3    3    0    0  0.12568460803E+02 -0.24347073233E+01  0.44635845692E+00  0.12809888469E+02  0.00000000000E+00 0.  1.
</event>
<event>
 7    1  0.3802554E-013  0.5930193E+02  0.7816164E-02  0.1266605E+00
        -11   -1    0    0    0    0  0.00000000000E+00  0.00000000000E+00  0.45593999997E+02  0.45594000000E+02  0.51100000000E-03 0.  1.
         11   -1    0    0    0    0 -0.00000000000E+00 -0.00000000000E+00 -0.45593999997E+02  0.45594000000E+02  0.51100000000E-03 0. -1.
    9900012    2    1    2    0    0 -0.38766140578E+01 -0.15291658716E+02 -0.27710255662E+02  0.59301933581E+02  0.49999980948E+02 0.  0.
        -12    1    1    2    0    0  0.38766140578E+01  0.15291658716E+02  0.27710255662E+02  0.31886066419E+02  0.00000000000E+00 0.  1.
         11    1    3    3    0    0 -0.43521053462E+01 -0.39292519691E+00  0.62873530617E+01  0.76567630196E+01  0.51100000000E-03 0. -1.
        -11    1    3    3    0    0 -0.14612533810E+01 -0.68427299222E+01  0.69533341504E+01  0.98644346163E+01  0.51100000000E-03 0.  1.
         12    1    3    3    0    0  0.19367446694E+01 -0.80560035972E+01 -0.40950942874E+02  0.41780735945E+02  0.00000000000E+00 0. -1.
</event>
<event>
 7    1  0.3802554E-013  0.5930198E+02  0.7816164E-02  0.1266605E+00
        -11   -1    0    0    0    0  0.00000000000E+00  0.00000000000E+00  0.45593999997E+02  0.45594000000E+02  0.51100000000E-03 0.  1.
         11   -1    0    0    0    0 -0.00000000000E+00 -0.00000000000E+00 -0.45593999997E+02  0.45594000000E+02  0.51100000000E-03 0. -1.
    9900012    2    1    2    0    0  0.30428060810E+02  0.23702660425E+01 -0.92321965377E+01  0.59301976437E+02  0.50000059106E+02 0.  0.
        -12    1    1    2    0    0 -0.30428060810E+02 -0.23702660425E+01  0.92321965377E+01  0.31886023563E+02  0.00000000000E+00 0.  1.
         11    1    3    3    0    0 -0.88738433790E+01  0.47433509989E+01  0.79493342726E+01  0.12823275348E+02  0.51100000000E-03 0.  1.
        -11    1    3    3    0    0 -0.12623457072E+01 -0.22496808792E+01 -0.55279378805E+00  0.26382118899E+01  0.51100000000E-03 0. -1.
         12    1    3    3    0    0  0.40564249896E+02 -0.12340407709E+00 -0.16628737022E+02  0.43840489199E+02  0.00000000000E+00 0. -1.
</event>
<event>
 7    1  0.3802554E-013  0.5930190E+02  0.7816164E-02  0.1266605E+00
        -11   -1    0    0    0    0  0.00000000000E+00  0.00000000000E+00  0.45593999997E+02  0.45594000000E+02  0.51100000000E-03 0.  1.
         11   -1    0    0    0    0 -0.00000000000E+00 -0.00000000000E+00 -0.45593999997E+02  0.45594000000E+02  0.51100000000E-03 0. -1.
    9900012    2    1    2    0    0 -0.83225934310E+00  0.28197075008E+02 -0.14864581087E+02  0.59301898553E+02  0.49999917065E+02 0.  0.
        -12    1    1    2    0    0  0.83225934310E+00 -0.28197075008E+02  0.14864581087E+02  0.31886101447E+02  0.00000000000E+00 0.  1.
         11    1    3    3    0    0  0.54085363867E+01  0.24313206379E+01  0.36456230116E+01  0.69609017588E+01  0.51100000000E-03 0. -1.
        -11    1    3    3    0    0 -0.50495750288E+01 -0.61188280719E+01  0.76950527442E+01  0.11052244204E+02  0.51100000000E-03 0.  1.
         12    1    3    3    0    0 -0.11912207011E+01  0.31884582442E+02 -0.26205256843E+02  0.41288752590E+02  0.00000000000E+00 0. -1.
</event>
<event>
 7    1  0.3802554E-013  0.5930189E+02  0.7816164E-02  0.1266605E+00
        -11   -1    0    0    0    0  0.00000000000E+00  0.00000000000E+00  0.45593999997E+02  0.45594000000E+02  0.51100000000E-03 0.  1.
         11   -1    0    0    0    0 -0.00000000000E+00 -0.00000000000E+00 -0.45593999997E+02  0.45594000000E+02  0.51100000000E-03 0. -1.
    9900012    2    1    2    0    0 -0.61839389347E+01 -0.13520536595E+02 -0.28207764309E+02  0.59301890519E+02  0.49999902412E+02 0.  0.
        -12    1    1    2    0    0  0.61839389347E+01  0.13520536595E+02  0.28207764309E+02  0.31886109481E+02  0.00000000000E+00 0.  1.
         11    1    3    3    0    0 -0.37462829605E+01 -0.17299068025E+01  0.19682320913E+00  0.41310958840E+01  0.51100000000E-03 0. -1.
        -11    1    3    3    0    0 -0.17062241870E+02 -0.19497070358E+02 -0.47939254864E+01  0.26348388414E+02  0.51100000000E-03 0.  1.
        -12    1    3    3    0    0  0.14624585896E+02  0.77064405654E+01 -0.23610662031E+02  0.28822406221E+02  0.00000000000E+00 0.  1.
</event>
<event>
 7    1  0.3802554E-013  0.5930192E+02  0.7816164E-02  0.1266605E+00
        -11   -1    0    0    0    0  0.00000000000E+00  0.00000000000E+00  0.45593999997E+02  0.45594000000E+02  0.51100000000E-03 0.  1.
         11   -1    0    0    0    0 -0.00000000000E+00 -0.00000000000E+00 -0.45593999997E+02  0.45594000000E+02  0.51100000000E-03 0. -1.
    9900012    2    1    2    0    0  0.15214481408E+02  0.22274554053E+02 -0.17002525231E+02  0.59301920482E+02  0.49999957058E+02 0.  0.
        -12    1    1    2    0    0 -0.15214481408E+02 -0.22274554053E+02  0.17002525231E+02  0.31886079518E+02  0.00000000000E+00 0.  1.
         11    1    3    3    0    0  0.57971963391E+01  0.30459559429E+01 -0.21064411606E+01  0.68791298595E+01  0.51100000000E-03 0. -1.
        -11    1    3    3    0    0  0.21512073445E+02  0.25168407113E+02 -0.10843195890E+01  0.33126934204E+02  0.51100000000E-03 0.  1.
         12    1    3    3    0    0 -0.12094788376E+02 -0.59398090021E+01 -0.13811764481E+02  0.19295856419E+02  0.00000000000E+00 0. -1.
</event>
<event>
 7    1  0.3802554E-013  0.5930197E+02  0.7816164E-02  0.1266605E+00
        -11   -1    0    0    0    0  0.00000000000E+00  0.00000000000E+00  0.45593999997E+02  0.45594000000E+02  0.51100000000E-03 0.  1.
         11   -1    0    0    0    0 -0.00000000000E+00 -0.00000000000E+00 -0.45593999997E+02  0.45594000000E+02  0.51100000000E-03 0. -1.
    9900012    2    1    2    0    0 -0.25168231455E+02 -0.52506319482E+01 -0.18860272346E+02  0.59301970404E+02  0.50000048103E+02 0.  0.
        -12    1    1    2    0    0  0.25168231455E+02  0.52506319482E+01  0.18860272346E+02  0.31886029596E+02  0.00000000000E+00 0.  1.
         11    1    3    3    0    0 -0.25556470856E+02 -0.36203345452E+01  0.39796839216E+01  0.26116621320E+02  0.51100000000E-03 0. -1.
        -11    1    3    3    0    0  0.76288496662E+01 -0.80924020559E+00  0.14660796164E+01  0.78104805642E+01  0.51100000000E-03 0.  1.
        -12    1    3    3    0    0 -0.72406102660E+01 -0.82105719742E+00 -0.24306035884E+02  0.25374868519E+02  0.00000000000E+00 0.  1.
</event>
<event>
 7    1  0.3802554E-013  0.5930195E+02  0.7816164E-02  0.1266605E+00
        -11   -1    0    0    0    0  0.00000000000E+00  0.00000000000E+00  0.45593999997E+02  0.45594000000E+02  0.51100000000E-03 0.  1.
         11   -1    0    0    0    0 -0.00000000000E+00 -0.00000000000E+00 -0.45593999997E+02  0.45594000000E+02  0.51100000000E-03 0. -1.
    9900012    2    1    2    0    0 -0.32050946362E+01  0.79188469538E+01 -0.30720346288E+02  0.59301945921E+02  0.50000003453E+02 0.  0.
        -12    1    1    2    0    0  0.32050946362E+01 -0.79188469538E+01  0.30720346288E+02  0.31886054079E+02  0.00000000000E+00 0.  1.
         11    1    3    3    0    0 -0.18079512329E+02  0.12808713103E+02 -0.20603883607E+02  0.30256435966E+02  0.51100000000E-03 0. -1.
        -11    1    3    3    0    0 -0.29290300817E+01 -0.81983005952E+01 -0.57020654321E+01  0.10406964030E+02  0.51100000000E-03 0.  1.
         12    1    3    3    0    0  0.17803447774E+02  0.33084344456E+01 -0.44143972485E+01  0.18638545925E+02  0.00000000000E+00 0. -1.
</event>
<event>
 7    1  0.3802554E-013  0.5930196E+02  0.7816164E-02  0.1266605E+00
        -11   -1    0    0    0    0  0.00000000000E+00  0.00000000000E+00  0.45593999997E+02  0.45594000000E+02  0.51100000000E-03 0.  1.
         11   -1    0    0    0    0 -0.00000000000E+00 -0.00000000000E+00 -0.45593999997E+02  0.45594000000E+02  0.51100000000E-03 0. -1.
    9900012    2    1    2    0    0  0.18479618897E+02 -0.11941564173E+00 -0.25984786690E+02  0.59301957380E+02  0.50000024351E+02 0.  0.
        -12    1    1    2    0    0 -0.18479618897E+02  0.11941564173E+00  0.25984786690E+02  0.31886042620E+02  0.00000000000E+00 0.  1.
         11    1    3    3    0    0  0.49402976173E+01  0.12948598969E+02 -0.10795335624E+02  0.17567356868E+02  0.51100000000E-03 0. -1.
        -11    1    3    3    0    0 -0.11452581810E+02 -0.34470554436E+01 -0.31181813499E+01  0.12359889827E+02  0.51100000000E-03 0.  1.
         12    1    3    3    0    0  0.24991903089E+02 -0.96209591672E+01 -0.12071269715E+02  0.29374710685E+02  0.00000000000E+00 0. -1.
</event>
<event>
 7    1  0.3802554E-013  0.5930196E+02  0.7816164E-02  0.1266605E+00
        -11   -1    0    0    0    0  0.00000000000E+00  0.00000000000E+00  0.45593999997E+02  0.45594000000E+02  0.51100000000E-03 0.  1.
         11   -1    0    0    0    0 -0.00000000000E+00 -0.00000000000E+00 -0.45593999997E+02  0.45594000000E+02  0.51100000000E-03 0. -1.
    9900012    2    1    2    0    0  0.23897011546E+01  0.10462615711E+02 -0.30025703213E+02  0.59301955207E+02  0.50000020389E+02 0.  0.
        -12    1    1    2    0    0 -0.23897011546E+01 -0.10462615711E+02  0.30025703213E+02  0.31886044793E+02  0.00000000000E+00 0.  1.
         11    1    3    3    0    0 -0.87661212265E+01 -0.11139623106E+01  0.15076027602E+01  0.89642991768E+01  0.51100000000E-03 0. -1.
        -11    1    3    3    0    0  0.40453254791E+01 -0.10155065275E+02  0.54443755828E+00  0.10944698328E+02  0.51100000000E-03 0.  1.
         12    1    3    3    0    0  0.71104969020E+01  0.21731643296E+02 -0.32077743531E+02  0.39392957703E+02  0.00000000000E+00 0. -1.
</event>
<event>
 7    1  0.3802554E-013  0.5930194E+02  0.7816164E-02  0.1266605E+00
        -11   -1    0    0    0    0  0.00000000000E+00  0.00000000000E+00  0.45593999997E+02  0.45594000000E+02  0.51100000000E-03 0.  1.
         11   -1    0    0    0    0 -0.00000000000E+00 -0.00000000000E+00 -0.45593999997E+02  0.45594000000E+02  0.51100000000E-03 0. -1.
    9900012    2    1    2    0    0 -0.11029758410E+02  0.10516507096E+02 -0.28008358189E+02  0.59301943164E+02  0.49999998425E+02 0.  0.
        -12    1    1    2    0    0  0.11029758410E+02 -0.10516507096E+02  0.28008358189E+02  0.31886056836E+02  0.00000000000E+00 0.  1.
         11    1    3    3    0    0 -0.10667762845E+02  0.24821206866E+01 -0.10518139332E+02  0.15185300211E+02  0.51100000000E-03 0. -1.
        -11    1    3    3    0    0 -0.14005995371E+02 -0.96988392179E+01 -0.25836100011E+01  0.17231089037E+02  0.51100000000E-03 0.  1.
         12    1    3    3    0    0  0.13643999805E+02  0.17733225627E+02 -0.14906608856E+02  0.26885553917E+02  0.00000000000E+00 0. -1.
</event>
<event>
 7    1  0.3802554E-013  0.5930193E+02  0.7816164E-02  0.1266605E+00
        -11   -1    0    0    0    0  0.00000000000E+00  0.00000000000E+00  0.45593999997E+02  0.45594000000E+02  0.51100000000E-03 0.  1.
         11   -1    0    0    0    0 -0.00000000000E+00 -0.00000000000E+00 -0.45593999997E+02  0.45594000000E+02  0.51100000000E-03 0. -1.
    9900012    2    1    2    0    0 -0.18734362664E+02  0.49450329444E+00 -0.25797294894E+02  0.59301932482E+02  0.49999978943E+02 0.  0.
        -12    1    1    2    0    0  0.18734362664E+02 -0.49450329444E+00  0.25797294894E+02  0.31886067518E+02  0.00000000000E+00 0.  1.
         11    1    3    3    0    0 -0.11579932256E+02 -0.18999280805E+02 -0.20943868177E+02  0.30556719664E+02  0.51100000000E-03 0.  1.
        -11    1    3    3    0    0 -0.10459495476E+02  0.11500199412E+02 -0.10184548654E+02  0.18584419918E+02  0.51100000000E-03 0. -1.
        -12    1    3    3    0    0  0.33050650688E+01  0.79935846866E+01  0.53311219368E+01  0.10160792900E+02  0.00000000000E+00 0.  1.
</event>
<event>
 7    1  0.3802554E-013  0.5930196E+02  0.7816164E-02  0.1266605E+00
        -11   -1    0    0    0    0  0.00000000000E+00  0.00000000000E+00  0.45593999997E+02  0.45594000000E+02  0.51100000000E-03 0.  1.
         11   -1    0    0    0    0 -0.00000000000E+00 -0.00000000000E+00 -0.45593999997E+02  0.45594000000E+02  0.51100000000E-03 0. -1.
    9900012    2    1    2    0    0  0.26520124745E+02  0.11955745125E+02 -0.13056131559E+02  0.59301961844E+02  0.50000032492E+02 0.  0.
        -12    1    1    2    0    0 -0.26520124745E+02 -0.11955745125E+02  0.13056131559E+02  0.31886038156E+02  0.00000000000E+00 0.  1.
         11    1    3    3    0    0 -0.33613422711E+01 -0.65929479763E+01 -0.49884907552E+01  0.89247198924E+01  0.51100000000E-03 0. -1.
        -11    1    3    3    0    0 -0.66372337874E+01  0.10302846232E+02 -0.27871962674E+01  0.12568610747E+02  0.51100000000E-03 0.  1.
         12    1    3    3    0    0  0.36518700804E+02  0.82458468700E+01 -0.52804445367E+01  0.37808631204E+02  0.00000000000E+00 0. -1.
</event>
<event>
 7    1  0.3802554E-013  0.5930191E+02  0.7816164E-02  0.1266605E+00
        -11   -1    0    0    0    0  0.00000000000E+00  0.00000000000E+00  0.45593999997E+02  0.45594000000E+02  0.51100000000E-03 0. -1.
         11   -1    0    0    0    0 -0.00000000000E+00 -0.00000000000E+00 -0.45593999997E+02  0.45594000000E+02  0.51100000000E-03 0.  1.
    9900012    2    1    2    0    0  0.43691496868E+01 -0.19735106674E+02  0.24660880714E+02  0.59301906761E+02  0.49999932035E+02 0.  0.
        -12    1    1    2    0    0 -0.43691496868E+01  0.19735106674E+02 -0.24660880714E+02  0.31886093239E+02  0.00000000000E+00 0.  1.
         11    1    3    3    0    0 -0.44768641302E+01  0.36526923268E+01  0.72912098447E+01  0.93030218174E+01  0.51100000000E-03 0. -1.
        -11    1    3    3    0    0  0.55188390031E+01 -0.17850318730E+01 -0.12035286735E+02  0.13360091683E+02  0.51100000000E-03 0.  1.
         12    1    3    3    0    0  0.33271748138E+01 -0.21602767128E+02  0.29404957605E+02  0.36638793260E+02  0.00000000000E+00 0. -1.
</event>
<event>
 7    1  0.3802554E-013  0.5930193E+02  0.7816164E-02  0.1266605E+00
        -11   -1    0    0    0    0  0.00000000000E+00  0.00000000000E+00  0.45593999997E+02  0.45594000000E+02  0.51100000000E-03 0. -1.
         11   -1    0    0    0    0 -0.00000000000E+00 -0.00000000000E+00 -0.45593999997E+02  0.45594000000E+02  0.51100000000E-03 0.  1.
    9900012    2    1    2    0    0 -0.39918374938E+01  0.31049400249E+02  0.60598134073E+01  0.59301931554E+02  0.49999977251E+02 0.  0.
        -12    1    1    2    0    0  0.39918374938E+01 -0.31049400249E+02 -0.60598134073E+01  0.31886068446E+02  0.00000000000E+00 0.  1.
         11    1    3    3    0    0  0.92326414980E+01  0.14993274288E+02  0.11241868308E+02  0.20890656912E+02  0.51100000000E-03 0. -1.
        -11    1    3    3    0    0 -0.31829553592E+01  0.23831257848E+01  0.12970197258E+02  0.13566005694E+02  0.51100000000E-03 0.  1.
        -12    1    3    3    0    0 -0.10041523633E+02  0.13673000177E+02 -0.18152252158E+02  0.24845268948E+02  0.00000000000E+00 0.  1.
</event>
<event>
 7    1  0.3802554E-013  0.5930194E+02  0.7816164E-02  0.1266605E+00
        -11   -1    0    0    0    0  0.00000000000E+00  0.00000000000E+00  0.45593999997E+02  0.45594000000E+02  0.51100000000E-03 0. -1.
         11   -1    0    0    0    0 -0.00000000000E+00 -0.00000000000E+00 -0.45593999997E+02  0.45594000000E+02  0.51100000000E-03 0.  1.
    9900012    2    1    2    0    0 -0.26036639881E+02  0.16024359433E+02  0.90572524808E+01  0.59301944520E+02  0.50000000899E+02 0.  0.
        -12    1    1    2    0    0  0.26036639881E+02 -0.16024359433E+02 -0.90572524808E+01  0.31886055480E+02  0.00000000000E+00 0.  1.
         11    1    3    3    0    0 -0.94814617383E+01 -0.10367914077E+01  0.98518256249E+01  0.13712458624E+02  0.51100000000E-03 0. -1.
        -11    1    3    3    0    0 -0.26990945063E+02  0.21208921508E+02  0.64159667415E-01  0.34326863877E+02  0.51100000000E-03 0.  1.
        -12    1    3    3    0    0  0.10435766920E+02 -0.41477706674E+01 -0.85873281144E+00  0.11262622019E+02  0.00000000000E+00 0.  1.
</event>
<event>
 7    1  0.3802554E-013  0.5930191E+02  0.7816164E-02  0.1266605E+00
        -11   -1    0    0    0    0  0.00000000000E+00  0.00000000000E+00  0.45593999997E+02  0.45594000000E+02  0.51100000000E-03 0. -1.
         11   -1    0    0    0    0 -0.00000000000E+00 -0.00000000000E+00 -0.45593999997E+02  0.45594000000E+02  0.51100000000E-03 0.  1.
    9900012    2    1    2    0    0 -0.19649460552E+02 -0.24628507818E+02 -0.49048840138E+01  0.59301912368E+02  0.49999942260E+02 0.  0.
        -12    1    1    2    0    0  0.19649460552E+02  0.24628507818E+02  0.49048840138E+01  0.31886087632E+02  0.00000000000E+00 0.  1.
         11    1    3    3    0    0 -0.32678052325E+01 -0.16083682203E+02  0.19597941545E+01  0.16528889184E+02  0.51100000000E-03 0. -1.
        -11    1    3    3    0    0  0.14257549990E+01 -0.20598910024E+02 -0.45650529825E+01  0.21146810173E+02  0.51100000000E-03 0.  1.
         12    1    3    3    0    0 -0.17807410318E+02  0.12054084410E+02 -0.22996251858E+01  0.21626213011E+02  0.00000000000E+00 0. -1.
</event>
<event>
 7    1  0.3802554E-013  0.5930195E+02  0.7816164E-02  0.1266605E+00
        -11   -1    0    0    0    0  0.00000000000E+00  0.00000000000E+00  0.45593999997E+02  0.45594000000E+02  0.51100000000E-03 0. -1.
         11   -1    0    0    0    0 -0.00000000000E+00 -0.00000000000E+00 -0.45593999997E+02  0.45594000000E+02  0.51100000000E-03 0.  1.
    9900012    2    1    2    0    0 -0.11261034560E+02 -0.22298458535E+02 -0.19816358611E+02  0.59301949429E+02  0.50000009850E+02 0.  0.
        -12    1    1    2    0    0  0.11261034560E+02  0.22298458535E+02  0.19816358611E+02  0.31886050571E+02  0.00000000000E+00 0.  1.
         11    1    3    3    0    0  0.48608620987E+01 -0.30808683294E+01 -0.13583877822E+02  0.14752676603E+02  0.51100000000E-03 0. -1.
        -11    1    3    3    0    0  0.48912522989E+01 -0.15239614851E+02 -0.14522985235E+02  0.21612202809E+02  0.51100000000E-03 0.  1.
         12    1    3    3    0    0 -0.21013148957E+02 -0.39779753555E+01  0.82905044454E+01  0.22937070017E+02  0.00000000000E+00 0. -1.
</event>
<event>
 7    1  0.3802554E-013  0.5930194E+02  0.7816164E-02  0.1266605E+00
        -11   -1    0    0    0    0  0.00000000000E+00  0.00000000000E+00  0.45593999997E+02  0.45594000000E+02  0.51100000000E-03 0. -1.
         11   -1    0    0    0    0 -0.00000000000E+00 -0.00000000000E+00 -0.45593999997E+02  0.45594000000E+02  0.51100000000E-03 0.  1.
    9900012    2    1    2    0    0 -0.14270567061E+02  0.28091213692E+02  0.48944154724E+01  0.59301942330E+02  0.49999996904E+02 0.  0.
        -12    1    1    2    0    0  0.14270567061E+02 -0.28091213692E+02 -0.48944154724E+01  0.31886057670E+02  0.00000000000E+00 0.  1.
         11    1    3    3    0    0  0.14158029431E+01  0.20517252228E+02 -0.95060527134E+01  0.22656724728E+02  0.51100000000E-03 0. -1.
        -11    1    3    3    0    0 -0.47985474976E+01 -0.69016147412E+01 -0.52575333260E+01  0.99146356997E+01  0.51100000000E-03 0.  1.
         12    1    3    3    0    0 -0.10887822506E+02  0.14475576205E+02  0.19658001512E+02  0.26730581902E+02  0.00000000000E+00 0. -1.
</event>
<event>
 7    1  0.3802554E-013  0.5930194E+02  0.7816164E-02  0.1266605E+00
        -11   -1    0    0    0    0  0.00000000000E+00  0.00000000000E+00  0.45593999997E+02  0.45594000000E+02  0.51100000000E-03 0.  1.
         11   -1    0    0    0    0 -0.00000000000E+00 -0.00000000000E+00 -0.45593999997E+02  0.45594000000E+02  0.51100000000E-03 0. -1.
    9900012    2    1    2    0    0  0.28820435309E+02  0.96545223317E+01 -0.96381294395E+01  0.59301939849E+02  0.49999992380E+02 0.  0.
        -12    1    1    2    0    0 -0.28820435309E+02 -0.96545223317E+01  0.96381294395E+01  0.31886060151E+02  0.00000000000E+00 0.  1.
         11    1    3    3    0    0 -0.78667433795E+01  0.54072354951E+01  0.13287500081E+01  0.96379159543E+01  0.51100000000E-03 0. -1.
        -11    1    3    3    0    0  0.26026990828E+02 -0.72478734933E+01  0.47876894804E+01  0.27438256004E+02  0.51100000000E-03 0.  1.
         12    1    3    3    0    0  0.10660187860E+02  0.11495160330E+02 -0.15754568928E+02  0.22225767891E+02  0.00000000000E+00 0. -1.
</event>
<event>
 7    1  0.3802554E-013  0.5930192E+02  0.7816164E-02  0.1266605E+00
        -11   -1    0    0    0    0  0.00000000000E+00  0.00000000000E+00  0.45593999997E+02  0.45594000000E+02  0.51100000000E-03 0.  1.
         11   -1    0    0    0    0 -0.00000000000E+00 -0.00000000000E+00 -0.45593999997E+02  0.45594000000E+02  0.51100000000E-03 0. -1.
    9900012    2    1    2    0    0 -0.29828431015E+02 -0.90062752510E+01  0.67730341887E+01  0.59301917098E+02  0.49999950887E+02 0.  0.
        -12    1    1    2    0    0  0.29828431015E+02  0.90062752510E+01 -0.67730341887E+01  0.31886082902E+02  0.00000000000E+00 0.  1.
         11    1    3    3    0    0 -0.11687819163E+02 -0.54277823027E+01 -0.75520993899E+01  0.14936537181E+02  0.51100000000E-03 0. -1.
        -11    1    3    3    0    0 -0.18761756804E+02  0.22819126940E+01 -0.85495112606E+01  0.20743789118E+02  0.51100000000E-03 0.  1.
        -12    1    3    3    0    0  0.62114495191E+00 -0.58604056423E+01  0.22874644839E+02  0.23621590799E+02  0.00000000000E+00 0.  1.
</event>
<event>
 7    1  0.3802554E-013  0.5930195E+02  0.7816164E-02  0.1266605E+00
        -11   -1    0    0    0    0  0.00000000000E+00  0.00000000000E+00  0.45593999997E+02  0.45594000000E+02  0.51100000000E-03 0.  1.
         11   -1    0    0    0    0 -0.00000000000E+00 -0.00000000000E+00 -0.45593999997E+02  0.45594000000E+02  0.51100000000E-03 0. -1.
    9900012    2    1    2    0    0  0.89881711921E+01  0.17831773774E+02 -0.24858814237E+02  0.59301952540E+02  0.50000015525E+02 0.  0.
        -12    1    1    2    0    0 -0.89881711921E+01 -0.17831773774E+02  0.24858814237E+02  0.31886047460E+02  0.00000000000E+00 0.  1.
         11    1    3    3    0    0  0.80726028108E+01  0.33296083950E+01 -0.99821576748E+01  0.13262604582E+02  0.51100000000E-03 0.  1.
        -11    1    3    3    0    0  0.12210464570E+02  0.23362919521E+02 -0.14786588126E+01  0.26402800716E+02  0.51100000000E-03 0. -1.
        -12    1    3    3    0    0 -0.11294896188E+02 -0.88607541416E+01 -0.13397997750E+02  0.19636547242E+02  0.00000000000E+00 0.  1.
</event>
<event>
 7    1  0.3802554E-013  0.5930197E+02  0.7816164E-02  0.1266605E+00
        -11   -1    0    0    0    0  0.00000000000E+00  0.00000000000E+00  0.45593999997E+02  0.45594000000E+02  0.51100000000E-03 0. -1.
         11   -1    0    0    0    0 -0.00000000000E+00 -0.00000000000E+00 -0.45593999997E+02  0.45594000000E+02  0.51100000000E-03 0.  1.
    9900012    2    1    2    0    0 -0.74091467542E+01  0.11368459830E+02  0.28854487953E+02  0.59301971562E+02  0.50000050216E+02 0.  0.
        -12    1    1    2    0    0  0.74091467542E+01 -0.11368459830E+02 -0.28854487953E+02  0.31886028438E+02  0.00000000000E+00 0.  1.
         11    1    3    3    0    0 -0.87011639577E+01 -0.59796137357E+01  0.32668886859E+02  0.34332523990E+02  0.51100000000E-03 0. -1.
        -11    1    3    3    0    0 -0.39464135402E+01  0.11727333998E+02  0.49385192418E+01  0.13322669218E+02  0.51100000000E-03 0.  1.
        -12    1    3    3    0    0  0.52384307436E+01  0.56207395668E+01 -0.87529181478E+01  0.11646778354E+02  0.00000000000E+00 0.  1.
</event>
<event>
 7    1  0.3802554E-013  0.5930195E+02  0.7816164E-02  0.1266605E+00
        -11   -1    0    0    0    0  0.00000000000E+00  0.00000000000E+00  0.45593999997E+02  0.45594000000E+02  0.51100000000E-03 0. -1.
         11   -1    0    0    0    0 -0.00000000000E+00 -0.00000000000E+00 -0.45593999997E+02  0.45594000000E+02  0.51100000000E-03 0.  1.
    9900012    2    1    2    0    0  0.55184354484E+01  0.91055510218E+01  0.30055876770E+02  0.59301954186E+02  0.50000018526E+02 0.  0.
        -12    1    1    2    0    0 -0.55184354484E+01 -0.91055510218E+01 -0.30055876770E+02  0.31886045814E+02  0.00000000000E+00 0.  1.
         11    1    3    3    0    0  0.33387436526E+01  0.91406214855E+01  0.17187405127E+00  0.97328162044E+01  0.51100000000E-03 0. -1.
        -11    1    3    3    0    0  0.21637250111E+01  0.13573192442E+02 -0.29228310715E+01  0.14051910928E+02  0.51100000000E-03 0.  1.
         12    1    3    3    0    0  0.15966784634E-01 -0.13608262905E+02  0.32806833791E+02  0.35517227054E+02  0.00000000000E+00 0. -1.
</event>
<event>
 7    1  0.3802554E-013  0.5930196E+02  0.7816164E-02  0.1266605E+00
        -11   -1    0    0    0    0  0.00000000000E+00  0.00000000000E+00  0.45593999997E+02  0.45594000000E+02  0.51100000000E-03 0. -1.
         11   -1    0    0    0    0 -0.00000000000E+00 -0.00000000000E+00 -0.45593999997E+02  0.45594000000E+02  0.51100000000E-03 0.  1.
    9900012    2    1    2    0    0 -0.11668371524E+02 -0.60953041083E+01  0.29041623532E+02  0.59301960366E+02  0.50000029797E+02 0.  0.
        -12    1    1    2    0    0  0.11668371524E+02  0.60953041083E+01 -0.29041623532E+02  0.31886039634E+02  0.00000000000E+00 0.  1.
         11    1    3    3    0    0 -0.27594222422E+01  0.67912216295E+01  0.50064386265E+00  0.73474993617E+01  0.51100000000E-03 0. -1.
        -11    1    3    3    0    0 -0.13931999684E+02  0.11641604638E+02  0.94406555696E+01  0.20463468708E+02  0.51100000000E-03 0.  1.
        -12    1    3    3    0    0  0.50230504025E+01 -0.24528130375E+02  0.19100324100E+02  0.31490992296E+02  0.00000000000E+00 0.  1.
</event>
<event>
 7    1  0.3802554E-013  0.5930191E+02  0.7816164E-02  0.1266605E+00
        -11   -1    0    0    0    0  0.00000000000E+00  0.00000000000E+00  0.45593999997E+02  0.45594000000E+02  0.51100000000E-03 0.  1.
         11   -1    0    0    0    0 -0.00000000000E+00 -0.00000000000E+00 -0.45593999997E+02  0.45594000000E+02  0.51100000000E-03 0. -1.
    9900012    2    1    2    0    0  0.26037151143E+02 -0.85159927733E+01 -0.16317691691E+02  0.59301914717E+02  0.49999946545E+02 0.  0.
        -12    1    1    2    0    0 -0.26037151143E+02  0.85159927733E+01  0.16317691691E+02  0.31886085283E+02  0.00000000000E+00 0.  1.
         11    1    3    3    0    0  0.10569434236E+02 -0.18723470562E+02 -0.21225428144E+02  0.30212581652E+02  0.51100000000E-03 0. -1.
        -11    1    3    3    0    0  0.30496843105E+01 -0.30546826314E+01  0.94261618690E+01  0.10367458137E+02  0.51100000000E-03 0.  1.
        -12    1    3    3    0    0  0.12418032597E+02  0.13262160420E+02 -0.45184254157E+01  0.18721874928E+02  0.00000000000E+00 0.  1.
</event>
<event>
 7    1  0.3802554E-013  0.5930192E+02  0.7816164E-02  0.1266605E+00
        -11   -1    0    0    0    0  0.00000000000E+00  0.00000000000E+00  0.45593999997E+02  0.45594000000E+02  0.51100000000E-03 0.  1.
         11   -1    0    0    0    0 -0.00000000000E+00 -0.00000000000E+00 -0.45593999997E+02  0.45594000000E+02  0.51100000000E-03 0. -1.
    9900012    2    1    2    0    0 -0.19421125964E+02 -0.16197464870E+02 -0.19421222919E+02  0.59301923077E+02  0.49999961790E+02 0.  0.
        -12    1    1    2    0    0  0.19421125964E+02  0.16197464870E+02  0.19421222919E+02  0.31886076923E+02  0.00000000000E+00 0.  1.
         11    1    3    3    0    0  0.12338948357E+02 -0.22118088719E+01 -0.20019194670E+02  0.23620116438E+02  0.51100000000E-03 0. -1.
        -11    1    3    3    0    0 -0.11568152512E+02 -0.91573700186E+01 -0.14233861392E+01  0.14822469651E+02  0.51100000000E-03 0.  1.
        -12    1    3    3    0    0 -0.20191921809E+02 -0.48282859791E+01  0.20213578897E+01  0.20859336988E+02  0.00000000000E+00 0.  1.
</event>
<event>
 7    1  0.3802554E-013  0.5930195E+02  0.7816164E-02  0.1266605E+00
        -11   -1    0    0    0    0  0.00000000000E+00  0.00000000000E+00  0.45593999997E+02  0.45594000000E+02  0.51100000000E-03 0.  1.
         11   -1    0    0    0    0 -0.00000000000E+00 -0.00000000000E+00 -0.45593999997E+02  0.45594000000E+02  0.51100000000E-03 0. -1.
    9900012    2    1    2    0    0 -0.27680118077E+02 -0.45706150216E-01 -0.15828113446E+02  0.59301949742E+02  0.50000010421E+02 0.  0.
        -12    1    1    2    0    0  0.27680118077E+02  0.45706150216E-01  0.15828113446E+02  0.31886050258E+02  0.00000000000E+00 0.  1.
         11    1    3    3    0    0 -0.20255995471E+02 -0.29571954776E+01 -0.64307483964E+01  0.21457047393E+02  0.51100000000E-03 0. -1.
        -11    1    3    3    0    0 -0.58486147103E+01  0.50003520498E+01 -0.22865218794E+02  0.24125257416E+02  0.51100000000E-03 0.  1.
         12    1    3    3    0    0 -0.15755078956E+01 -0.20888627224E+01  0.13467853744E+02  0.13719644933E+02  0.00000000000E+00 0. -1.
</event>
<event>
 7    1  0.3802554E-013  0.5930197E+02  0.7816164E-02  0.1266605E+00
        -11   -1    0    0    0    0  0.00000000000E+00  0.00000000000E+00  0.45593999997E+02  0.45594000000E+02  0.51100000000E-03 0.  1.
         11   -1    0    0    0    0 -0.00000000000E+00 -0.00000000000E+00 -0.45593999997E+02  0.45594000000E+02  0.51100000000E-03 0. -1.
    9900012    2    1    2    0    0  0.15506318469E+02  0.24950336522E+02  0.12399755604E+02  0.59301966316E+02  0.50000040649E+02 0.  0.
        -12    1    1    2    0    0 -0.15506318469E+02 -0.24950336522E+02 -0.12399755604E+02  0.31886033684E+02  0.00000000000E+00 0.  1.
         11    1    3    3    0    0  0.28168803139E+01  0.26498844216E+02 -0.99691250660E+01  0.28451836748E+02  0.51100000000E-03 0. -1.
        -11    1    3    3    0    0 -0.31246179942E+01  0.26023656569E+01  0.84521385227E+01  0.93794557672E+01  0.51100000000E-03 0.  1.
        -12    1    3    3    0    0  0.15814056150E+02 -0.41508733504E+01  0.13916742148E+02  0.21470673801E+02  0.00000000000E+00 0.  1.
</event>
<event>
 7    1  0.3802554E-013  0.5930192E+02  0.7816164E-02  0.1266605E+00
        -11   -1    0    0    0    0  0.00000000000E+00  0.00000000000E+00  0.45593999997E+02  0.45594000000E+02  0.51100000000E-03 0.  1.
         11   -1    0    0    0    0 -0.00000000000E+00 -0.00000000000E+00 -0.45593999997E+02  0.45594000000E+02  0.51100000000E-03 0. -1.
    9900012    2    1    2    0    0 -0.21251014196E+02  0.21221110974E+02 -0.10713574128E+02  0.59301924263E+02  0.49999963953E+02 0.  0.
        -12    1    1    2    0    0  0.21251014196E+02 -0.21221110974E+02  0.10713574128E+02  0.31886075737E+02  0.00000000000E+00 0.  1.
         11    1    3    3    0    0 -0.62617809235E+01  0.84584120894E+01  0.17855378399E+02  0.20726050599E+02  0.51100000000E-03 0. -1.
        -11    1    3    3    0    0 -0.11372213926E+02  0.67914263300E+00 -0.63927131492E+01  0.13063508945E+02  0.51100000000E-03 0.  1.
         12    1    3    3    0    0 -0.36170193467E+01  0.12083556252E+02 -0.22176239377E+02  0.25512364719E+02  0.00000000000E+00 0. -1.
</event>
<event>
 7    1  0.3802554E-013  0.5930194E+02  0.7816164E-02  0.1266605E+00
        -11   -1    0    0    0    0  0.00000000000E+00  0.00000000000E+00  0.45593999997E+02  0.45594000000E+02  0.51100000000E-03 0.  1.
         11   -1    0    0    0    0 -0.00000000000E+00 -0.00000000000E+00 -0.45593999997E+02  0.45594000000E+02  0.51100000000E-03 0. -1.
    9900012    2    1    2    0    0  0.24024482430E+02 -0.19137039139E+02 -0.85626216259E+01  0.59301944864E+02  0.50000001524E+02 0.  0.
        -12    1    1    2    0    0 -0.24024482430E+02  0.19137039139E+02  0.85626216259E+01  0.31886055136E+02  0.00000000000E+00 0.  1.
         11    1    3    3    0    0  0.91977889582E+01 -0.89048075636E+01 -0.25766987180E+02  0.28772079314E+02  0.51100000000E-03 0. -1.
        -11    1    3    3    0    0  0.26729061507E+01 -0.53098311053E+01 -0.28314716977E+01  0.65845247280E+01  0.51100000000E-03 0.  1.
        -12    1    3    3    0    0  0.12153787321E+02 -0.49224004700E+01  0.20035837252E+02  0.23945340821E+02  0.00000000000E+00 0.  1.
</event>
<event>
 7    1  0.3802554E-013  0.5930197E+02  0.7816164E-02  0.1266605E+00
        -11   -1    0    0    0    0  0.00000000000E+00  0.00000000000E+00  0.45593999997E+02  0.45594000000E+02  0.51100000000E-03 0. -1.
         11   -1    0    0    0    0 -0.00000000000E+00 -0.00000000000E+00 -0.45593999997E+02  0.45594000000E+02  0.51100000000E-03 0.  1.
    9900012    2    1    2    0    0 -0.20577562968E+01  0.18255719792E+02  0.26061720819E+02  0.59301969232E+02  0.50000045966E+02 0.  0.
        -12    1    1    2    0    0  0.20577562968E+01 -0.18255719792E+02 -0.26061720819E+02  0.31886030768E+02  0.00000000000E+00 0.  1.
         11    1    3    3    0    0 -0.54382241893E+01  0.10724961812E+02  0.19462954819E+02  0.22878061516E+02  0.51100000000E-03 0. -1.
        -11    1    3    3    0    0 -0.15705421983E+02  0.18351263264E+01  0.42130859436E+01  0.16363925621E+02  0.51100000000E-03 0.  1.
        -12    1    3    3    0    0  0.19085889876E+02  0.56956316535E+01  0.23856800568E+01  0.20059982094E+02  0.00000000000E+00 0.  1.
</event>
<event>
 7    1  0.3802554E-013  0.5930196E+02  0.7816164E-02  0.1266605E+00
        -11   -1    0    0    0    0  0.00000000000E+00  0.00000000000E+00  0.45593999997E+02  0.45594000000E+02  0.51100000000E-03 0. -1.
         11   -1    0    0    0    0 -0.00000000000E+00 -0.00000000000E+00 -0.45593999997E+02  0.45594000000E+02  0.51100000000E-03 0.  1.
    9900012    2    1    2    0    0 -0.25138021169E+02  0.19604570357E+02 -0.67848911681E+00  0.59301958624E+02  0.50000026619E+02 0.  0.
        -12    1    1    2    0    0  0.25138021169E+02 -0.19604570357E+02  0.67848911681E+00  0.31886041376E+02  0.00000000000E+00 0.  1.
         11    1    3    3    0    0  0.50012785679E+01  0.68309557423E+01 -0.12263200734E+02  0.14901705814E+02  0.51100000000E-03 0. -1.
        -11    1    3    3    0    0  0.20435467162E+01 -0.13389695001E+01 -0.49827614950E+01  0.55494896054E+01  0.51100000000E-03 0.  1.
         12    1    3    3    0    0 -0.32182846453E+02  0.14112584115E+02  0.16567473112E+02  0.38850763204E+02  0.00000000000E+00 0. -1.
</event>
<event>
 7    1  0.3802554E-013  0.5930193E+02  0.7816164E-02  0.1266605E+00
        -11   -1    0    0    0    0  0.00000000000E+00  0.00000000000E+00  0.45593999997E+02  0.45594000000E+02  0.51100000000E-03 0.  1.
         11   -1    0    0    0    0 -0.00000000000E+00 -0.00000000000E+00 -0.45593999997E+02  0.45594000000E+02  0.51100000000E-03 0. -1.
    9900012    2    1    2    0    0  0.76129996431E+01 -0.22881491054E+02 -0.20861471918E+02  0.59301930832E+02  0.49999975934E+02 0.  0.
        -12    1    1    2    0    0 -0.76129996431E+01  0.22881491054E+02  0.20861471918E+02  0.31886069168E+02  0.00000000000E+00 0.  1.
         11    1    3    3    0    0  0.14845175076E+02 -0.12784578288E+01 -0.26849848019E+02  0.30707132988E+02  0.51100000000E-03 0. -1.
        -11    1    3    3    0    0  0.35594385919E+01  0.15265271377E+00 -0.77465529729E-01  0.35635525968E+01  0.51100000000E-03 0.  1.
        -12    1    3    3    0    0 -0.10791614025E+02 -0.21755685939E+02  0.60658416303E+01  0.25031245247E+02  0.00000000000E+00 0.  1.
</event>
<event>
 7    1  0.3802554E-013  0.5930194E+02  0.7816164E-02  0.1266605E+00
        -11   -1    0    0    0    0  0.00000000000E+00  0.00000000000E+00  0.45593999997E+02  0.45594000000E+02  0.51100000000E-03 0.  1.
         11   -1    0    0    0    0 -0.00000000000E+00 -0.00000000000E+00 -0.45593999997E+02  0.45594000000E+02  0.51100000000E-03 0. -1.
    9900012    2    1    2    0    0 -0.30474732149E+00  0.27822145917E+02 -0.15574206458E+02  0.59301943782E+02  0.49999999552E+02 0.  0.
        -12    1    1    2    0    0  0.30474732149E+00 -0.27822145917E+02  0.15574206458E+02  0.31886056218E+02  0.00000000000E+00 0.  1.
         11    1    3    3    0    0 -0.99536299861E+00 -0.28801818905E+00 -0.87264247232E+01  0.87877295524E+01  0.51100000000E-03 0. -1.
        -11    1    3    3    0    0  0.94853278625E+01 -0.55642151998E+00  0.11840796806E+02  0.15181749531E+02  0.51100000000E-03 0.  1.
         12    1    3    3    0    0 -0.87947121854E+01  0.28666585626E+02 -0.18688578540E+02  0.35332464699E+02  0.00000000000E+00 0. -1.
</event>
<event>
 7    1  0.3802554E-013  0.5930196E+02  0.7816164E-02  0.1266605E+00
        -11   -1    0    0    0    0  0.00000000000E+00  0.00000000000E+00  0.45593999997E+02  0.45594000000E+02  0.51100000000E-03 0. -1.
         11   -1    0    0    0    0 -0.00000000000E+00 -0.00000000000E+00 -0.45593999997E+02  0.45594000000E+02  0.51100000000E-03 0.  1.
    9900012    2    1    2    0    0 -0.27062218169E+02 -0.96324688843E+01  0.13840926759E+02  0.59301962890E+02  0.50000034400E+02 0.  0.
        -12    1    1    2    0    0  0.27062218169E+02  0.96324688843E+01 -0.13840926759E+02  0.31886037110E+02  0.00000000000E+00 0.  1.
         11    1    3    3    0    0 -0.57176496391E+01  0.46995814817E+01 -0.81856214014E+00  0.74463163871E+01  0.51100000000E-03 0. -1.
        -11    1    3    3    0    0  0.10113429362E+02 -0.28588526148E+01 -0.63940769563E+01  0.12301980008E+02  0.51100000000E-03 0.  1.
         12    1    3    3    0    0 -0.31457997891E+02 -0.11473197751E+02  0.21053565855E+02  0.39553666495E+02  0.00000000000E+00 0. -1.
</event>
<event>
 7    1  0.3802554E-013  0.5930192E+02  0.7816164E-02  0.1266605E+00
        -11   -1    0    0    0    0  0.00000000000E+00  0.00000000000E+00  0.45593999997E+02  0.45594000000E+02  0.51100000000E-03 0. -1.
         11   -1    0    0    0    0 -0.00000000000E+00 -0.00000000000E+00 -0.45593999997E+02  0.45594000000E+02  0.51100000000E-03 0.  1.
    9900012    2    1    2    0    0 -0.26827925509E+01 -0.26820288828E+02 -0.17035161823E+02  0.59301921423E+02  0.49999958774E+02 0.  0.
        -12    1    1    2    0    0  0.26827925509E+01  0.26820288828E+02  0.17035161823E+02  0.31886078577E+02  0.00000000000E+00 0.  1.
         11    1    3    3    0    0  0.11850857569E+02 -0.16205036160E+02 -0.22004629927E+02  0.29786737998E+02  0.51100000000E-03 0. -1.
        -11    1    3    3    0    0 -0.63509614763E+01 -0.44981316960E+01 -0.91977350206E+01  0.12048494935E+02  0.51100000000E-03 0.  1.
         12    1    3    3    0    0 -0.81826886433E+01 -0.61171209723E+01  0.14167203125E+02  0.17466688490E+02  0.00000000000E+00 0. -1.
</event>
<event>
 7    1  0.3802554E-013  0.5930196E+02  0.7816164E-02  0.1266605E+00
        -11   -1    0    0    0    0  0.00000000000E+00  0.00000000000E+00  0.45593999997E+02  0.45594000000E+02  0.51100000000E-03 0. -1.
         11   -1    0    0    0    0 -0.00000000000E+00 -0.00000000000E+00 -0.45593999997E+02  0.45594000000E+02  0.51100000000E-03 0.  1.
    9900012    2    1    2    0    0  0.26801518193E+02  0.68202891698E+00  0.17260743933E+02  0.59301955685E+02  0.50000021261E+02 0.  0.
        -12    1    1    2    0    0 -0.26801518193E+02 -0.68202891698E+00 -0.17260743933E+02  0.31886044315E+02  0.00000000000E+00 0.  1.
         11    1    3    3    0    0  0.89143689340E+01  0.17858997041E+02  0.50783938343E+01  0.20596112085E+02  0.51100000000E-03 0. -1.
        -11    1    3    3    0    0 -0.65896255463E+00  0.55454531516E+01 -0.22454840805E+01  0.60190099951E+01  0.51100000000E-03 0.  1.
        -12    1    3    3    0    0  0.18546111814E+02 -0.22722421276E+02  0.14427834179E+02  0.32686833605E+02  0.00000000000E+00 0.  1.
</event>
<event>
 7    1  0.3802554E-013  0.5930194E+02  0.7816164E-02  0.1266605E+00
        -11   -1    0    0    0    0  0.00000000000E+00  0.00000000000E+00  0.45593999997E+02  0.45594000000E+02  0.51100000000E-03 0. -1.
         11   -1    0    0    0    0 -0.00000000000E+00 -0.00000000000E+00 -0.45593999997E+02  0.45594000000E+02  0.51100000000E-03 0.  1.
    9900012    2    1    2    0    0  0.64481697204E+01 -0.15625318525E+02  0.27036849301E+02  0.59301942045E+02  0.49999996385E+02 0.  0.
        -12    1    1    2    0    0 -0.64481697204E+01  0.15625318525E+02 -0.27036849301E+02  0.31886057955E+02  0.00000000000E+00 0.  1.
         11    1    3    3    0    0 -0.31240426759E+01  0.99429329672E+01  0.45227464332E+01  0.11361196864E+02  0.51100000000E-03 0. -1.
        -11    1    3    3    0    0 -0.29385999825E+01  0.64317780790E+01  0.79018837034E+01  0.10603909913E+02  0.51100000000E-03 0.  1.
         12    1    3    3    0    0  0.12510812379E+02 -0.32000029571E+02  0.14612219165E+02  0.37336835268E+02  0.00000000000E+00 0. -1.
</event>
<event>
 7    1  0.3802554E-013  0.5930188E+02  0.7816164E-02  0.1266605E+00
        -11   -1    0    0    0    0  0.00000000000E+00  0.00000000000E+00  0.45593999997E+02  0.45594000000E+02  0.51100000000E-03 0.  1.
         11   -1    0    0    0    0 -0.00000000000E+00 -0.00000000000E+00 -0.45593999997E+02  0.45594000000E+02  0.51100000000E-03 0. -1.
    9900012    2    1    2    0    0  0.81548243820E+01 -0.28942609080E+02 -0.10608918391E+02  0.59301875581E+02  0.49999875169E+02 0.  0.
        -12    1    1    2    0    0 -0.81548243820E+01  0.28942609080E+02  0.10608918391E+02  0.31886124419E+02  0.00000000000E+00 0.  1.
         11    1    3    3    0    0  0.11844659892E+02 -0.25609711817E+02 -0.21680849102E+02  0.35583880133E+02  0.51100000000E-03 0. -1.
        -11    1    3    3    0    0 -0.95323456270E+01  0.83495807458E+00 -0.10547309608E+01  0.96267972763E+01  0.51100000000E-03 0.  1.
        -12    1    3    3    0    0  0.58425101171E+01 -0.41678553376E+01  0.12126661672E+02  0.14091198171E+02  0.00000000000E+00 0.  1.
</event>
<event>
 7    1  0.3802554E-013  0.5930190E+02  0.7816164E-02  0.1266605E+00
        -11   -1    0    0    0    0  0.00000000000E+00  0.00000000000E+00  0.45593999997E+02  0.45594000000E+02  0.51100000000E-03 0.  1.
         11   -1    0    0    0    0 -0.00000000000E+00 -0.00000000000E+00 -0.45593999997E+02  0.45594000000E+02  0.51100000000E-03 0. -1.
    9900012    2    1    2    0    0  0.12916839197E+02 -0.26213143555E+01 -0.29034588640E+02  0.59301900187E+02  0.49999920044E+02 0.  0.
        -12    1    1    2    0    0 -0.12916839197E+02  0.26213143555E+01  0.29034588640E+02  0.31886099813E+02  0.00000000000E+00 0.  1.
         11    1    3    3    0    0  0.86731983393E+01  0.34692666609E+01 -0.33319574419E+02  0.34604251478E+02  0.51100000000E-03 0. -1.
        -11    1    3    3    0    0  0.29528597914E+01  0.86343908426E+01 -0.55975897194E+00  0.91425060317E+01  0.51100000000E-03 0.  1.
        -12    1    3    3    0    0  0.12907810662E+01 -0.14724971859E+02  0.48447447505E+01  0.15555142677E+02  0.00000000000E+00 0.  1.
</event>
<event>
 7    1  0.3802554E-013  0.5930194E+02  0.7816164E-02  0.1266605E+00
        -11   -1    0    0    0    0  0.00000000000E+00  0.00000000000E+00  0.45593999997E+02  0.45594000000E+02  0.51100000000E-03 0.  1.
         11   -1    0    0    0    0 -0.00000000000E+00 -0.00000000000E+00 -0.45593999997E+02  0.45594000000E+02  0.51100000000E-03 0. -1.
    9900012    2    1    2    0    0  0.27200260306E+02 -0.82434822498E+01 -0.14453774729E+02  0.59301940910E+02  0.49999994315E+02 0.  0.
        -12    1    1    2    0    0 -0.27200260306E+02  0.82434822498E+01  0.14453774729E+02  0.31886059090E+02  0.00000000000E+00 0.  1.
         11    1    3    3    0    0  0.14415830040E+02 -0.15466212861E+02  0.36972316966E+00  0.21146077449E+02  0.51100000000E-03 0. -1.
        -11    1    3    3    0    0  0.21352707343E+02  0.11078591935E+02 -0.50143341549E+01  0.24572685189E+02  0.51100000000E-03 0.  1.
        -12    1    3    3    0    0 -0.85682770763E+01 -0.38558613236E+01 -0.98091637441E+01  0.13583178272E+02  0.00000000000E+00 0.  1.
</event>
<event>
 7    1  0.3802554E-013  0.5930194E+02  0.7816164E-02  0.1266605E+00
        -11   -1    0    0    0    0  0.00000000000E+00  0.00000000000E+00  0.45593999997E+02  0.45594000000E+02  0.51100000000E-03 0.  1.
         11   -1    0    0    0    0 -0.00000000000E+00 -0.00000000000E+00 -0.45593999997E+02  0.45594000000E+02  0.51100000000E-03 0. -1.
    9900012    2    1    2    0    0 -0.67624694130E+01 -0.29647319697E+02  0.95930188294E+01  0.59301943988E+02  0.49999999927E+02 0.  0.
        -12    1    1    2    0    0  0.67624694130E+01  0.29647319697E+02 -0.95930188294E+01  0.31886056012E+02  0.00000000000E+00 0.  1.
         11    1    3    3    0    0 -0.26060800985E+01 -0.22545178457E+00  0.11007289041E+02  0.11313836409E+02  0.51100000000E-03 0. -1.
        -11    1    3    3    0    0 -0.81248079296E+01  0.24753726477E+01 -0.11502958273E+02  0.14298881877E+02  0.51100000000E-03 0.  1.
         12    1    3    3    0    0  0.39684186151E+01 -0.31897240560E+02  0.10088688061E+02  0.33689225702E+02  0.00000000000E+00 0. -1.
</event>
<event>
 7    1  0.3802554E-013  0.5930196E+02  0.7816164E-02  0.1266605E+00
        -11   -1    0    0    0    0  0.00000000000E+00  0.00000000000E+00  0.45593999997E+02  0.45594000000E+02  0.51100000000E-03 0.  1.
         11   -1    0    0    0    0 -0.00000000000E+00 -0.00000000000E+00 -0.45593999997E+02  0.45594000000E+02  0.51100000000E-03 0. -1.
    9900012    2    1    2    0    0  0.31330213377E+02 -0.51330660991E+01 -0.29646346337E+01  0.59301957656E+02  0.50000024855E+02 0.  0.
        -12    1    1    2    0    0 -0.31330213377E+02  0.51330660991E+01  0.29646346337E+01  0.31886042344E+02  0.00000000000E+00 0.  1.
         11    1    3    3    0    0  0.17296012959E+01  0.18959943112E+00 -0.63708681125E+01  0.66041978585E+01  0.51100000000E-03 0. -1.
        -11    1    3    3    0    0  0.88691292538E+00  0.40544661023E+01 -0.16175737558E+02  0.16699694480E+02  0.51100000000E-03 0.  1.
        -12    1    3    3    0    0  0.28713699156E+02 -0.93771316325E+01  0.19581971037E+02  0.35998065317E+02  0.00000000000E+00 0.  1.
</event>
<event>
 7    1  0.3802554E-013  0.5930196E+02  0.7816164E-02  0.1266605E+00
        -11   -1    0    0    0    0  0.00000000000E+00  0.00000000000E+00  0.45593999997E+02  0.45594000000E+02  0.51100000000E-03 0. -1.
         11   -1    0    0    0    0 -0.00000000000E+00 -0.00000000000E+00 -0.45593999997E+02  0.45594000000E+02  0.51100000000E-03 0.  1.
    9900012    2    1    2    0    0  0.67393026874E+01  0.24436058973E+02  0.19343743455E+02  0.59301959329E+02  0.50000027906E+02 0.  0.
        -12    1    1    2    0    0 -0.67393026874E+01 -0.24436058973E+02 -0.19343743455E+02  0.31886040671E+02  0.00000000000E+00 0.  1.
         11    1    3    3    0    0 -0.22522257027E+01  0.94494399395E+01 -0.44174471867E+01  0.10671376467E+02  0.51100000000E-03 0. -1.
        -11    1    3    3    0    0  0.66609552796E+01 -0.12750764258E+02  0.58443973506E+01  0.15527630053E+02  0.51100000000E-03 0.  1.
         12    1    3    3    0    0  0.23305731105E+01  0.27737383292E+02  0.17916793291E+02  0.33102952809E+02  0.00000000000E+00 0. -1.
</event>
<event>
 7    1  0.3802554E-013  0.5930196E+02  0.7816164E-02  0.1266605E+00
        -11   -1    0    0    0    0  0.00000000000E+00  0.00000000000E+00  0.45593999997E+02  0.45594000000E+02  0.51100000000E-03 0. -1.
         11   -1    0    0    0    0 -0.00000000000E+00 -0.00000000000E+00 -0.45593999997E+02  0.45594000000E+02  0.51100000000E-03 0.  1.
    9900012    2    1    2    0    0  0.14256842270E+02 -0.21653488986E+02  0.18563101088E+02  0.59301955109E+02  0.50000020210E+02 0.  0.
        -12    1    1    2    0    0 -0.14256842270E+02  0.21653488986E+02 -0.18563101088E+02  0.31886044891E+02  0.00000000000E+00 0.  1.
         11    1    3    3    0    0  0.68978654734E+01 -0.21893842966E+02  0.39075300314E+01  0.23284967235E+02  0.51100000000E-03 0. -1.
        -11    1    3    3    0    0  0.69633297932E+01 -0.11841152077E+02 -0.35275050665E+01  0.14182529273E+02  0.51100000000E-03 0.  1.
         12    1    3    3    0    0  0.39564700325E+00  0.12081506057E+02  0.18183076123E+02  0.21834458602E+02  0.00000000000E+00 0. -1.
</event>
<event>
 7    1  0.3802554E-013  0.5930195E+02  0.7816164E-02  0.1266605E+00
        -11   -1    0    0    0    0  0.00000000000E+00  0.00000000000E+00  0.45593999997E+02  0.45594000000E+02  0.51100000000E-03 0. -1.
         11   -1    0    0    0    0 -0.00000000000E+00 -0.00000000000E+00 -0.45593999997E+02  0.45594000000E+02  0.51100000000E-03 0.  1.
    9900012    2    1    2    0    0 -0.48358267705E+01  0.17636532130E+02  0.26120633335E+02  0.59301953335E+02  0.50000016973E+02 0.  0.
        -12    1    1    2    0    0  0.48358267705E+01 -0.17636532130E+02 -0.26120633335E+02  0.31886046665E+02  0.00000000000E+00 0.  1.
         11    1    3    3    0    0 -0.63532409692E+01  0.12700426581E+02 -0.14885030174E+01  0.14278660569E+02  0.51100000000E-03 0.  1.
        -11    1    3    3    0    0 -0.40334220457E+01  0.13846668506E+02 -0.10910206746E+01  0.14463369195E+02  0.51100000000E-03 0. -1.
        -12    1    3    3    0    0  0.55508362445E+01 -0.89105629569E+01  0.28700157027E+02  0.30559923570E+02  0.00000000000E+00 0.  1.
</event>
<event>
 7    1  0.3802554E-013  0.5930200E+02  0.7816164E-02  0.1266605E+00
        -11   -1    0    0    0    0  0.00000000000E+00  0.00000000000E+00  0.45593999997E+02  0.45594000000E+02  0.51100000000E-03 0.  1.
         11   -1    0    0    0    0 -0.00000000000E+00 -0.00000000000E+00 -0.45593999997E+02  0.45594000000E+02  0.51100000000E-03 0. -1.
    9900012    2    1    2    0    0  0.14729169409E+02 -0.28119623047E+02  0.30092405445E+01  0.59301997421E+02  0.50000097377E+02 0.  0.
        -12    1    1    2    0    0 -0.14729169409E+02  0.28119623047E+02 -0.30092405445E+01  0.31886002579E+02  0.00000000000E+00 0.  1.
         11    1    3    3    0    0 -0.10288791728E+02 -0.20355067935E+02  0.13851991298E+02  0.26684559000E+02  0.51100000000E-03 0. -1.
        -11    1    3    3    0    0  0.10956868022E+01 -0.88315365485E+00 -0.73473086127E+01  0.74808712098E+01  0.51100000000E-03 0.  1.
        -12    1    3    3    0    0  0.23922274335E+02 -0.68814014575E+01 -0.34954421408E+01  0.25136567211E+02  0.00000000000E+00 0.  1.
</event>
<event>
 7    1  0.3802554E-013  0.5930196E+02  0.7816164E-02  0.1266605E+00
        -11   -1    0    0    0    0  0.00000000000E+00  0.00000000000E+00  0.45593999997E+02  0.45594000000E+02  0.51100000000E-03 0.  1.
         11   -1    0    0    0    0 -0.00000000000E+00 -0.00000000000E+00 -0.45593999997E+02  0.45594000000E+02  0.51100000000E-03 0. -1.
    9900012    2    1    2    0    0 -0.18172867922E+02 -0.24029971129E+02 -0.10441598324E+02  0.59301958908E+02  0.50000027138E+02 0.  0.
        -12    1    1    2    0    0  0.18172867922E+02  0.24029971129E+02  0.10441598324E+02  0.31886041092E+02  0.00000000000E+00 0.  1.
         11    1    3    3    0    0  0.83094228044E+01  0.29275843628E+00 -0.31180709355E+01  0.88800102176E+01  0.51100000000E-03 0. -1.
        -11    1    3    3    0    0 -0.98298981478E+01 -0.28014967894E+02 -0.13047995247E+02  0.32430163489E+02  0.51100000000E-03 0.  1.
        -12    1    3    3    0    0 -0.16652392578E+02  0.36922383292E+01  0.57244678584E+01  0.17991785201E+02  0.00000000000E+00 0.  1.
</event>
<event>
 7    1  0.3802554E-013  0.5930180E+02  0.7816164E-02  0.1266605E+00
        -11   -1    0    0    0    0  0.00000000000E+00  0.00000000000E+00  0.45593999997E+02  0.45594000000E+02  0.51100000000E-03 0. -1.
         11   -1    0    0    0    0 -0.00000000000E+00 -0.00000000000E+00 -0.45593999997E+02  0.45594000000E+02  0.51100000000E-03 0.  1.
    9900012    2    1    2    0    0  0.16458736681E+02  0.25646235633E+02 -0.93867247172E+01  0.59301795833E+02  0.49999729728E+02 0.  0.
        -12    1    1    2    0    0 -0.16458736681E+02 -0.25646235633E+02  0.93867247172E+01  0.31886204167E+02  0.00000000000E+00 0.  1.
         11    1    3    3    0    0  0.36282505910E+01 -0.96934798316E+00  0.30369539636E+01  0.48297958033E+01  0.51100000000E-03 0. -1.
        -11    1    3    3    0    0  0.21380532316E+02  0.31663793932E+02 -0.18891862340E+02  0.42621889578E+02  0.51100000000E-03 0.  1.
         12    1    3    3    0    0 -0.85500462264E+01 -0.50482103163E+01  0.64681836588E+01  0.11850110452E+02  0.00000000000E+00 0. -1.
</event>
<event>
 7    1  0.3802554E-013  0.5930196E+02  0.7816164E-02  0.1266605E+00
        -11   -1    0    0    0    0  0.00000000000E+00  0.00000000000E+00  0.45593999997E+02  0.45594000000E+02  0.51100000000E-03 0.  1.
         11   -1    0    0    0    0 -0.00000000000E+00 -0.00000000000E+00 -0.45593999997E+02  0.45594000000E+02  0.51100000000E-03 0. -1.
    9900012    2    1    2    0    0 -0.14900345314E+02 -0.13020196350E+02  0.25003478353E+02  0.59301957078E+02  0.50000023801E+02 0.  0.
        -12    1    1    2    0    0  0.14900345314E+02  0.13020196350E+02 -0.25003478353E+02  0.31886042922E+02  0.00000000000E+00 0.  1.
         11    1    3    3    0    0 -0.38754278329E+01  0.84374854803E+01  0.11604238494E+02  0.14861643698E+02  0.51100000000E-03 0. -1.
        -11    1    3    3    0    0 -0.48364772267E+01  0.94376984213E+01  0.12835686506E+01  0.10682191357E+02  0.51100000000E-03 0.  1.
         12    1    3    3    0    0 -0.61884402544E+01 -0.30895380252E+02  0.12115671208E+02  0.33758122023E+02  0.00000000000E+00 0. -1.
</event>
<event>
 7    1  0.3802554E-013  0.5930195E+02  0.7816164E-02  0.1266605E+00
        -11   -1    0    0    0    0  0.00000000000E+00  0.00000000000E+00  0.45593999997E+02  0.45594000000E+02  0.51100000000E-03 0. -1.
         11   -1    0    0    0    0 -0.00000000000E+00 -0.00000000000E+00 -0.45593999997E+02  0.45594000000E+02  0.51100000000E-03 0.  1.
    9900012    2    1    2    0    0 -0.23903806823E+02  0.19450700364E+02 -0.81852507300E+01  0.59301952035E+02  0.50000014604E+02 0.  0.
        -12    1    1    2    0    0  0.23903806823E+02 -0.19450700364E+02  0.81852507300E+01  0.31886047965E+02  0.00000000000E+00 0.  1.
         11    1    3    3    0    0  0.28717277980E+01 -0.74871409659E+01  0.12572854010E+01  0.81169493796E+01  0.51100000000E-03 0. -1.
        -11    1    3    3    0    0 -0.10277729310E+02  0.31518211890E+02 -0.71037196593E+01  0.33904162484E+02  0.51100000000E-03 0.  1.
         12    1    3    3    0    0 -0.16497805311E+02 -0.45803705595E+01 -0.23388164717E+01  0.17280840172E+02  0.00000000000E+00 0. -1.
</event>
<event>
 7    1  0.3802554E-013  0.5930192E+02  0.7816164E-02  0.1266605E+00
        -11   -1    0    0    0    0  0.00000000000E+00  0.00000000000E+00  0.45593999997E+02  0.45594000000E+02  0.51100000000E-03 0.  1.
         11   -1    0    0    0    0 -0.00000000000E+00 -0.00000000000E+00 -0.45593999997E+02  0.45594000000E+02  0.51100000000E-03 0. -1.
    9900012    2    1    2    0    0  0.10703641348E+02 -0.15829750458E+02 -0.25525926322E+02  0.59301923850E+02  0.49999963200E+02 0.  0.
        -12    1    1    2    0    0 -0.10703641348E+02  0.15829750458E+02  0.25525926322E+02  0.31886076150E+02  0.00000000000E+00 0.  1.
         11    1    3    3    0    0  0.13967257923E+01 -0.11832577318E+00  0.46606502794E+00  0.14771800157E+01  0.51100000000E-03 0. -1.
        -11    1    3    3    0    0  0.19834943898E+02  0.10590264960E+02 -0.63949721414E+01  0.23376791488E+02  0.51100000000E-03 0.  1.
         12    1    3    3    0    0 -0.10528028342E+02 -0.26301689645E+02 -0.19597019208E+02  0.34447952345E+02  0.00000000000E+00 0. -1.
</event>
<event>
 7    1  0.3802554E-013  0.5930196E+02  0.7816164E-02  0.1266605E+00
        -11   -1    0    0    0    0  0.00000000000E+00  0.00000000000E+00  0.45593999997E+02  0.45594000000E+02  0.51100000000E-03 0. -1.
         11   -1    0    0    0    0 -0.00000000000E+00 -0.00000000000E+00 -0.45593999997E+02  0.45594000000E+02  0.51100000000E-03 0.  1.
    9900012    2    1    2    0    0  0.31871622912E+01 -0.29815409906E+02  0.10844495096E+02  0.59301956890E+02  0.50000023457E+02 0.  0.
        -12    1    1    2    0    0 -0.31871622912E+01  0.29815409906E+02 -0.10844495096E+02  0.31886043110E+02  0.00000000000E+00 0.  1.
         11    1    3    3    0    0  0.47228011842E+01 -0.33128950770E+02  0.84450729222E+00  0.33474548884E+02  0.51100000000E-03 0. -1.
        -11    1    3    3    0    0 -0.87445310528E+00  0.53525474943E+01 -0.69088097360E+01  0.87832844166E+01  0.51100000000E-03 0.  1.
         12    1    3    3    0    0 -0.66118578778E+00 -0.20390066302E+01  0.16908797540E+02  0.17044123589E+02  0.00000000000E+00 0. -1.
</event>
<event>
 7    1  0.3802554E-013  0.5930201E+02  0.7816164E-02  0.1266605E+00
        -11   -1    0    0    0    0  0.00000000000E+00  0.00000000000E+00  0.45593999997E+02  0.45594000000E+02  0.51100000000E-03 0. -1.
         11   -1    0    0    0    0 -0.00000000000E+00 -0.00000000000E+00 -0.45593999997E+02  0.45594000000E+02  0.51100000000E-03 0.  1.
    9900012    2    1    2    0    0  0.12093956752E+02  0.36965598446E+01  0.29270944416E+02  0.59302007282E+02  0.50000115360E+02 0.  0.
        -12    1    1    2    0    0 -0.12093956752E+02 -0.36965598446E+01 -0.29270944416E+02  0.31885992718E+02  0.00000000000E+00 0.  1.
         11    1    3    3    0    0  0.59838096862E+01  0.52160413411E+01 -0.36265702239E+01  0.87272605944E+01  0.51100000000E-03 0. -1.
        -11    1    3    3    0    0 -0.14648457941E+02  0.60401655690E+01  0.17721790531E+02  0.23772311205E+02  0.51100000000E-03 0.  1.
         12    1    3    3    0    0  0.20758605006E+02 -0.75596470655E+01  0.15175724110E+02  0.26802435483E+02  0.00000000000E+00 0. -1.
</event>
<event>
 7    1  0.3802554E-013  0.5930193E+02  0.7816164E-02  0.1266605E+00
        -11   -1    0    0    0    0  0.00000000000E+00  0.00000000000E+00  0.45593999997E+02  0.45594000000E+02  0.51100000000E-03 0.  1.
         11   -1    0    0    0    0 -0.00000000000E+00 -0.00000000000E+00 -0.45593999997E+02  0.45594000000E+02  0.51100000000E-03 0. -1.
    9900012    2    1    2    0    0  0.34053182119E+00 -0.21001430385E+02 -0.23990530284E+02  0.59301928065E+02  0.49999970889E+02 0.  0.
        -12    1    1    2    0    0 -0.34053182119E+00  0.21001430385E+02  0.23990530284E+02  0.31886071935E+02  0.00000000000E+00 0.  1.
         11    1    3    3    0    0 -0.52545759395E+01  0.29243710383E+01 -0.90082781478E+01  0.10831047490E+02  0.51100000000E-03 0. -1.
        -11    1    3    3    0    0 -0.15348761773E+02 -0.61498771515E+01 -0.12806392623E+02  0.20914329279E+02  0.51100000000E-03 0.  1.
        -12    1    3    3    0    0  0.20943869533E+02 -0.17775924271E+02 -0.21758595132E+01  0.27556551297E+02  0.00000000000E+00 0.  1.
</event>
<event>
 7    1  0.3802554E-013  0.5930193E+02  0.7816164E-02  0.1266605E+00
        -11   -1    0    0    0    0  0.00000000000E+00  0.00000000000E+00  0.45593999997E+02  0.45594000000E+02  0.51100000000E-03 0. -1.
         11   -1    0    0    0    0 -0.00000000000E+00 -0.00000000000E+00 -0.45593999997E+02  0.45594000000E+02  0.51100000000E-03 0.  1.
    9900012    2    1    2    0    0  0.23881651312E+02 -0.57363842977E+00  0.21120110053E+02  0.59301931269E+02  0.49999976732E+02 0.  0.
        -12    1    1    2    0    0 -0.23881651312E+02  0.57363842977E+00 -0.21120110053E+02  0.31886068731E+02  0.00000000000E+00 0.  1.
         11    1    3    3    0    0  0.93502929891E+01 -0.89214924816E+01  0.24537382076E+02  0.27732726633E+02  0.51100000000E-03 0. -1.
        -11    1    3    3    0    0 -0.36550459838E+01 -0.67136903211E+01  0.37417372668E+00  0.76533002757E+01  0.51100000000E-03 0.  1.
        -12    1    3    3    0    0  0.18186404307E+02  0.15061544373E+02 -0.37914457498E+01  0.23915904361E+02  0.00000000000E+00 0.  1.
</event>
<event>
 7    1  0.3802554E-013  0.5930194E+02  0.7816164E-02  0.1266605E+00
        -11   -1    0    0    0    0  0.00000000000E+00  0.00000000000E+00  0.45593999997E+02  0.45594000000E+02  0.51100000000E-03 0. -1.
         11   -1    0    0    0    0 -0.00000000000E+00 -0.00000000000E+00 -0.45593999997E+02  0.45594000000E+02  0.51100000000E-03 0.  1.
    9900012    2    1    2    0    0 -0.11650607170E+02  0.20600093846E+02  0.21368676229E+02  0.59301939759E+02  0.49999992215E+02 0.  0.
        -12    1    1    2    0    0  0.11650607170E+02 -0.20600093846E+02 -0.21368676229E+02  0.31886060241E+02  0.00000000000E+00 0.  1.
         11    1    3    3    0    0  0.14209345304E+02  0.65671060675E+01  0.11171724652E+02  0.19231219619E+02  0.51100000000E-03 0. -1.
        -11    1    3    3    0    0  0.35444315315E+01  0.31000263771E+01 -0.34725616698E+01  0.58507985123E+01  0.51100000000E-03 0.  1.
        -12    1    3    3    0    0 -0.29404384006E+02  0.10932961401E+02  0.13669513247E+02  0.34219921628E+02  0.00000000000E+00 0.  1.
</event>
<event>
 7    1  0.3802554E-013  0.5930194E+02  0.7816164E-02  0.1266605E+00
        -11   -1    0    0    0    0  0.00000000000E+00  0.00000000000E+00  0.45593999997E+02  0.45594000000E+02  0.51100000000E-03 0.  1.
         11   -1    0    0    0    0 -0.00000000000E+00 -0.00000000000E+00 -0.45593999997E+02  0.45594000000E+02  0.51100000000E-03 0. -1.
    9900012    2    1    2    0    0  0.21364592031E+02 -0.18073854117E+02 -0.15284327986E+02  0.59301942274E+02  0.49999996802E+02 0.  0.
        -12    1    1    2    0    0 -0.21364592031E+02  0.18073854117E+02  0.15284327986E+02  0.31886057726E+02  0.00000000000E+00 0.  1.
         11    1    3    3    0    0 -0.30763322376E+01  0.47356423459E+01  0.95117872713E+01  0.11061836458E+02  0.51100000000E-03 0. -1.
        -11    1    3    3    0    0 -0.44985838008E+01 -0.56659770595E+00 -0.92545939999E+00  0.46276089436E+01  0.51100000000E-03 0.  1.
         12    1    3    3    0    0  0.28939508070E+02 -0.22242898757E+02 -0.23870655857E+02  0.43612496873E+02  0.00000000000E+00 0. -1.
</event>
<event>
 7    1  0.3802554E-013  0.5930196E+02  0.7816164E-02  0.1266605E+00
        -11   -1    0    0    0    0  0.00000000000E+00  0.00000000000E+00  0.45593999997E+02  0.45594000000E+02  0.51100000000E-03 0. -1.
         11   -1    0    0    0    0 -0.00000000000E+00 -0.00000000000E+00 -0.45593999997E+02  0.45594000000E+02  0.51100000000E-03 0.  1.
    9900012    2    1    2    0    0 -0.48138469493E+01 -0.26759256887E+02  0.16657986826E+02  0.59301961100E+02  0.50000031137E+02 0.  0.
        -12    1    1    2    0    0  0.48138469493E+01  0.26759256887E+02 -0.16657986826E+02  0.31886038900E+02  0.00000000000E+00 0.  1.
         11    1    3    3    0    0  0.12087287201E+01 -0.35584879153E+01 -0.52224483019E+01  0.64341143827E+01  0.51100000000E-03 0. -1.
        -11    1    3    3    0    0 -0.11540861856E+02 -0.11419272739E+02 -0.95606909581E+01  0.18841393105E+02  0.51100000000E-03 0.  1.
         12    1    3    3    0    0  0.55182861868E+01 -0.11781496233E+02  0.31441126086E+02  0.34026453613E+02  0.00000000000E+00 0. -1.
</event>
<event>
 7    1  0.3802554E-013  0.5930197E+02  0.7816164E-02  0.1266605E+00
        -11   -1    0    0    0    0  0.00000000000E+00  0.00000000000E+00  0.45593999997E+02  0.45594000000E+02  0.51100000000E-03 0. -1.
         11   -1    0    0    0    0 -0.00000000000E+00 -0.00000000000E+00 -0.45593999997E+02  0.45594000000E+02  0.51100000000E-03 0.  1.
    9900012    2    1    2    0    0 -0.86392234510E+01 -0.25940077533E+02 -0.16407169897E+02  0.59301968132E+02  0.50000043960E+02 0.  0.
        -12    1    1    2    0    0  0.86392234510E+01  0.25940077533E+02  0.16407169897E+02  0.31886031868E+02  0.00000000000E+00 0.  1.
         11    1    3    3    0    0  0.71847462391E+01 -0.94302189785E+01 -0.18345292350E+01  0.11996462240E+02  0.51100000000E-03 0. -1.
        -11    1    3    3    0    0 -0.27309127107E+01 -0.26306877316E+02 -0.15965750407E+02  0.30893605562E+02  0.51100000000E-03 0.  1.
         12    1    3    3    0    0 -0.13093056979E+02  0.97970187607E+01  0.13931097450E+01  0.16411900330E+02  0.00000000000E+00 0. -1.
</event>
<event>
 7    1  0.3802554E-013  0.5930195E+02  0.7816164E-02  0.1266605E+00
        -11   -1    0    0    0    0  0.00000000000E+00  0.00000000000E+00  0.45593999997E+02  0.45594000000E+02  0.51100000000E-03 0.  1.
         11   -1    0    0    0    0 -0.00000000000E+00 -0.00000000000E+00 -0.45593999997E+02  0.45594000000E+02  0.51100000000E-03 0. -1.
    9900012    2    1    2    0    0  0.48284544107E+01 -0.14367450880E+02 -0.28053213128E+02  0.59301946880E+02  0.50000005202E+02 0.  0.
        -12    1    1    2    0    0 -0.48284544107E+01  0.14367450880E+02  0.28053213128E+02  0.31886053120E+02  0.00000000000E+00 0.  1.
         11    1    3    3    0    0 -0.30591966876E+01  0.82754122480E+01 -0.27439954449E+01  0.92396235589E+01  0.51100000000E-03 0.  1.
        -11    1    3    3    0    0  0.12575420449E+02 -0.14848410645E+02 -0.32894713689E+02  0.38218826344E+02  0.51100000000E-03 0. -1.
         12    1    3    3    0    0 -0.46877693508E+01 -0.77944524829E+01  0.75854960062E+01  0.11843496977E+02  0.00000000000E+00 0. -1.
</event>
<event>
 7    1  0.3802554E-013  0.5930195E+02  0.7816164E-02  0.1266605E+00
        -11   -1    0    0    0    0  0.00000000000E+00  0.00000000000E+00  0.45593999997E+02  0.45594000000E+02  0.51100000000E-03 0.  1.
         11   -1    0    0    0    0 -0.00000000000E+00 -0.00000000000E+00 -0.45593999997E+02  0.45594000000E+02  0.51100000000E-03 0. -1.
    9900012    2    1    2    0    0  0.17064796150E+02 -0.47363022871E+01 -0.26515657872E+02  0.59301953846E+02  0.50000017905E+02 0.  0.
        -12    1    1    2    0    0 -0.17064796150E+02  0.47363022871E+01  0.26515657872E+02  0.31886046154E+02  0.00000000000E+00 0.  1.
         11    1    3    3    0    0  0.12946510144E+02 -0.64556007517E+01 -0.23571226599E+02  0.27656638075E+02  0.51100000000E-03 0. -1.
        -11    1    3    3    0    0  0.13342841816E+02 -0.43569754227E+01 -0.11116450306E+02  0.17905030863E+02  0.51100000000E-03 0.  1.
        -12    1    3    3    0    0 -0.92245558102E+01  0.60762738874E+01  0.81720190329E+01  0.13740284907E+02  0.00000000000E+00 0.  1.
</event>
<event>
 7    1  0.3802554E-013  0.5930196E+02  0.7816164E-02  0.1266605E+00
        -11   -1    0    0    0    0  0.00000000000E+00  0.00000000000E+00  0.45593999997E+02  0.45594000000E+02  0.51100000000E-03 0. -1.
         11   -1    0    0    0    0 -0.00000000000E+00 -0.00000000000E+00 -0.45593999997E+02  0.45594000000E+02  0.51100000000E-03 0.  1.
    9900012    2    1    2    0    0 -0.23601113056E+02 -0.74823017641E+00  0.21427726021E+02  0.59301955587E+02  0.50000021080E+02 0.  0.
        -12    1    1    2    0    0  0.23601113056E+02  0.74823017641E+00 -0.21427726021E+02  0.31886044413E+02  0.00000000000E+00 0.  1.
         11    1    3    3    0    0  0.62570301697E+01  0.58621343074E+01  0.21040143118E+01  0.88284722159E+01  0.51100000000E-03 0. -1.
        -11    1    3    3    0    0 -0.65040411061E+01 -0.92271661071E+01 -0.84429132613E+01  0.14097018468E+02  0.51100000000E-03 0.  1.
         12    1    3    3    0    0 -0.23354102120E+02  0.26168016234E+01  0.27766624971E+02  0.36376464903E+02  0.00000000000E+00 0. -1.
</event>
<event>
 7    1  0.3802554E-013  0.5930194E+02  0.7816164E-02  0.1266605E+00
        -11   -1    0    0    0    0  0.00000000000E+00  0.00000000000E+00  0.45593999997E+02  0.45594000000E+02  0.51100000000E-03 0.  1.
         11   -1    0    0    0    0 -0.00000000000E+00 -0.00000000000E+00 -0.45593999997E+02  0.45594000000E+02  0.51100000000E-03 0. -1.
    9900012    2    1    2    0    0  0.56579573093E+01  0.30368517393E+02 -0.79032550672E+01  0.59301940817E+02  0.49999994144E+02 0.  0.
        -12    1    1    2    0    0 -0.56579573093E+01 -0.30368517393E+02  0.79032550672E+01  0.31886059183E+02  0.00000000000E+00 0.  1.
         11    1    3    3    0    0  0.28976402710E+01  0.16487919784E+01  0.13489361494E+01  0.35964514628E+01  0.51100000000E-03 0. -1.
        -11    1    3    3    0    0  0.23179629638E+02  0.52497692786E+01 -0.52521961045E+01  0.24340108295E+02  0.51100000000E-03 0.  1.
         12    1    3    3    0    0 -0.20419312600E+02  0.23469956136E+02 -0.39999951121E+01  0.31365381059E+02  0.00000000000E+00 0. -1.
</event>
<event>
 7    1  0.3802554E-013  0.5930188E+02  0.7816164E-02  0.1266605E+00
        -11   -1    0    0    0    0  0.00000000000E+00  0.00000000000E+00  0.45593999997E+02  0.45594000000E+02  0.51100000000E-03 0.  1.
         11   -1    0    0    0    0 -0.00000000000E+00 -0.00000000000E+00 -0.45593999997E+02  0.45594000000E+02  0.51100000000E-03 0. -1.
    9900012    2    1    2    0    0  0.25077596377E+01  0.17746734040E+02 -0.26372132495E+02  0.59301877630E+02  0.49999878906E+02 0.  0.
        -12    1    1    2    0    0 -0.25077596377E+01 -0.17746734040E+02  0.26372132495E+02  0.31886122370E+02  0.00000000000E+00 0.  1.
         11    1    3    3    0    0 -0.15074833823E+02  0.49669493073E+01 -0.16559210110E+02  0.22937494195E+02  0.51100000000E-03 0. -1.
        -11    1    3    3    0    0  0.52814205277E+01  0.13582892547E+02  0.64668618282E+01  0.15943922821E+02  0.51100000000E-03 0.  1.
         12    1    3    3    0    0  0.12301172933E+02 -0.80310781491E+00 -0.16279784213E+02  0.20420460614E+02  0.00000000000E+00 0. -1.
</event>
<event>
 7    1  0.3802554E-013  0.5930195E+02  0.7816164E-02  0.1266605E+00
        -11   -1    0    0    0    0  0.00000000000E+00  0.00000000000E+00  0.45593999997E+02  0.45594000000E+02  0.51100000000E-03 0.  1.
         11   -1    0    0    0    0 -0.00000000000E+00 -0.00000000000E+00 -0.45593999997E+02  0.45594000000E+02  0.51100000000E-03 0. -1.
    9900012    2    1    2    0    0  0.30704335383E+02 -0.50561181194E+01  0.69569714469E+01  0.59301952997E+02  0.50000016358E+02 0.  0.
        -12    1    1    2    0    0 -0.30704335383E+02  0.50561181194E+01 -0.69569714469E+01  0.31886047003E+02  0.00000000000E+00 0.  1.
         11    1    3    3    0    0  0.11231323239E+02  0.10503164126E+02  0.28175595344E+01  0.15633224886E+02  0.51100000000E-03 0.  1.
        -11    1    3    3    0    0  0.26452334435E+02 -0.24879439558E+01  0.90346338374E+01  0.28063151480E+02  0.51100000000E-03 0. -1.
         12    1    3    3    0    0 -0.69793222896E+01 -0.13071338289E+02 -0.48952219249E+01  0.15605576631E+02  0.00000000000E+00 0. -1.
</event>
<event>
 7    1  0.3802554E-013  0.5930197E+02  0.7816164E-02  0.1266605E+00
        -11   -1    0    0    0    0  0.00000000000E+00  0.00000000000E+00  0.45593999997E+02  0.45594000000E+02  0.51100000000E-03 0.  1.
         11   -1    0    0    0    0 -0.00000000000E+00 -0.00000000000E+00 -0.45593999997E+02  0.45594000000E+02  0.51100000000E-03 0. -1.
    9900012    2    1    2    0    0  0.28028711906E+02  0.13237981158E+02  0.74743658211E+01  0.59301968879E+02  0.50000045322E+02 0.  0.
        -12    1    1    2    0    0 -0.28028711906E+02 -0.13237981158E+02 -0.74743658211E+01  0.31886031121E+02  0.00000000000E+00 0.  1.
         11    1    3    3    0    0  0.97721484654E+01  0.48212923332E+01 -0.10648457762E+02  0.15235793329E+02  0.51100000000E-03 0. -1.
        -11    1    3    3    0    0  0.28738869130E+02  0.68708700804E+01  0.12683589712E+02  0.32155946616E+02  0.51100000000E-03 0.  1.
        -12    1    3    3    0    0 -0.10482305690E+02  0.15458187443E+01  0.54392338711E+01  0.11910228934E+02  0.00000000000E+00 0.  1.
</event>
<event>
 7    1  0.3802554E-013  0.5930194E+02  0.7816164E-02  0.1266605E+00
        -11   -1    0    0    0    0  0.00000000000E+00  0.00000000000E+00  0.45593999997E+02  0.45594000000E+02  0.51100000000E-03 0.  1.
         11   -1    0    0    0    0 -0.00000000000E+00 -0.00000000000E+00 -0.45593999997E+02  0.45594000000E+02  0.51100000000E-03 0. -1.
    9900012    2    1    2    0    0  0.15774342620E+02 -0.26263909906E+02 -0.88372897304E+01  0.59301944452E+02  0.50000000774E+02 0.  0.
        -12    1    1    2    0    0 -0.15774342620E+02  0.26263909906E+02  0.88372897304E+01  0.31886055548E+02  0.00000000000E+00 0.  1.
         11    1    3    3    0    0 -0.48141139944E+01 -0.26409800454E+01  0.97805779167E+01  0.11216513442E+02  0.51100000000E-03 0. -1.
        -11    1    3    3    0    0  0.19175577200E+02  0.29012614288E+00 -0.13862095948E+02  0.23663149378E+02  0.51100000000E-03 0.  1.
         12    1    3    3    0    0  0.14128794136E+01 -0.23913056003E+02 -0.47557716987E+01  0.24422281632E+02  0.00000000000E+00 0. -1.
</event>
<event>
 7    1  0.3802554E-013  0.5930196E+02  0.7816164E-02  0.1266605E+00
        -11   -1    0    0    0    0  0.00000000000E+00  0.00000000000E+00  0.45593999997E+02  0.45594000000E+02  0.51100000000E-03 0. -1.
         11   -1    0    0    0    0 -0.00000000000E+00 -0.00000000000E+00 -0.45593999997E+02  0.45594000000E+02  0.51100000000E-03 0.  1.
    9900012    2    1    2    0    0 -0.64947136371E+01 -0.27832193113E+02 -0.14138850839E+02  0.59301962589E+02  0.50000033852E+02 0.  0.
        -12    1    1    2    0    0  0.64947136371E+01  0.27832193113E+02  0.14138850839E+02  0.31886037411E+02  0.00000000000E+00 0.  1.
         11    1    3    3    0    0 -0.26876676253E+01 -0.23220092529E+00 -0.26804306066E+01  0.38029176998E+01  0.51100000000E-03 0. -1.
        -11    1    3    3    0    0  0.11300486554E+01  0.55715550258E+01  0.12868337381E+02  0.14068167705E+02  0.51100000000E-03 0.  1.
         12    1    3    3    0    0 -0.49370946673E+01 -0.33171547214E+02 -0.24326757613E+02  0.41430877184E+02  0.00000000000E+00 0. -1.
</event>
<event>
 7    1  0.3802554E-013  0.5930193E+02  0.7816164E-02  0.1266605E+00
        -11   -1    0    0    0    0  0.00000000000E+00  0.00000000000E+00  0.45593999997E+02  0.45594000000E+02  0.51100000000E-03 0.  1.
         11   -1    0    0    0    0 -0.00000000000E+00 -0.00000000000E+00 -0.45593999997E+02  0.45594000000E+02  0.51100000000E-03 0. -1.
    9900012    2    1    2    0    0  0.25777008002E+02  0.16280941587E+02  0.93379951912E+01  0.59301931652E+02  0.49999977430E+02 0.  0.
        -12    1    1    2    0    0 -0.25777008002E+02 -0.16280941587E+02 -0.93379951912E+01  0.31886068348E+02  0.00000000000E+00 0.  1.
         11    1    3    3    0    0  0.20360459862E+02  0.65798188631E+01 -0.71209635757E+01  0.22551063491E+02  0.51100000000E-03 0. -1.
        -11    1    3    3    0    0 -0.92630959747E+00 -0.11082630150E+02  0.51923486870E+01  0.12273680201E+02  0.51100000000E-03 0.  1.
        -12    1    3    3    0    0  0.63428577380E+01  0.20783752874E+02  0.11266610080E+02  0.24477187961E+02  0.00000000000E+00 0.  1.
</event>
<event>
 7    1  0.3802554E-013  0.5930195E+02  0.7816164E-02  0.1266605E+00
        -11   -1    0    0    0    0  0.00000000000E+00  0.00000000000E+00  0.45593999997E+02  0.45594000000E+02  0.51100000000E-03 0.  1.
         11   -1    0    0    0    0 -0.00000000000E+00 -0.00000000000E+00 -0.45593999997E+02  0.45594000000E+02  0.51100000000E-03 0. -1.
    9900012    2    1    2    0    0  0.26885771354E+02  0.75811348629E+01  0.15375362700E+02  0.59301951558E+02  0.50000013734E+02 0.  0.
        -12    1    1    2    0    0 -0.26885771354E+02 -0.75811348629E+01 -0.15375362700E+02  0.31886048442E+02  0.00000000000E+00 0.  1.
         11    1    3    3    0    0  0.18264478857E+02  0.72562580458E+01  0.13179066413E+02  0.23662887832E+02  0.51100000000E-03 0. -1.
        -11    1    3    3    0    0  0.12515361599E+02  0.14104149320E+02  0.76056578614E+01  0.20332420805E+02  0.51100000000E-03 0.  1.
        -12    1    3    3    0    0 -0.38940691029E+01 -0.13779272503E+02 -0.54093615748E+01  0.15306642922E+02  0.00000000000E+00 0.  1.
</event>
<event>
 7    1  0.3802554E-013  0.5930196E+02  0.7816164E-02  0.1266605E+00
        -11   -1    0    0    0    0  0.00000000000E+00  0.00000000000E+00  0.45593999997E+02  0.45594000000E+02  0.51100000000E-03 0.  1.
         11   -1    0    0    0    0 -0.00000000000E+00 -0.00000000000E+00 -0.45593999997E+02  0.45594000000E+02  0.51100000000E-03 0. -1.
    9900012    2    1    2    0    0 -0.22071295039E+01 -0.17633595242E+02 -0.26474599000E+02  0.59301960829E+02  0.50000030641E+02 0.  0.
        -12    1    1    2    0    0  0.22071295039E+01  0.17633595242E+02  0.26474599000E+02  0.31886039171E+02  0.00000000000E+00 0.  1.
         11    1    3    3    0    0 -0.36748125973E+01  0.35354161985E+01 -0.53226676488E+01  0.73711740234E+01  0.51100000000E-03 0. -1.
        -11    1    3    3    0    0 -0.55318880859E+01 -0.15849425777E+02 -0.33090103499E+02  0.37104730603E+02  0.51100000000E-03 0.  1.
         12    1    3    3    0    0  0.69995711793E+01 -0.53195856628E+01  0.11938172147E+02  0.14826056203E+02  0.00000000000E+00 0. -1.
</event>
<event>
 7    1  0.3802554E-013  0.5930206E+02  0.7816164E-02  0.1266604E+00
        -11   -1    0    0    0    0  0.00000000000E+00  0.00000000000E+00  0.45593999997E+02  0.45594000000E+02  0.51100000000E-03 0. -1.
         11   -1    0    0    0    0 -0.00000000000E+00 -0.00000000000E+00 -0.45593999997E+02  0.45594000000E+02  0.51100000000E-03 0.  1.
    9900012    2    1    2    0    0  0.16562656802E+02  0.28894148635E+01  0.27093227863E+02  0.59302057727E+02  0.50000207359E+02 0.  0.
        -12    1    1    2    0    0 -0.16562656802E+02 -0.28894148635E+01 -0.27093227863E+02  0.31885942273E+02  0.00000000000E+00 0.  1.
         11    1    3    3    0    0 -0.12855563606E+01 -0.12475058309E+01 -0.12828772553E+01  0.22033384370E+01  0.51100000000E-03 0.  1.
        -11    1    3    3    0    0  0.25131732095E+02  0.13902945547E+01  0.37463168272E+02  0.45133422807E+02  0.51100000000E-03 0. -1.
         12    1    3    3    0    0 -0.72835189317E+01  0.27466261396E+01 -0.90870631533E+01  0.11965296483E+02  0.00000000000E+00 0. -1.
</event>
<event>
 7    1  0.3802554E-013  0.5930195E+02  0.7816164E-02  0.1266605E+00
        -11   -1    0    0    0    0  0.00000000000E+00  0.00000000000E+00  0.45593999997E+02  0.45594000000E+02  0.51100000000E-03 0. -1.
         11   -1    0    0    0    0 -0.00000000000E+00 -0.00000000000E+00 -0.45593999997E+02  0.45594000000E+02  0.51100000000E-03 0.  1.
    9900012    2    1    2    0    0  0.47457403962E+01  0.12794188225E+02  0.28818515970E+02  0.59301950276E+02  0.50000011396E+02 0.  0.
        -12    1    1    2    0    0 -0.47457403962E+01 -0.12794188225E+02 -0.28818515970E+02  0.31886049724E+02  0.00000000000E+00 0.  1.
         11    1    3    3    0    0 -0.62148522202E+00  0.16703630747E+01 -0.96509534925E+01  0.98141357367E+01  0.51100000000E-03 0. -1.
        -11    1    3    3    0    0  0.13399117243E+02  0.25476209415E+01  0.58943505294E+01  0.14858333816E+02  0.51100000000E-03 0.  1.
         12    1    3    3    0    0 -0.80318916247E+01  0.85762042088E+01  0.32575118933E+02  0.34629480724E+02  0.00000000000E+00 0. -1.
</event>
<event>
 7    1  0.3802554E-013  0.5930194E+02  0.7816164E-02  0.1266605E+00
        -11   -1    0    0    0    0  0.00000000000E+00  0.00000000000E+00  0.45593999997E+02  0.45594000000E+02  0.51100000000E-03 0. -1.
         11   -1    0    0    0    0 -0.00000000000E+00 -0.00000000000E+00 -0.45593999997E+02  0.45594000000E+02  0.51100000000E-03 0.  1.
    9900012    2    1    2    0    0 -0.19035947196E+02 -0.15487776561E+02  0.20358837908E+02  0.59301940516E+02  0.49999993595E+02 0.  0.
        -12    1    1    2    0    0  0.19035947196E+02  0.15487776561E+02 -0.20358837908E+02  0.31886059484E+02  0.00000000000E+00 0.  1.
         11    1    3    3    0    0 -0.25451227512E+02 -0.81693527318E+01  0.12761161373E+02  0.29620103743E+02  0.51100000000E-03 0. -1.
        -11    1    3    3    0    0 -0.10503593826E+02 -0.21724548579E+01  0.49035622369E+01  0.11793640924E+02  0.51100000000E-03 0.  1.
        -12    1    3    3    0    0  0.16918874141E+02 -0.51459689709E+01  0.26941142983E+01  0.17888195849E+02  0.00000000000E+00 0.  1.
</event>
<event>
 7    1  0.3802554E-013  0.5930188E+02  0.7816164E-02  0.1266605E+00
        -11   -1    0    0    0    0  0.00000000000E+00  0.00000000000E+00  0.45593999997E+02  0.45594000000E+02  0.51100000000E-03 0. -1.
         11   -1    0    0    0    0 -0.00000000000E+00 -0.00000000000E+00 -0.45593999997E+02  0.45594000000E+02  0.51100000000E-03 0.  1.
    9900012    2    1    2    0    0  0.15984303339E+02  0.44581742275E+00  0.27586738974E+02  0.59301876472E+02  0.49999876794E+02 0.  0.
        -12    1    1    2    0    0 -0.15984303339E+02 -0.44581742275E+00 -0.27586738974E+02  0.31886123528E+02  0.00000000000E+00 0.  1.
         11    1    3    3    0    0 -0.55173678363E+01 -0.41147408877E+01 -0.51863175614E+01  0.86180235856E+01  0.51100000000E-03 0. -1.
        -11    1    3    3    0    0  0.12575777328E+02 -0.47631259763E+00 -0.34415680459E+01  0.13046893882E+02  0.51100000000E-03 0.  1.
         12    1    3    3    0    0  0.89258938478E+01  0.50368709081E+01  0.36214624582E+02  0.37636959005E+02  0.00000000000E+00 0. -1.
</event>
<event>
 7    1  0.3802554E-013  0.5930194E+02  0.7816164E-02  0.1266605E+00
        -11   -1    0    0    0    0  0.00000000000E+00  0.00000000000E+00  0.45593999997E+02  0.45594000000E+02  0.51100000000E-03 0. -1.
         11   -1    0    0    0    0 -0.00000000000E+00 -0.00000000000E+00 -0.45593999997E+02  0.45594000000E+02  0.51100000000E-03 0.  1.
    9900012    2    1    2    0    0 -0.25332963059E+02  0.39442919679E+01  0.18957962141E+02  0.59301940585E+02  0.49999993722E+02 0.  0.
        -12    1    1    2    0    0  0.25332963059E+02 -0.39442919679E+01 -0.18957962141E+02  0.31886059415E+02  0.00000000000E+00 0.  1.
         11    1    3    3    0    0 -0.15750570139E+02 -0.37011768618E+01 -0.17708545089E+01  0.16276212576E+02  0.51100000000E-03 0. -1.
        -11    1    3    3    0    0 -0.50362800328E+01 -0.12722419115E+01 -0.96942887051E+01  0.10998270310E+02  0.51100000000E-03 0.  1.
         12    1    3    3    0    0 -0.45461128864E+01  0.89177107412E+01  0.30423105355E+02  0.32027457699E+02  0.00000000000E+00 0. -1.
</event>
<event>
 7    1  0.3802554E-013  0.5930193E+02  0.7816164E-02  0.1266605E+00
        -11   -1    0    0    0    0  0.00000000000E+00  0.00000000000E+00  0.45593999997E+02  0.45594000000E+02  0.51100000000E-03 0. -1.
         11   -1    0    0    0    0 -0.00000000000E+00 -0.00000000000E+00 -0.45593999997E+02  0.45594000000E+02  0.51100000000E-03 0.  1.
    9900012    2    1    2    0    0 -0.12171885692E+02  0.32162111713E+00  0.29469700628E+02  0.59301929427E+02  0.49999973372E+02 0.  0.
        -12    1    1    2    0    0  0.12171885692E+02 -0.32162111713E+00 -0.29469700628E+02  0.31886070573E+02  0.00000000000E+00 0.  1.
         11    1    3    3    0    0 -0.13771494577E+01  0.17492630225E+02  0.28246136766E+01  0.17772650210E+02  0.51100000000E-03 0. -1.
        -11    1    3    3    0    0 -0.34474940707E+01 -0.70087822405E+01 -0.37386793671E+01  0.86594438351E+01  0.51100000000E-03 0.  1.
        -12    1    3    3    0    0 -0.73472421639E+01 -0.10162226867E+02  0.30383766319E+02  0.32869835382E+02  0.00000000000E+00 0.  1.
</event>
<event>
 7    1  0.3802554E-013  0.5930196E+02  0.7816164E-02  0.1266605E+00
        -11   -1    0    0    0    0  0.00000000000E+00  0.00000000000E+00  0.45593999997E+02  0.45594000000E+02  0.51100000000E-03 0. -1.
         11   -1    0    0    0    0 -0.00000000000E+00 -0.00000000000E+00 -0.45593999997E+02  0.45594000000E+02  0.51100000000E-03 0.  1.
    9900012    2    1    2    0    0 -0.94790156812E+01 -0.29662229081E+02  0.68571261675E+01  0.59301956790E+02  0.50000023275E+02 0.  0.
        -12    1    1    2    0    0  0.94790156812E+01  0.29662229081E+02 -0.68571261675E+01  0.31886043210E+02  0.00000000000E+00 0.  1.
         11    1    3    3    0    0 -0.77622118084E+01 -0.23596895439E+02 -0.46348768140E+01  0.25269497222E+02  0.51100000000E-03 0. -1.
        -11    1    3    3    0    0  0.66630474673E+01 -0.16110898561E+02  0.11616589654E+02  0.20949997839E+02  0.51100000000E-03 0.  1.
         12    1    3    3    0    0 -0.83798513400E+01  0.10045564920E+02 -0.12458667236E+00  0.13082461728E+02  0.00000000000E+00 0. -1.
</event>
<event>
 7    1  0.3802554E-013  0.5930194E+02  0.7816164E-02  0.1266605E+00
        -11   -1    0    0    0    0  0.00000000000E+00  0.00000000000E+00  0.45593999997E+02  0.45594000000E+02  0.51100000000E-03 0.  1.
         11   -1    0    0    0    0 -0.00000000000E+00 -0.00000000000E+00 -0.45593999997E+02  0.45594000000E+02  0.51100000000E-03 0. -1.
    9900012    2    1    2    0    0  0.17356978137E+02 -0.18446855320E+02 -0.19369299725E+02  0.59301938263E+02  0.49999989486E+02 0.  0.
        -12    1    1    2    0    0 -0.17356978137E+02  0.18446855320E+02  0.19369299725E+02  0.31886061737E+02  0.00000000000E+00 0.  1.
         11    1    3    3    0    0  0.16498808729E+01  0.55324757929E+01  0.48963348140E+01  0.75699729303E+01  0.51100000000E-03 0. -1.
        -11    1    3    3    0    0 -0.34307648405E+01 -0.39263956591E-02  0.70833199774E+01  0.78704247008E+01  0.51100000000E-03 0.  1.
        -12    1    3    3    0    0  0.19137862105E+02 -0.23975404718E+02 -0.31348954516E+02  0.43861540632E+02  0.00000000000E+00 0.  1.
</event>
<event>
 7    1  0.3802554E-013  0.5930177E+02  0.7816164E-02  0.1266605E+00
        -11   -1    0    0    0    0  0.00000000000E+00  0.00000000000E+00  0.45593999997E+02  0.45594000000E+02  0.51100000000E-03 0.  1.
         11   -1    0    0    0    0 -0.00000000000E+00 -0.00000000000E+00 -0.45593999997E+02  0.45594000000E+02  0.51100000000E-03 0. -1.
    9900012    2    1    2    0    0  0.10692853190E+02 -0.44911977967E+01 -0.29702246175E+02  0.59301774215E+02  0.49999690301E+02 0.  0.
        -12    1    1    2    0    0 -0.10692853190E+02  0.44911977967E+01  0.29702246175E+02  0.31886225785E+02  0.00000000000E+00 0.  1.
         11    1    3    3    0    0  0.66358445800E+01  0.24572388158E+00 -0.16231870867E+02  0.17537629419E+02  0.51100000000E-03 0. -1.
        -11    1    3    3    0    0 -0.11841938039E+02 -0.10365485047E+02 -0.18381089092E+02  0.24197917540E+02  0.51100000000E-03 0.  1.
         12    1    3    3    0    0  0.15898946648E+02  0.56285633691E+01  0.49107137846E+01  0.17566227256E+02  0.00000000000E+00 0. -1.
</event>
<event>
 7    1  0.3802554E-013  0.5930196E+02  0.7816164E-02  0.1266605E+00
        -11   -1    0    0    0    0  0.00000000000E+00  0.00000000000E+00  0.45593999997E+02  0.45594000000E+02  0.51100000000E-03 0.  1.
         11   -1    0    0    0    0 -0.00000000000E+00 -0.00000000000E+00 -0.45593999997E+02  0.45594000000E+02  0.51100000000E-03 0. -1.
    9900012    2    1    2    0    0  0.54894242885E+01  0.88987365514E+00 -0.31397353494E+02  0.59301961353E+02  0.50000031598E+02 0.  0.
        -12    1    1    2    0    0 -0.54894242885E+01 -0.88987365514E+00  0.31397353494E+02  0.31886038647E+02  0.00000000000E+00 0.  1.
         11    1    3    3    0    0 -0.91494232809E+01 -0.94670991661E+01 -0.90660271189E+01  0.15985329555E+02  0.51100000000E-03 0. -1.
        -11    1    3    3    0    0  0.14213256193E+02  0.28417392522E+01 -0.29533609472E+02  0.32898726758E+02  0.51100000000E-03 0.  1.
         12    1    3    3    0    0  0.42559137595E+00  0.75152335691E+01  0.72022830970E+01  0.10417905040E+02  0.00000000000E+00 0. -1.
</event>
<event>
 7    1  0.3802554E-013  0.5930196E+02  0.7816164E-02  0.1266605E+00
        -11   -1    0    0    0    0  0.00000000000E+00  0.00000000000E+00  0.45593999997E+02  0.45594000000E+02  0.51100000000E-03 0.  1.
         11   -1    0    0    0    0 -0.00000000000E+00 -0.00000000000E+00 -0.45593999997E+02  0.45594000000E+02  0.51100000000E-03 0. -1.
    9900012    2    1    2    0    0  0.19542835081E+02  0.22757036163E+02 -0.10812705944E+02  0.59301957477E+02  0.50000024528E+02 0.  0.
        -12    1    1    2    0    0 -0.19542835081E+02 -0.22757036163E+02  0.10812705944E+02  0.31886042523E+02  0.00000000000E+00 0.  1.
         11    1    3    3    0    0  0.32501048160E+01  0.33257217624E+01 -0.32841331114E+01  0.56929023451E+01  0.51100000000E-03 0. -1.
        -11    1    3    3    0    0  0.25275663489E+02  0.28471510640E+02 -0.12286455114E+02  0.40005537897E+02  0.51100000000E-03 0.  1.
        -12    1    3    3    0    0 -0.89829332244E+01 -0.90401962389E+01  0.47578822810E+01  0.13603517235E+02  0.00000000000E+00 0.  1.
</event>
<event>
 7    1  0.3802554E-013  0.5930194E+02  0.7816164E-02  0.1266605E+00
        -11   -1    0    0    0    0  0.00000000000E+00  0.00000000000E+00  0.45593999997E+02  0.45594000000E+02  0.51100000000E-03 0.  1.
         11   -1    0    0    0    0 -0.00000000000E+00 -0.00000000000E+00 -0.45593999997E+02  0.45594000000E+02  0.51100000000E-03 0. -1.
    9900012    2    1    2    0    0  0.29775914939E+01  0.29795900604E+02 -0.10957152922E+02  0.59301938091E+02  0.49999989173E+02 0.  0.
        -12    1    1    2    0    0 -0.29775914939E+01 -0.29795900604E+02  0.10957152922E+02  0.31886061909E+02  0.00000000000E+00 0.  1.
         11    1    3    3    0    0 -0.19428680880E+01  0.15791639072E+02 -0.75683081206E+01  0.17619020661E+02  0.51100000000E-03 0. -1.
        -11    1    3    3    0    0  0.73877932493E+01  0.23979502081E+02  0.80069275866E+01  0.26338316172E+02  0.51100000000E-03 0.  1.
        -12    1    3    3    0    0 -0.24673336674E+01 -0.99752405494E+01 -0.11395772388E+02  0.15344601258E+02  0.00000000000E+00 0.  1.
</event>
<event>
 7    1  0.3802554E-013  0.5930194E+02  0.7816164E-02  0.1266605E+00
        -11   -1    0    0    0    0  0.00000000000E+00  0.00000000000E+00  0.45593999997E+02  0.45594000000E+02  0.51100000000E-03 0. -1.
         11   -1    0    0    0    0 -0.00000000000E+00 -0.00000000000E+00 -0.45593999997E+02  0.45594000000E+02  0.51100000000E-03 0.  1.
    9900012    2    1    2    0    0 -0.15351167070E+02  0.18451217121E+02  0.20990832150E+02  0.59301940695E+02  0.49999993921E+02 0.  0.
        -12    1    1    2    0    0  0.15351167070E+02 -0.18451217121E+02 -0.20990832150E+02  0.31886059305E+02  0.00000000000E+00 0.  1.
         11    1    3    3    0    0 -0.60684360245E+01  0.29652544124E+02  0.22534716699E+02  0.37734768394E+02  0.51100000000E-03 0. -1.
        -11    1    3    3    0    0 -0.10063817505E+02 -0.23913866628E+01  0.40427891644E+01  0.11106002765E+02  0.51100000000E-03 0.  1.
        -12    1    3    3    0    0  0.78108645871E+00 -0.88099403404E+01 -0.55866737133E+01  0.10461169535E+02  0.00000000000E+00 0.  1.
</event>
<event>
 7    1  0.3802554E-013  0.5930194E+02  0.7816164E-02  0.1266605E+00
        -11   -1    0    0    0    0  0.00000000000E+00  0.00000000000E+00  0.45593999997E+02  0.45594000000E+02  0.51100000000E-03 0.  1.
         11   -1    0    0    0    0 -0.00000000000E+00 -0.00000000000E+00 -0.45593999997E+02  0.45594000000E+02  0.51100000000E-03 0. -1.
    9900012    2    1    2    0    0  0.25854609279E+01  0.27594462719E+02  0.15766482682E+02  0.59301937886E+02  0.49999988800E+02 0.  0.
        -12    1    1    2    0    0 -0.25854609279E+01 -0.27594462719E+02 -0.15766482682E+02  0.31886062114E+02  0.00000000000E+00 0.  1.
         11    1    3    3    0    0 -0.42284905024E+01  0.12591752480E+02 -0.63921926209E+01  0.14740844250E+02  0.51100000000E-03 0. -1.
        -11    1    3    3    0    0  0.43678027503E+01 -0.46062581246E+01 -0.69282280621E+01  0.93965769894E+01  0.51100000000E-03 0.  1.
         12    1    3    3    0    0  0.24461486800E+01  0.19608968363E+02  0.29086903365E+02  0.35164516647E+02  0.00000000000E+00 0. -1.
</event>
<event>
 7    1  0.3802554E-013  0.5930195E+02  0.7816164E-02  0.1266605E+00
        -11   -1    0    0    0    0  0.00000000000E+00  0.00000000000E+00  0.45593999997E+02  0.45594000000E+02  0.51100000000E-03 0.  1.
         11   -1    0    0    0    0 -0.00000000000E+00 -0.00000000000E+00 -0.45593999997E+02  0.45594000000E+02  0.51100000000E-03 0. -1.
    9900012    2    1    2    0    0  0.15924000728E+02 -0.12712515306E+02 -0.24526275373E+02  0.59301952451E+02  0.50000015363E+02 0.  0.
        -12    1    1    2    0    0 -0.15924000728E+02  0.12712515306E+02  0.24526275373E+02  0.31886047549E+02  0.00000000000E+00 0.  1.
         11    1    3    3    0    0 -0.59108219558E+01 -0.18017510092E+01 -0.20986375079E+01  0.65259790487E+01  0.51100000000E-03 0. -1.
        -11    1    3    3    0    0 -0.10897336071E+02 -0.98701822849E+01 -0.41746028966E+01  0.15283970079E+02  0.51100000000E-03 0.  1.
         12    1    3    3    0    0  0.32732158755E+02 -0.10405820120E+01 -0.18253034968E+02  0.37492003324E+02  0.00000000000E+00 0. -1.
</event>
<event>
 7    1  0.3802554E-013  0.5930193E+02  0.7816164E-02  0.1266605E+00
        -11   -1    0    0    0    0  0.00000000000E+00  0.00000000000E+00  0.45593999997E+02  0.45594000000E+02  0.51100000000E-03 0.  1.
         11   -1    0    0    0    0 -0.00000000000E+00 -0.00000000000E+00 -0.45593999997E+02  0.45594000000E+02  0.51100000000E-03 0. -1.
    9900012    2    1    2    0    0  0.33875468479E+01  0.31705049065E+02 -0.18941965152E+00  0.59301929535E+02  0.49999973569E+02 0.  0.
        -12    1    1    2    0    0 -0.33875468479E+01 -0.31705049065E+02  0.18941965152E+00  0.31886070465E+02  0.00000000000E+00 0.  1.
         11    1    3    3    0    0 -0.45560457152E+01 -0.20161869281E+01  0.65371876212E+01  0.82193299328E+01  0.51100000000E-03 0. -1.
        -11    1    3    3    0    0 -0.10478936952E+02  0.47974707542E+01  0.77196823786E+01  0.13871457802E+02  0.51100000000E-03 0.  1.
         12    1    3    3    0    0  0.18422529515E+02  0.28923765239E+02 -0.14446289651E+02  0.37211141800E+02  0.00000000000E+00 0. -1.
</event>
<event>
 7    1  0.3802554E-013  0.5930197E+02  0.7816164E-02  0.1266605E+00
        -11   -1    0    0    0    0  0.00000000000E+00  0.00000000000E+00  0.45593999997E+02  0.45594000000E+02  0.51100000000E-03 0.  1.
         11   -1    0    0    0    0 -0.00000000000E+00 -0.00000000000E+00 -0.45593999997E+02  0.45594000000E+02  0.51100000000E-03 0. -1.
    9900012    2    1    2    0    0 -0.65139087873E+01  0.29004827564E+02 -0.11532916697E+02  0.59301965482E+02  0.50000039128E+02 0.  0.
        -12    1    1    2    0    0  0.65139087873E+01 -0.29004827564E+02  0.11532916697E+02  0.31886034518E+02  0.00000000000E+00 0.  1.
         11    1    3    3    0    0  0.17695802394E+01 -0.55361709490E+01 -0.68198062989E+01  0.89604888938E+01  0.51100000000E-03 0. -1.
        -11    1    3    3    0    0 -0.12082464303E+02 -0.29277541765E+01 -0.18899426668E+01  0.12574958119E+02  0.51100000000E-03 0.  1.
        -12    1    3    3    0    0  0.37989752766E+01  0.37468752689E+02 -0.28231677315E+01  0.37766518469E+02  0.00000000000E+00 0.  1.
</event>
<event>
 7    1  0.3802554E-013  0.5930192E+02  0.7816164E-02  0.1266605E+00
        -11   -1    0    0    0    0  0.00000000000E+00  0.00000000000E+00  0.45593999997E+02  0.45594000000E+02  0.51100000000E-03 0.  1.
         11   -1    0    0    0    0 -0.00000000000E+00 -0.00000000000E+00 -0.45593999997E+02  0.45594000000E+02  0.51100000000E-03 0. -1.
    9900012    2    1    2    0    0  0.22325396415E+02  0.12857603354E+02 -0.18787779093E+02  0.59301922594E+02  0.49999960910E+02 0.  0.
        -12    1    1    2    0    0 -0.22325396415E+02 -0.12857603354E+02  0.18787779093E+02  0.31886077406E+02  0.00000000000E+00 0.  1.
         11    1    3    3    0    0  0.34066089662E+01  0.42246112546E+01 -0.70044384838E+01  0.88608398945E+01  0.51100000000E-03 0. -1.
        -11    1    3    3    0    0 -0.94120336548E+01  0.66763956218E+01  0.95044562004E+01  0.14949759996E+02  0.51100000000E-03 0.  1.
         12    1    3    3    0    0  0.28330821104E+02  0.19565964774E+01 -0.21287796810E+02  0.35491322703E+02  0.00000000000E+00 0. -1.
</event>
<event>
 7    1  0.3802554E-013  0.5930235E+02  0.7816164E-02  0.1266603E+00
        -11   -1    0    0    0    0  0.00000000000E+00  0.00000000000E+00  0.45593999997E+02  0.45594000000E+02  0.51100000000E-03 0.  1.
         11   -1    0    0    0    0 -0.00000000000E+00 -0.00000000000E+00 -0.45593999997E+02  0.45594000000E+02  0.51100000000E-03 0. -1.
    9900012    2    1    2    0    0  0.12783115084E+02  0.62744700601E+01 -0.28529247276E+02  0.59302345610E+02  0.50000732383E+02 0.  0.
        -12    1    1    2    0    0 -0.12783115084E+02 -0.62744700601E+01  0.28529247276E+02  0.31885654390E+02  0.00000000000E+00 0.  1.
         11    1    3    3    0    0  0.70578562092E-01  0.97672754574E+01 -0.14739139439E+02  0.17681823516E+02  0.51100000000E-03 0. -1.
        -11    1    3    3    0    0 -0.96874608451E+01  0.11987502031E+01  0.59205703929E+01  0.11416525466E+02  0.51100000000E-03 0.  1.
        -12    1    3    3    0    0  0.22399997367E+02 -0.46915556005E+01 -0.19710678230E+02  0.30203996627E+02  0.00000000000E+00 0.  1.
</event>
<event>
 7    1  0.3802554E-013  0.5930189E+02  0.7816164E-02  0.1266605E+00
        -11   -1    0    0    0    0  0.00000000000E+00  0.00000000000E+00  0.45593999997E+02  0.45594000000E+02  0.51100000000E-03 0.  1.
         11   -1    0    0    0    0 -0.00000000000E+00 -0.00000000000E+00 -0.45593999997E+02  0.45594000000E+02  0.51100000000E-03 0. -1.
    9900012    2    1    2    0    0 -0.12355359674E+02  0.22869532952E+02  0.18467629825E+02  0.59301893285E+02  0.49999907457E+02 0.  0.
        -12    1    1    2    0    0  0.12355359674E+02 -0.22869532952E+02 -0.18467629825E+02  0.31886106715E+02  0.00000000000E+00 0.  1.
         11    1    3    3    0    0  0.97527098908E-01 -0.13523837431E+02 -0.72012289884E+00  0.13543347727E+02  0.51100000000E-03 0. -1.
        -11    1    3    3    0    0  0.18964061960E+01 -0.49524077752E+00  0.89379166411E+00  0.21541781932E+01  0.51100000000E-03 0.  1.
        -12    1    3    3    0    0 -0.14349292969E+02  0.36888611160E+02  0.18293961059E+02  0.43604367365E+02  0.00000000000E+00 0.  1.
</event>
<event>
 7    1  0.3802554E-013  0.5930194E+02  0.7816164E-02  0.1266605E+00
        -11   -1    0    0    0    0  0.00000000000E+00  0.00000000000E+00  0.45593999997E+02  0.45594000000E+02  0.51100000000E-03 0. -1.
         11   -1    0    0    0    0 -0.00000000000E+00 -0.00000000000E+00 -0.45593999997E+02  0.45594000000E+02  0.51100000000E-03 0.  1.
    9900012    2    1    2    0    0  0.23014777724E+02  0.11336399600E+02  0.18934806598E+02  0.59301939559E+02  0.49999991850E+02 0.  0.
        -12    1    1    2    0    0 -0.23014777724E+02 -0.11336399600E+02 -0.18934806598E+02  0.31886060441E+02  0.00000000000E+00 0.  1.
         11    1    3    3    0    0  0.79159947378E+01 -0.16722254337E+01  0.64221516462E+01  0.10329731004E+02  0.51100000000E-03 0. -1.
        -11    1    3    3    0    0  0.27052677374E+02 -0.23965709639E+01  0.31465394306E+01  0.27340292905E+02  0.51100000000E-03 0.  1.
         12    1    3    3    0    0 -0.11953894388E+02  0.15405195997E+02  0.93661155207E+01  0.21631915650E+02  0.00000000000E+00 0. -1.
</event>
<event>
 7    1  0.3802554E-013  0.5930173E+02  0.7816164E-02  0.1266606E+00
        -11   -1    0    0    0    0  0.00000000000E+00  0.00000000000E+00  0.45593999997E+02  0.45594000000E+02  0.51100000000E-03 0. -1.
         11   -1    0    0    0    0 -0.00000000000E+00 -0.00000000000E+00 -0.45593999997E+02  0.45594000000E+02  0.51100000000E-03 0.  1.
    9900012    2    1    2    0    0  0.29860547859E+02 -0.89564233644E+01 -0.66981031453E+01  0.59301726720E+02  0.49999603681E+02 0.  0.
        -12    1    1    2    0    0 -0.29860547859E+02  0.89564233644E+01  0.66981031453E+01  0.31886273280E+02  0.00000000000E+00 0.  1.
         11    1    3    3    0    0 -0.43520415725E+01 -0.38533614094E+00 -0.56167137992E+00  0.44050226776E+01  0.51100000000E-03 0. -1.
        -11    1    3    3    0    0  0.78656880463E+01  0.10737219505E+02 -0.15965023389E+02  0.20785545536E+02  0.51100000000E-03 0.  1.
         12    1    3    3    0    0  0.26346901385E+02 -0.19308306729E+02  0.98285916240E+01  0.34111158506E+02  0.00000000000E+00 0. -1.
</event>
<event>
 7    1  0.3802554E-013  0.5930192E+02  0.7816164E-02  0.1266605E+00
        -11   -1    0    0    0    0  0.00000000000E+00  0.00000000000E+00  0.45593999997E+02  0.45594000000E+02  0.51100000000E-03 0.  1.
         11   -1    0    0    0    0 -0.00000000000E+00 -0.00000000000E+00 -0.45593999997E+02  0.45594000000E+02  0.51100000000E-03 0. -1.
    9900012    2    1    2    0    0 -0.49992355460E+01  0.38960324424E+01 -0.31249810112E+02  0.59301920641E+02  0.49999957348E+02 0.  0.
        -12    1    1    2    0    0  0.49992355460E+01 -0.38960324424E+01  0.31249810112E+02  0.31886079359E+02  0.00000000000E+00 0.  1.
         11    1    3    3    0    0 -0.94370243950E+01  0.11285716956E+02 -0.15269082512E+02  0.21203059158E+02  0.51100000000E-03 0. -1.
        -11    1    3    3    0    0 -0.10941218129E+02  0.34893259462E+01 -0.15453633099E+02  0.19253582158E+02  0.51100000000E-03 0.  1.
        -12    1    3    3    0    0  0.15379006978E+02 -0.10879010459E+02 -0.52709450162E+00  0.18845279325E+02  0.00000000000E+00 0.  1.
</event>
<event>
 7    1  0.3802554E-013  0.5930193E+02  0.7816164E-02  0.1266605E+00
        -11   -1    0    0    0    0  0.00000000000E+00  0.00000000000E+00  0.45593999997E+02  0.45594000000E+02  0.51100000000E-03 0. -1.
         11   -1    0    0    0    0 -0.00000000000E+00 -0.00000000000E+00 -0.45593999997E+02  0.45594000000E+02  0.51100000000E-03 0.  1.
    9900012    2    1    2    0    0  0.10056087077E+02 -0.22845304944E+02 -0.19841585048E+02  0.59301931843E+02  0.49999977778E+02 0.  0.
        -12    1    1    2    0    0 -0.10056087077E+02  0.22845304944E+02  0.19841585048E+02  0.31886068157E+02  0.00000000000E+00 0.  1.
         11    1    3    3    0    0  0.74105386511E+01 -0.26428987376E+02  0.72945582261E+01  0.28401021756E+02  0.51100000000E-03 0. -1.
        -11    1    3    3    0    0 -0.13967487811E-01  0.79003604590E+01 -0.85744515235E+01  0.11659207077E+02  0.51100000000E-03 0.  1.
        -12    1    3    3    0    0  0.26595159139E+01 -0.43166780273E+01 -0.18561691750E+02  0.19241703010E+02  0.00000000000E+00 0.  1.
</event>
<event>
 7    1  0.3802554E-013  0.5930188E+02  0.7816164E-02  0.1266605E+00
        -11   -1    0    0    0    0  0.00000000000E+00  0.00000000000E+00  0.45593999997E+02  0.45594000000E+02  0.51100000000E-03 0. -1.
         11   -1    0    0    0    0 -0.00000000000E+00 -0.00000000000E+00 -0.45593999997E+02  0.45594000000E+02  0.51100000000E-03 0.  1.
    9900012    2    1    2    0    0  0.22757130227E+02  0.13414747361E+02 -0.17857282552E+02  0.59301875069E+02  0.49999874236E+02 0.  0.
        -12    1    1    2    0    0 -0.22757130227E+02 -0.13414747361E+02  0.17857282552E+02  0.31886124931E+02  0.00000000000E+00 0.  1.
         11    1    3    3    0    0  0.17734341220E+02 -0.17356168591E+01 -0.13672441953E+02  0.22460073322E+02  0.51100000000E-03 0. -1.
        -11    1    3    3    0    0  0.10588545258E+02  0.39932252298E+01 -0.16044534068E+02  0.19633904658E+02  0.51100000000E-03 0.  1.
         12    1    3    3    0    0 -0.55657562507E+01  0.11157138990E+02  0.11859693468E+02  0.17207897089E+02  0.00000000000E+00 0. -1.
</event>
<event>
 7    1  0.3802554E-013  0.5930197E+02  0.7816164E-02  0.1266605E+00
        -11   -1    0    0    0    0  0.00000000000E+00  0.00000000000E+00  0.45593999997E+02  0.45594000000E+02  0.51100000000E-03 0.  1.
         11   -1    0    0    0    0 -0.00000000000E+00 -0.00000000000E+00 -0.45593999997E+02  0.45594000000E+02  0.51100000000E-03 0. -1.
    9900012    2    1    2    0    0 -0.14326331749E+02 -0.16086936389E+02 -0.23509267742E+02  0.59301968990E+02  0.50000045526E+02 0.  0.
        -12    1    1    2    0    0  0.14326331749E+02  0.16086936389E+02  0.23509267742E+02  0.31886031010E+02  0.00000000000E+00 0.  1.
         11    1    3    3    0    0  0.32074195462E-01  0.47024164919E+01 -0.13796900634E+02  0.14576289548E+02  0.51100000000E-03 0. -1.
        -11    1    3    3    0    0 -0.91272262450E+01 -0.99928242926E+01  0.13173066291E+02  0.18886303822E+02  0.51100000000E-03 0.  1.
         12    1    3    3    0    0 -0.52311796995E+01 -0.10796528589E+02 -0.22885433399E+02  0.25839375621E+02  0.00000000000E+00 0. -1.
</event>
<event>
 7    1  0.3802554E-013  0.5930197E+02  0.7816164E-02  0.1266605E+00
        -11   -1    0    0    0    0  0.00000000000E+00  0.00000000000E+00  0.45593999997E+02  0.45594000000E+02  0.51100000000E-03 0.  1.
         11   -1    0    0    0    0 -0.00000000000E+00 -0.00000000000E+00 -0.45593999997E+02  0.45594000000E+02  0.51100000000E-03 0. -1.
    9900012    2    1    2    0    0  0.84790703567E+01 -0.83397112008E+01 -0.29585023302E+02  0.59301968249E+02  0.50000044174E+02 0.  0.
        -12    1    1    2    0    0 -0.84790703567E+01  0.83397112008E+01  0.29585023302E+02  0.31886031751E+02  0.00000000000E+00 0.  1.
         11    1    3    3    0    0  0.11645690357E+02 -0.14909979468E+02 -0.30672828478E+02  0.36038201935E+02  0.51100000000E-03 0. -1.
        -11    1    3    3    0    0 -0.11271000588E+02 -0.39570711178E+00 -0.32397991983E+01  0.11734067389E+02  0.51100000000E-03 0.  1.
        -12    1    3    3    0    0  0.81043805875E+01  0.69659753789E+01  0.43276043739E+01  0.11529698925E+02  0.00000000000E+00 0.  1.
</event>
<event>
 7    1  0.3802554E-013  0.5930195E+02  0.7816164E-02  0.1266605E+00
        -11   -1    0    0    0    0  0.00000000000E+00  0.00000000000E+00  0.45593999997E+02  0.45594000000E+02  0.51100000000E-03 0.  1.
         11   -1    0    0    0    0 -0.00000000000E+00 -0.00000000000E+00 -0.45593999997E+02  0.45594000000E+02  0.51100000000E-03 0. -1.
    9900012    2    1    2    0    0 -0.97997524836E+01  0.27051185428E+02  0.13744770246E+02  0.59301945197E+02  0.50000002133E+02 0.  0.
        -12    1    1    2    0    0  0.97997524836E+01 -0.27051185428E+02 -0.13744770246E+02  0.31886054803E+02  0.00000000000E+00 0.  1.
         11    1    3    3    0    0  0.13204432011E+01  0.13633034479E+01  0.35330289904E+00  0.19305413070E+01  0.51100000000E-03 0. -1.
        -11    1    3    3    0    0 -0.26178934434E+01 -0.77742736472E+01 -0.11984754704E+02  0.14523327525E+02  0.51100000000E-03 0.  1.
         12    1    3    3    0    0 -0.85023022413E+01  0.33462155627E+02  0.25376222051E+02  0.42848076365E+02  0.00000000000E+00 0. -1.
</event>
<event>
 7    1  0.3802554E-013  0.5930194E+02  0.7816164E-02  0.1266605E+00
        -11   -1    0    0    0    0  0.00000000000E+00  0.00000000000E+00  0.45593999997E+02  0.45594000000E+02  0.51100000000E-03 0.  1.
         11   -1    0    0    0    0 -0.00000000000E+00 -0.00000000000E+00 -0.45593999997E+02  0.45594000000E+02  0.51100000000E-03 0. -1.
    9900012    2    1    2    0    0  0.40480735529E+01 -0.17022987082E+02 -0.26656179499E+02  0.59301938873E+02  0.49999990600E+02 0.  0.
        -12    1    1    2    0    0 -0.40480735529E+01  0.17022987082E+02  0.26656179499E+02  0.31886061127E+02  0.00000000000E+00 0.  1.
         11    1    3    3    0    0 -0.85486972409E+01 -0.10200994810E+02 -0.31280094692E+01  0.13672050436E+02  0.51100000000E-03 0. -1.
        -11    1    3    3    0    0  0.14104643905E+02  0.10836893471E+02 -0.21326571784E+02  0.27770522215E+02  0.51100000000E-03 0.  1.
         12    1    3    3    0    0 -0.15078731111E+01 -0.17658885744E+02 -0.22015982466E+01  0.17859366222E+02  0.00000000000E+00 0. -1.
</event>
<event>
 7    1  0.3802554E-013  0.5930194E+02  0.7816164E-02  0.1266605E+00
        -11   -1    0    0    0    0  0.00000000000E+00  0.00000000000E+00  0.45593999997E+02  0.45594000000E+02  0.51100000000E-03 0.  1.
         11   -1    0    0    0    0 -0.00000000000E+00 -0.00000000000E+00 -0.45593999997E+02  0.45594000000E+02  0.51100000000E-03 0. -1.
    9900012    2    1    2    0    0  0.26386007325E+02 -0.93103981542E+01 -0.15291050462E+02  0.59301935323E+02  0.49999984125E+02 0.  0.
        -12    1    1    2    0    0 -0.26386007325E+02  0.93103981542E+01  0.15291050462E+02  0.31886064677E+02  0.00000000000E+00 0.  1.
         11    1    3    3    0    0  0.13433414208E+02 -0.10946811352E+02 -0.22697154330E+02  0.28556087109E+02  0.51100000000E-03 0. -1.
        -11    1    3    3    0    0  0.47505837281E+01  0.10769679847E+02 -0.54490897179E+01  0.12970991820E+02  0.51100000000E-03 0.  1.
        -12    1    3    3    0    0  0.82020093891E+01 -0.91332666490E+01  0.12855193586E+02  0.17774856394E+02  0.00000000000E+00 0.  1.
</event>
<event>
 7    1  0.3802554E-013  0.5930193E+02  0.7816164E-02  0.1266605E+00
        -11   -1    0    0    0    0  0.00000000000E+00  0.00000000000E+00  0.45593999997E+02  0.45594000000E+02  0.51100000000E-03 0. -1.
         11   -1    0    0    0    0 -0.00000000000E+00 -0.00000000000E+00 -0.45593999997E+02  0.45594000000E+02  0.51100000000E-03 0.  1.
    9900012    2    1    2    0    0 -0.79426530079E+01 -0.17145675301E+02  0.25683873399E+02  0.59301932962E+02  0.49999979820E+02 0.  0.
        -12    1    1    2    0    0  0.79426530079E+01  0.17145675301E+02 -0.25683873399E+02  0.31886067038E+02  0.00000000000E+00 0.  1.
         11    1    3    3    0    0  0.85536832512E+01 -0.92790878788E+00  0.20180604440E+01  0.88373683920E+01  0.51100000000E-03 0.  1.
        -11    1    3    3    0    0 -0.11007152885E+02  0.10106099570E+02  0.46683110778E+00  0.14950203835E+02  0.51100000000E-03 0. -1.
         12    1    3    3    0    0 -0.54891833739E+01 -0.26323866083E+02  0.23198981847E+02  0.35514360735E+02  0.00000000000E+00 0. -1.
</event>
<event>
 7    1  0.3802554E-013  0.5930185E+02  0.7816164E-02  0.1266605E+00
        -11   -1    0    0    0    0  0.00000000000E+00  0.00000000000E+00  0.45593999997E+02  0.45594000000E+02  0.51100000000E-03 0.  1.
         11   -1    0    0    0    0 -0.00000000000E+00 -0.00000000000E+00 -0.45593999997E+02  0.45594000000E+02  0.51100000000E-03 0. -1.
    9900012    2    1    2    0    0 -0.42720460972E+01 -0.23494158950E+02 -0.21130560564E+02  0.59301851403E+02  0.49999831074E+02 0.  0.
        -12    1    1    2    0    0  0.42720460972E+01  0.23494158950E+02  0.21130560564E+02  0.31886148597E+02  0.00000000000E+00 0.  1.
         11    1    3    3    0    0 -0.11969039730E+02  0.62483082914E+00 -0.18165155573E+02  0.21762839955E+02  0.51100000000E-03 0. -1.
        -11    1    3    3    0    0 -0.38952555486E+01 -0.36461916293E+01 -0.11367032789E+02  0.12556956792E+02  0.51100000000E-03 0.  1.
        -12    1    3    3    0    0  0.11592249182E+02 -0.20472798150E+02  0.84016277989E+01  0.24982054656E+02  0.00000000000E+00 0.  1.
</event>
<event>
 7    1  0.3802554E-013  0.5930196E+02  0.7816164E-02  0.1266605E+00
        -11   -1    0    0    0    0  0.00000000000E+00  0.00000000000E+00  0.45593999997E+02  0.45594000000E+02  0.51100000000E-03 0.  1.
         11   -1    0    0    0    0 -0.00000000000E+00 -0.00000000000E+00 -0.45593999997E+02  0.45594000000E+02  0.51100000000E-03 0. -1.
    9900012    2    1    2    0    0  0.53995075019E+01  0.24810572636E+02 -0.19287317424E+02  0.59301955887E+02  0.50000021628E+02 0.  0.
        -12    1    1    2    0    0 -0.53995075019E+01 -0.24810572636E+02  0.19287317424E+02  0.31886044113E+02  0.00000000000E+00 0.  1.
         11    1    3    3    0    0  0.17802365038E+02  0.18194629649E+02 -0.13520076526E+02  0.28822928695E+02  0.51100000000E-03 0. -1.
        -11    1    3    3    0    0  0.92784492032E+00  0.11732030522E+02  0.48055975141E+01  0.12712010230E+02  0.51100000000E-03 0.  1.
         12    1    3    3    0    0 -0.13330702457E+02 -0.51160875343E+01 -0.10572838412E+02  0.17767016962E+02  0.00000000000E+00 0. -1.
</event>
<event>
 7    1  0.3802554E-013  0.5930194E+02  0.7816164E-02  0.1266605E+00
        -11   -1    0    0    0    0  0.00000000000E+00  0.00000000000E+00  0.45593999997E+02  0.45594000000E+02  0.51100000000E-03 0.  1.
         11   -1    0    0    0    0 -0.00000000000E+00 -0.00000000000E+00 -0.45593999997E+02  0.45594000000E+02  0.51100000000E-03 0. -1.
    9900012    2    1    2    0    0 -0.25548197805E+02 -0.17092833901E+02 -0.84761613191E+01  0.59301942035E+02  0.49999996365E+02 0.  0.
        -12    1    1    2    0    0  0.25548197805E+02  0.17092833901E+02  0.84761613191E+01  0.31886057965E+02  0.00000000000E+00 0.  1.
         11    1    3    3    0    0  0.36479940920E+00 -0.18300118218E+02 -0.51523455450E+01  0.19015101112E+02  0.51100000000E-03 0. -1.
        -11    1    3    3    0    0 -0.14773754298E+02 -0.10319890896E+02  0.89274853765E+01  0.20111289356E+02  0.51100000000E-03 0.  1.
        -12    1    3    3    0    0 -0.11139242916E+02  0.11527175213E+02 -0.12251301151E+02  0.20175551567E+02  0.00000000000E+00 0.  1.
</event>
<event>
 7    1  0.3802554E-013  0.5930195E+02  0.7816164E-02  0.1266605E+00
        -11   -1    0    0    0    0  0.00000000000E+00  0.00000000000E+00  0.45593999997E+02  0.45594000000E+02  0.51100000000E-03 0.  1.
         11   -1    0    0    0    0 -0.00000000000E+00 -0.00000000000E+00 -0.45593999997E+02  0.45594000000E+02  0.51100000000E-03 0. -1.
    9900012    2    1    2    0    0  0.21093334792E+02  0.19851258718E+02 -0.13331124203E+02  0.59301951046E+02  0.50000012800E+02 0.  0.
        -12    1    1    2    0    0 -0.21093334792E+02 -0.19851258718E+02  0.13331124203E+02  0.31886048954E+02  0.00000000000E+00 0.  1.
         11    1    3    3    0    0 -0.11339623297E+02 -0.40346065671E+01 -0.12467458977E+02  0.17329242345E+02  0.51100000000E-03 0. -1.
        -11    1    3    3    0    0  0.85789998379E+01  0.98301044045E+01  0.44403791072E+01  0.13782131827E+02  0.51100000000E-03 0.  1.
        -12    1    3    3    0    0  0.23853958251E+02  0.14055760881E+02 -0.53040443336E+01  0.28190576874E+02  0.00000000000E+00 0.  1.
</event>
<event>
 7    1  0.3802554E-013  0.5930195E+02  0.7816164E-02  0.1266605E+00
        -11   -1    0    0    0    0  0.00000000000E+00  0.00000000000E+00  0.45593999997E+02  0.45594000000E+02  0.51100000000E-03 0.  1.
         11   -1    0    0    0    0 -0.00000000000E+00 -0.00000000000E+00 -0.45593999997E+02  0.45594000000E+02  0.51100000000E-03 0. -1.
    9900012    2    1    2    0    0  0.28287877846E+02 -0.12728851695E+02 -0.73818958873E+01  0.59301951556E+02  0.50000013729E+02 0.  0.
        -12    1    1    2    0    0 -0.28287877846E+02  0.12728851695E+02  0.73818958873E+01  0.31886048444E+02  0.00000000000E+00 0.  1.
         11    1    3    3    0    0  0.17387717862E+02  0.20510879431E+01 -0.94041640317E+01  0.19874053326E+02  0.51100000000E-03 0. -1.
        -11    1    3    3    0    0 -0.25924469242E+01 -0.23033697586E+02 -0.14855040629E+01  0.23226681384E+02  0.51100000000E-03 0.  1.
         12    1    3    3    0    0  0.13492606908E+02  0.82537579473E+01  0.35077722073E+01  0.16201216846E+02  0.00000000000E+00 0. -1.
</event>
<event>
 7    1  0.3802554E-013  0.5930194E+02  0.7816164E-02  0.1266605E+00
        -11   -1    0    0    0    0  0.00000000000E+00  0.00000000000E+00  0.45593999997E+02  0.45594000000E+02  0.51100000000E-03 0.  1.
         11   -1    0    0    0    0 -0.00000000000E+00 -0.00000000000E+00 -0.45593999997E+02  0.45594000000E+02  0.51100000000E-03 0. -1.
    9900012    2    1    2    0    0 -0.10859964781E+02  0.35335744851E+01 -0.29770725592E+02  0.59301935866E+02  0.49999985115E+02 0.  0.
        -12    1    1    2    0    0  0.10859964781E+02 -0.35335744851E+01  0.29770725592E+02  0.31886064134E+02  0.00000000000E+00 0.  1.
         11    1    3    3    0    0 -0.18912166116E+02 -0.12745503681E+02 -0.64274462358E+01  0.23694513218E+02  0.51100000000E-03 0. -1.
        -11    1    3    3    0    0 -0.48464498907E+01 -0.13583432618E+01 -0.41225247977E+01  0.65060267390E+01  0.51100000000E-03 0.  1.
        -12    1    3    3    0    0  0.12898651225E+02  0.17637421428E+02 -0.19220754558E+02  0.29101395909E+02  0.00000000000E+00 0.  1.
</event>
<event>
 7    1  0.3802554E-013  0.5930193E+02  0.7816164E-02  0.1266605E+00
        -11   -1    0    0    0    0  0.00000000000E+00  0.00000000000E+00  0.45593999997E+02  0.45594000000E+02  0.51100000000E-03 0.  1.
         11   -1    0    0    0    0 -0.00000000000E+00 -0.00000000000E+00 -0.45593999997E+02  0.45594000000E+02  0.51100000000E-03 0. -1.
    9900012    2    1    2    0    0  0.16790404402E+02 -0.72206857053E+01  0.26127869041E+02  0.59301929018E+02  0.49999972626E+02 0.  0.
        -12    1    1    2    0    0 -0.16790404402E+02  0.72206857053E+01 -0.26127869041E+02  0.31886070982E+02  0.00000000000E+00 0.  1.
         11    1    3    3    0    0 -0.18879280613E+01  0.63135068075E+01  0.58665579758E+01  0.88227627939E+01  0.51100000000E-03 0. -1.
        -11    1    3    3    0    0 -0.11628806049E+02 -0.19890344067E+00  0.11209269931E+02  0.16152907644E+02  0.51100000000E-03 0.  1.
        -12    1    3    3    0    0  0.30307138512E+02 -0.13335289072E+02  0.90520411338E+01  0.34326258580E+02  0.00000000000E+00 0.  1.
</event>
<event>
 7    1  0.3802554E-013  0.5930193E+02  0.7816164E-02  0.1266605E+00
        -11   -1    0    0    0    0  0.00000000000E+00  0.00000000000E+00  0.45593999997E+02  0.45594000000E+02  0.51100000000E-03 0.  1.
         11   -1    0    0    0    0 -0.00000000000E+00 -0.00000000000E+00 -0.45593999997E+02  0.45594000000E+02  0.51100000000E-03 0. -1.
    9900012    2    1    2    0    0 -0.12546172193E+02  0.22326148674E+02 -0.18996263771E+02  0.59301931121E+02  0.49999976461E+02 0.  0.
        -12    1    1    2    0    0  0.12546172193E+02 -0.22326148674E+02  0.18996263771E+02  0.31886068879E+02  0.00000000000E+00 0.  1.
         11    1    3    3    0    0 -0.52147235099E+01  0.15230421607E+02 -0.86877840045E+01  0.18293077236E+02  0.51100000000E-03 0. -1.
        -11    1    3    3    0    0 -0.92403717893E+01  0.21811641444E+02 -0.14631328497E+01  0.23733371679E+02  0.51100000000E-03 0.  1.
         12    1    3    3    0    0  0.19089231065E+01 -0.14715914376E+02 -0.88453469165E+01  0.17275482205E+02  0.00000000000E+00 0. -1.
</event>
<event>
 7    1  0.3802554E-013  0.5930194E+02  0.7816164E-02  0.1266605E+00
        -11   -1    0    0    0    0  0.00000000000E+00  0.00000000000E+00  0.45593999997E+02  0.45594000000E+02  0.51100000000E-03 0.  1.
         11   -1    0    0    0    0 -0.00000000000E+00 -0.00000000000E+00 -0.45593999997E+02  0.45594000000E+02  0.51100000000E-03 0. -1.
    9900012    2    1    2    0    0 -0.88495729113E+01  0.21309049703E+02 -0.22007505625E+02  0.59301939664E+02  0.49999992041E+02 0.  0.
        -12    1    1    2    0    0  0.88495729113E+01 -0.21309049703E+02  0.22007505625E+02  0.31886060336E+02  0.00000000000E+00 0.  1.
         11    1    3    3    0    0 -0.30076049824E+01  0.24163308384E+02 -0.58201432420E+01  0.25035679089E+02  0.51100000000E-03 0. -1.
        -11    1    3    3    0    0  0.98929696628E+01  0.40690378401E+01 -0.63585110833E-01  0.10697287554E+02  0.51100000000E-03 0.  1.
        -12    1    3    3    0    0 -0.15734937592E+02 -0.69232965218E+01 -0.16123777272E+02  0.23568973021E+02  0.00000000000E+00 0.  1.
</event>
<event>
 7    1  0.3802554E-013  0.5930194E+02  0.7816164E-02  0.1266605E+00
        -11   -1    0    0    0    0  0.00000000000E+00  0.00000000000E+00  0.45593999997E+02  0.45594000000E+02  0.51100000000E-03 0. -1.
         11   -1    0    0    0    0 -0.00000000000E+00 -0.00000000000E+00 -0.45593999997E+02  0.45594000000E+02  0.51100000000E-03 0.  1.
    9900012    2    1    2    0    0  0.11395780236E+02  0.80923412047E+01  0.28659566830E+02  0.59301944047E+02  0.50000000035E+02 0.  0.
        -12    1    1    2    0    0 -0.11395780236E+02 -0.80923412047E+01 -0.28659566830E+02  0.31886055953E+02  0.00000000000E+00 0.  1.
         11    1    3    3    0    0  0.15736930356E+02  0.13355559675E+02 -0.32739610161E+01  0.20898343768E+02  0.51100000000E-03 0. -1.
        -11    1    3    3    0    0  0.45932424231E+01  0.54914889529E+01  0.13340939921E+02  0.15140508747E+02  0.51100000000E-03 0.  1.
        -12    1    3    3    0    0 -0.89343925429E+01 -0.10754707423E+02  0.18592587926E+02  0.23263091532E+02  0.00000000000E+00 0.  1.
</event>
<event>
 7    1  0.3802554E-013  0.5930195E+02  0.7816164E-02  0.1266605E+00
        -11   -1    0    0    0    0  0.00000000000E+00  0.00000000000E+00  0.45593999997E+02  0.45594000000E+02  0.51100000000E-03 0. -1.
         11   -1    0    0    0    0 -0.00000000000E+00 -0.00000000000E+00 -0.45593999997E+02  0.45594000000E+02  0.51100000000E-03 0.  1.
    9900012    2    1    2    0    0  0.31023961152E+02 -0.29996123402E+01 -0.67258103027E+01  0.59301947187E+02  0.50000005762E+02 0.  0.
        -12    1    1    2    0    0 -0.31023961152E+02  0.29996123402E+01  0.67258103027E+01  0.31886052813E+02  0.00000000000E+00 0.  1.
         11    1    3    3    0    0  0.61761547815E+01 -0.20017638304E+01  0.68584529631E+01  0.94440628770E+01  0.51100000000E-03 0. -1.
        -11    1    3    3    0    0 -0.70699723308E+01  0.10870413150E+02  0.57156768264E+00  0.12979872137E+02  0.51100000000E-03 0.  1.
         12    1    3    3    0    0  0.31917778701E+02 -0.11868261660E+02 -0.14155830948E+02  0.36878012174E+02  0.00000000000E+00 0. -1.
</event>
<event>
 7    1  0.3802554E-013  0.5930194E+02  0.7816164E-02  0.1266605E+00
        -11   -1    0    0    0    0  0.00000000000E+00  0.00000000000E+00  0.45593999997E+02  0.45594000000E+02  0.51100000000E-03 0.  1.
         11   -1    0    0    0    0 -0.00000000000E+00 -0.00000000000E+00 -0.45593999997E+02  0.45594000000E+02  0.51100000000E-03 0. -1.
    9900012    2    1    2    0    0  0.24469085802E+02 -0.15860952395E+02 -0.12900195022E+02  0.59301937175E+02  0.49999987503E+02 0.  0.
        -12    1    1    2    0    0 -0.24469085802E+02  0.15860952395E+02  0.12900195022E+02  0.31886062825E+02  0.00000000000E+00 0.  1.
         11    1    3    3    0    0  0.23896610757E+02 -0.94426594228E+01  0.50817861500E+01  0.26192296070E+02  0.51100000000E-03 0. -1.
        -11    1    3    3    0    0  0.11287621235E+02 -0.70359112487E+01 -0.17994509786E+02  0.22376702683E+02  0.51100000000E-03 0.  1.
        -12    1    3    3    0    0 -0.10715146191E+02  0.61761827678E+00  0.12528613794E-01  0.10732938423E+02  0.00000000000E+00 0.  1.
</event>
<event>
 7    1  0.3802554E-013  0.5930193E+02  0.7816164E-02  0.1266605E+00
        -11   -1    0    0    0    0  0.00000000000E+00  0.00000000000E+00  0.45593999997E+02  0.45594000000E+02  0.51100000000E-03 0.  1.
         11   -1    0    0    0    0 -0.00000000000E+00 -0.00000000000E+00 -0.45593999997E+02  0.45594000000E+02  0.51100000000E-03 0. -1.
    9900012    2    1    2    0    0  0.27488174614E+02 -0.80022924145E+01 -0.14038702318E+02  0.59301927958E+02  0.49999970693E+02 0.  0.
        -12    1    1    2    0    0 -0.27488174614E+02  0.80022924145E+01  0.14038702318E+02  0.31886072042E+02  0.00000000000E+00 0.  1.
         11    1    3    3    0    0  0.11387189190E+02 -0.14973426746E+02  0.25873958964E+00  0.18813254174E+02  0.51100000000E-03 0. -1.
        -11    1    3    3    0    0 -0.12647260954E+01  0.21794249946E+01  0.99598741424E+01  0.10273680869E+02  0.51100000000E-03 0.  1.
         12    1    3    3    0    0  0.17365711519E+02  0.47917093367E+01 -0.24257316050E+02  0.30214992915E+02  0.00000000000E+00 0. -1.
</event>
<event>
 7    1  0.3802554E-013  0.5930172E+02  0.7816164E-02  0.1266606E+00
        -11   -1    0    0    0    0  0.00000000000E+00  0.00000000000E+00  0.45593999997E+02  0.45594000000E+02  0.51100000000E-03 0.  1.
         11   -1    0    0    0    0 -0.00000000000E+00 -0.00000000000E+00 -0.45593999997E+02  0.45594000000E+02  0.51100000000E-03 0. -1.
    9900012    2    1    2    0    0 -0.29739218465E+02  0.57858663385E+01 -0.99417189334E+01  0.59301715495E+02  0.49999583210E+02 0.  0.
        -12    1    1    2    0    0  0.29739218465E+02 -0.57858663385E+01  0.99417189334E+01  0.31886284505E+02  0.00000000000E+00 0.  1.
         11    1    3    3    0    0 -0.67062372898E+01 -0.65959023245E+01  0.94679051049E+00  0.94538858991E+01  0.51100000000E-03 0. -1.
        -11    1    3    3    0    0  0.84609781660E+01 -0.66598063783E+01 -0.69935504888E+01  0.12839428384E+02  0.51100000000E-03 0.  1.
         12    1    3    3    0    0 -0.31493959341E+02  0.19041575041E+02 -0.38949589551E+01  0.37008401212E+02  0.00000000000E+00 0. -1.
</event>
<event>
 7    1  0.3802554E-013  0.5930187E+02  0.7816164E-02  0.1266605E+00
        -11   -1    0    0    0    0  0.00000000000E+00  0.00000000000E+00  0.45593999997E+02  0.45594000000E+02  0.51100000000E-03 0. -1.
         11   -1    0    0    0    0 -0.00000000000E+00 -0.00000000000E+00 -0.45593999997E+02  0.45594000000E+02  0.51100000000E-03 0.  1.
    9900012    2    1    2    0    0 -0.44274758135E+00  0.64540705155E+01  0.31222972545E+02  0.59301873453E+02  0.49999871289E+02 0.  0.
        -12    1    1    2    0    0  0.44274758135E+00 -0.64540705155E+01 -0.31222972545E+02  0.31886126547E+02  0.00000000000E+00 0.  1.
         11    1    3    3    0    0  0.65980164536E+01  0.15588582666E+01  0.13228502588E+02  0.14864627180E+02  0.51100000000E-03 0. -1.
        -11    1    3    3    0    0 -0.42418424341E+01  0.20039450042E+02  0.20330889222E+02  0.28860316042E+02  0.51100000000E-03 0.  1.
         12    1    3    3    0    0 -0.27989216009E+01 -0.15144237793E+02 -0.23364192656E+01  0.15576930231E+02  0.00000000000E+00 0. -1.
</event>
<event>
 7    1  0.3802554E-013  0.5930193E+02  0.7816164E-02  0.1266605E+00
        -11   -1    0    0    0    0  0.00000000000E+00  0.00000000000E+00  0.45593999997E+02  0.45594000000E+02  0.51100000000E-03 0.  1.
         11   -1    0    0    0    0 -0.00000000000E+00 -0.00000000000E+00 -0.45593999997E+02  0.45594000000E+02  0.51100000000E-03 0. -1.
    9900012    2    1    2    0    0  0.17499498440E+02  0.38995504133E+01 -0.26368207802E+02  0.59301932168E+02  0.49999978370E+02 0.  0.
        -12    1    1    2    0    0 -0.17499498440E+02 -0.38995504133E+01  0.26368207802E+02  0.31886067832E+02  0.00000000000E+00 0.  1.
         11    1    3    3    0    0  0.18607719632E+02  0.89893344538E+01  0.65675761996E+01  0.21683828565E+02  0.51100000000E-03 0. -1.
        -11    1    3    3    0    0 -0.56005243275E+01 -0.67621577163E+00 -0.19041716738E+01  0.59539071657E+01  0.51100000000E-03 0.  1.
         12    1    3    3    0    0  0.44923031355E+01 -0.44135682688E+01 -0.31031612328E+02  0.31664196437E+02  0.00000000000E+00 0. -1.
</event>
<event>
 7    1  0.3802554E-013  0.5930196E+02  0.7816164E-02  0.1266605E+00
        -11   -1    0    0    0    0  0.00000000000E+00  0.00000000000E+00  0.45593999997E+02  0.45594000000E+02  0.51100000000E-03 0.  1.
         11   -1    0    0    0    0 -0.00000000000E+00 -0.00000000000E+00 -0.45593999997E+02  0.45594000000E+02  0.51100000000E-03 0. -1.
    9900012    2    1    2    0    0  0.52338294283E+01  0.20005612527E+02 -0.24271427850E+02  0.59301957396E+02  0.50000024381E+02 0.  0.
        -12    1    1    2    0    0 -0.52338294283E+01 -0.20005612527E+02  0.24271427850E+02  0.31886042604E+02  0.00000000000E+00 0.  1.
         11    1    3    3    0    0 -0.15090827213E+02  0.95764631681E+01 -0.84056205479E+01  0.19750852383E+02  0.51100000000E-03 0. -1.
        -11    1    3    3    0    0  0.94249198975E+00  0.11577320767E+02 -0.16436438805E+02  0.20126578650E+02  0.51100000000E-03 0.  1.
        -12    1    3    3    0    0  0.19382164651E+02 -0.11481714084E+01  0.57063150318E+00  0.19424526364E+02  0.00000000000E+00 0.  1.
</event>
<event>
 7    1  0.3802554E-013  0.5930202E+02  0.7816164E-02  0.1266605E+00
        -11   -1    0    0    0    0  0.00000000000E+00  0.00000000000E+00  0.45593999997E+02  0.45594000000E+02  0.51100000000E-03 0. -1.
         11   -1    0    0    0    0 -0.00000000000E+00 -0.00000000000E+00 -0.45593999997E+02  0.45594000000E+02  0.51100000000E-03 0.  1.
    9900012    2    1    2    0    0  0.16925823732E+02  0.12156734732E+02  0.24133923666E+02  0.59302015934E+02  0.50000131140E+02 0.  0.
        -12    1    1    2    0    0 -0.16925823732E+02 -0.12156734732E+02 -0.24133923666E+02  0.31885984066E+02  0.00000000000E+00 0.  1.
         11    1    3    3    0    0  0.29315944895E+00  0.80961228039E+01  0.53456977650E-01  0.81016050773E+01  0.51100000000E-03 0. -1.
        -11    1    3    3    0    0 -0.24530261505E+01  0.11838898840E+02 -0.69526894838E+01  0.13946926341E+02  0.51100000000E-03 0.  1.
         12    1    3    3    0    0  0.19085690433E+02 -0.77782869124E+01  0.31033156172E+02  0.37253484516E+02  0.00000000000E+00 0. -1.
</event>
<event>
 7    1  0.3802554E-013  0.5930195E+02  0.7816164E-02  0.1266605E+00
        -11   -1    0    0    0    0  0.00000000000E+00  0.00000000000E+00  0.45593999997E+02  0.45594000000E+02  0.51100000000E-03 0.  1.
         11   -1    0    0    0    0 -0.00000000000E+00 -0.00000000000E+00 -0.45593999997E+02  0.45594000000E+02  0.51100000000E-03 0. -1.
    9900012    2    1    2    0    0  0.29780602945E+02  0.10908294535E+02 -0.32931385520E+01  0.59301953476E+02  0.50000017231E+02 0.  0.
        -12    1    1    2    0    0 -0.29780602945E+02 -0.10908294535E+02  0.32931385520E+01  0.31886046524E+02  0.00000000000E+00 0.  1.
         11    1    3    3    0    0  0.17316270662E+02  0.15602375728E+02 -0.49817261212E+01  0.23834952347E+02  0.51100000000E-03 0. -1.
        -11    1    3    3    0    0 -0.20202900387E+01  0.12031832057E+02  0.48251416526E+01  0.13119776930E+02  0.51100000000E-03 0.  1.
        -12    1    3    3    0    0  0.14484622322E+02 -0.16725913249E+02 -0.31365540834E+01  0.22347224198E+02  0.00000000000E+00 0.  1.
</event>
<event>
 7    1  0.3832883E-013  0.5930190E+02  0.7816164E-02  0.1266605E+00
        -11   -1    0    0    0    0  0.00000000000E+00  0.00000000000E+00  0.45593999997E+02  0.45594000000E+02  0.51100000000E-03 0. -1.
         11   -1    0    0    0    0 -0.00000000000E+00 -0.00000000000E+00 -0.45593999997E+02  0.45594000000E+02  0.51100000000E-03 0.  1.
    9900012    2    1    2    0    0  0.27751634897E+02 -0.86465563046E+01  0.13107531017E+02  0.59301897310E+02  0.49999914798E+02 0.  0.
        -12    1    1    2    0    0 -0.27751634897E+02  0.86465563046E+01 -0.13107531017E+02  0.31886102690E+02  0.00000000000E+00 0.  1.
         11    1    3    3    0    0  0.19121811621E+02  0.21883869315E+01  0.17887182283E+02  0.26275159510E+02  0.51100000000E-03 0. -1.
        -11    1    3    3    0    0 -0.43192493798E+01  0.66026520897E+01  0.48570896741E+01  0.92651092916E+01  0.51100000000E-03 0.  1.
        -12    1    3    3    0    0  0.12949072656E+02 -0.17437595326E+02 -0.96367409395E+01  0.23761628508E+02  0.00000000000E+00 0.  1.
</event>
<event>
 7    1  0.3802554E-013  0.5930181E+02  0.7816164E-02  0.1266605E+00
        -11   -1    0    0    0    0  0.00000000000E+00  0.00000000000E+00  0.45593999997E+02  0.45594000000E+02  0.51100000000E-03 0. -1.
         11   -1    0    0    0    0 -0.00000000000E+00 -0.00000000000E+00 -0.45593999997E+02  0.45594000000E+02  0.51100000000E-03 0.  1.
    9900012    2    1    2    0    0 -0.86692863619E+01  0.30496010472E+02  0.34008685648E+01  0.59301810392E+02  0.49999756280E+02 0.  0.
        -12    1    1    2    0    0  0.86692863619E+01 -0.30496010472E+02 -0.34008685648E+01  0.31886189608E+02  0.00000000000E+00 0.  1.
         11    1    3    3    0    0 -0.10255950378E+02 -0.85371744988E+00  0.18994843750E+02  0.21603644161E+02  0.51100000000E-03 0. -1.
        -11    1    3    3    0    0  0.38302752654E+01  0.18086078743E+02 -0.20359329736E+01  0.18598985893E+02  0.51100000000E-03 0.  1.
        -12    1    3    3    0    0 -0.22436112488E+01  0.13263649179E+02 -0.13558042212E+02  0.19099180338E+02  0.00000000000E+00 0.  1.
</event>
<event>
 7    1  0.3802554E-013  0.5930204E+02  0.7816164E-02  0.1266604E+00
        -11   -1    0    0    0    0  0.00000000000E+00  0.00000000000E+00  0.45593999997E+02  0.45594000000E+02  0.51100000000E-03 0.  1.
         11   -1    0    0    0    0 -0.00000000000E+00 -0.00000000000E+00 -0.45593999997E+02  0.45594000000E+02  0.51100000000E-03 0. -1.
    9900012    2    1    2    0    0 -0.98781339479E+01 -0.23941632390E+02  0.18599332910E+02  0.59302039508E+02  0.50000174132E+02 0.  0.
        -12    1    1    2    0    0  0.98781339479E+01  0.23941632390E+02 -0.18599332910E+02  0.31885960492E+02  0.00000000000E+00 0.  1.
         11    1    3    3    0    0 -0.10308394541E+02  0.60589157848E+01 -0.40145456514E+01  0.12613089850E+02  0.51100000000E-03 0.  1.
        -11    1    3    3    0    0 -0.74786453236E+01 -0.13764920514E+02 -0.23884679184E+01  0.15846386083E+02  0.51100000000E-03 0. -1.
        -12    1    3    3    0    0  0.79089059171E+01 -0.16235627661E+02  0.25002346480E+02  0.30842563575E+02  0.00000000000E+00 0.  1.
</event>
<event>
 7    1  0.3802554E-013  0.5930195E+02  0.7816164E-02  0.1266605E+00
        -11   -1    0    0    0    0  0.00000000000E+00  0.00000000000E+00  0.45593999997E+02  0.45594000000E+02  0.51100000000E-03 0. -1.
         11   -1    0    0    0    0 -0.00000000000E+00 -0.00000000000E+00 -0.45593999997E+02  0.45594000000E+02  0.51100000000E-03 0.  1.
    9900012    2    1    2    0    0  0.74632920832E+01 -0.27704837826E+02  0.13909043603E+02  0.59301948792E+02  0.50000008689E+02 0.  0.
        -12    1    1    2    0    0 -0.74632920832E+01  0.27704837826E+02 -0.13909043603E+02  0.31886051208E+02  0.00000000000E+00 0.  1.
         11    1    3    3    0    0 -0.14533639076E+02 -0.14102983554E+02 -0.50304312146E+01  0.20866864843E+02  0.51100000000E-03 0. -1.
        -11    1    3    3    0    0  0.11318436998E+02 -0.15770845717E+02  0.37975540004E+01  0.19779990075E+02  0.51100000000E-03 0.  1.
        -12    1    3    3    0    0  0.10678494161E+02  0.21689914442E+01  0.15141920817E+02  0.18655093874E+02  0.00000000000E+00 0.  1.
</event>
<event>
 7    1  0.3802554E-013  0.5930191E+02  0.7816164E-02  0.1266605E+00
        -11   -1    0    0    0    0  0.00000000000E+00  0.00000000000E+00  0.45593999997E+02  0.45594000000E+02  0.51100000000E-03 0.  1.
         11   -1    0    0    0    0 -0.00000000000E+00 -0.00000000000E+00 -0.45593999997E+02  0.45594000000E+02  0.51100000000E-03 0. -1.
    9900012    2    1    2    0    0  0.26679602435E+02 -0.17066625670E+02 -0.36948377790E+01  0.59301910180E+02  0.49999938269E+02 0.  0.
        -12    1    1    2    0    0 -0.26679602435E+02  0.17066625670E+02  0.36948377790E+01  0.31886089820E+02  0.00000000000E+00 0.  1.
         11    1    3    3    0    0 -0.20338925320E+01  0.45109211336E+00 -0.16154314476E+02  0.16288096248E+02  0.51100000000E-03 0. -1.
        -11    1    3    3    0    0 -0.28839865635E+01 -0.55826671871E+01  0.58735882743E+01  0.86013133240E+01  0.51100000000E-03 0.  1.
         12    1    3    3    0    0  0.31597481530E+02 -0.11935050596E+02  0.65858884230E+01  0.34412500608E+02  0.00000000000E+00 0. -1.
</event>
<event>
 7    1  0.3802554E-013  0.5930194E+02  0.7816164E-02  0.1266605E+00
        -11   -1    0    0    0    0  0.00000000000E+00  0.00000000000E+00  0.45593999997E+02  0.45594000000E+02  0.51100000000E-03 0. -1.
         11   -1    0    0    0    0 -0.00000000000E+00 -0.00000000000E+00 -0.45593999997E+02  0.45594000000E+02  0.51100000000E-03 0.  1.
    9900012    2    1    2    0    0 -0.12984226445E+02 -0.17482245478E+02  0.23291662336E+02  0.59301943836E+02  0.49999999650E+02 0.  0.
        -12    1    1    2    0    0  0.12984226445E+02  0.17482245478E+02 -0.23291662336E+02  0.31886056164E+02  0.00000000000E+00 0.  1.
         11    1    3    3    0    0  0.11736454042E+02  0.26276503015E+01  0.49561221475E+01  0.13008153081E+02  0.51100000000E-03 0. -1.
        -11    1    3    3    0    0 -0.34775850781E+01 -0.76783643396E-01 -0.68828652930E+01  0.77118952668E+01  0.51100000000E-03 0.  1.
         12    1    3    3    0    0 -0.21243095408E+02 -0.20033112136E+02  0.25218405482E+02  0.38581895488E+02  0.00000000000E+00 0. -1.
</event>
<event>
 7    1  0.3802554E-013  0.5930194E+02  0.7816164E-02  0.1266605E+00
        -11   -1    0    0    0    0  0.00000000000E+00  0.00000000000E+00  0.45593999997E+02  0.45594000000E+02  0.51100000000E-03 0.  1.
         11   -1    0    0    0    0 -0.00000000000E+00 -0.00000000000E+00 -0.45593999997E+02  0.45594000000E+02  0.51100000000E-03 0. -1.
    9900012    2    1    2    0    0 -0.25168170625E+02  0.62704773596E+00 -0.19567595182E+02  0.59301940622E+02  0.49999993788E+02 0.  0.
        -12    1    1    2    0    0  0.25168170625E+02 -0.62704773596E+00  0.19567595182E+02  0.31886059378E+02  0.00000000000E+00 0.  1.
         11    1    3    3    0    0 -0.98759701190E+01  0.40606052630E+01  0.70764270933E+01  0.12810117937E+02  0.51100000000E-03 0. -1.
        -11    1    3    3    0    0 -0.50484675813E+00  0.51925780680E+00  0.83057029536E+01  0.83372178053E+01  0.51100000000E-03 0.  1.
         12    1    3    3    0    0 -0.14787353748E+02 -0.39528153339E+01 -0.34949725229E+02  0.38154604879E+02  0.00000000000E+00 0. -1.
</event>
<event>
 7    1  0.3802554E-013  0.5930196E+02  0.7816164E-02  0.1266605E+00
        -11   -1    0    0    0    0  0.00000000000E+00  0.00000000000E+00  0.45593999997E+02  0.45594000000E+02  0.51100000000E-03 0.  1.
         11   -1    0    0    0    0 -0.00000000000E+00 -0.00000000000E+00 -0.45593999997E+02  0.45594000000E+02  0.51100000000E-03 0. -1.
    9900012    2    1    2    0    0  0.26921561643E+02  0.61586207653E+01 -0.15938016463E+02  0.59301961365E+02  0.50000031620E+02 0.  0.
        -12    1    1    2    0    0 -0.26921561643E+02 -0.61586207653E+01  0.15938016463E+02  0.31886038635E+02  0.00000000000E+00 0.  1.
         11    1    3    3    0    0  0.19779983552E+01  0.18089052981E+02 -0.97251868700E+01  0.20632633743E+02  0.51100000000E-03 0. -1.
        -11    1    3    3    0    0  0.33516050548E+01  0.80404735459E+01 -0.22049578734E+01  0.89857838150E+01  0.51100000000E-03 0.  1.
         12    1    3    3    0    0  0.21591958233E+02 -0.19970905762E+02 -0.40078717201E+01  0.29683543808E+02  0.00000000000E+00 0. -1.
</event>
<event>
 7    1  0.3802554E-013  0.5930195E+02  0.7816164E-02  0.1266605E+00
        -11   -1    0    0    0    0  0.00000000000E+00  0.00000000000E+00  0.45593999997E+02  0.45594000000E+02  0.51100000000E-03 0.  1.
         11   -1    0    0    0    0 -0.00000000000E+00 -0.00000000000E+00 -0.45593999997E+02  0.45594000000E+02  0.51100000000E-03 0. -1.
    9900012    2    1    2    0    0 -0.15358348290E+02 -0.13195380060E+02 -0.24631748839E+02  0.59301953397E+02  0.50000017087E+02 0.  0.
        -12    1    1    2    0    0  0.15358348290E+02  0.13195380060E+02  0.24631748839E+02  0.31886046603E+02  0.00000000000E+00 0.  1.
         11    1    3    3    0    0  0.42938721437E+01 -0.30500038768E+01 -0.27620507781E+02  0.28118184721E+02  0.51100000000E-03 0. -1.
        -11    1    3    3    0    0  0.89664850714E+00 -0.34730023992E+01 -0.66270665895E+01  0.75354983945E+01  0.51100000000E-03 0.  1.
        -12    1    3    3    0    0 -0.20548868941E+02 -0.66723737842E+01  0.96158255318E+01  0.23648270282E+02  0.00000000000E+00 0.  1.
</event>
<event>
 7    1  0.3802554E-013  0.5930195E+02  0.7816164E-02  0.1266605E+00
        -11   -1    0    0    0    0  0.00000000000E+00  0.00000000000E+00  0.45593999997E+02  0.45594000000E+02  0.51100000000E-03 0.  1.
         11   -1    0    0    0    0 -0.00000000000E+00 -0.00000000000E+00 -0.45593999997E+02  0.45594000000E+02  0.51100000000E-03 0. -1.
    9900012    2    1    2    0    0  0.28221769140E+01  0.45075544051E+01 -0.31439423300E+02  0.59301951849E+02  0.50000014264E+02 0.  0.
        -12    1    1    2    0    0 -0.28221769140E+01 -0.45075544051E+01  0.31439423300E+02  0.31886048151E+02  0.00000000000E+00 0.  1.
         11    1    3    3    0    0  0.45228763692E+00  0.21747319527E+01 -0.20414707856E+02  0.20535197109E+02  0.51100000000E-03 0. -1.
        -11    1    3    3    0    0  0.11683439033E+02  0.93412841686E+01 -0.19339170960E+02  0.24449250935E+02  0.51100000000E-03 0.  1.
        -12    1    3    3    0    0 -0.93135497563E+01 -0.70084617162E+01  0.83144555167E+01  0.14317503806E+02  0.00000000000E+00 0.  1.
</event>
<event>
 7    1  0.3802554E-013  0.5930191E+02  0.7816164E-02  0.1266605E+00
        -11   -1    0    0    0    0  0.00000000000E+00  0.00000000000E+00  0.45593999997E+02  0.45594000000E+02  0.51100000000E-03 0. -1.
         11   -1    0    0    0    0 -0.00000000000E+00 -0.00000000000E+00 -0.45593999997E+02  0.45594000000E+02  0.51100000000E-03 0.  1.
    9900012    2    1    2    0    0 -0.17990372909E+02  0.23436694721E+02  0.11991280357E+02  0.59301906143E+02  0.49999930908E+02 0.  0.
        -12    1    1    2    0    0  0.17990372909E+02 -0.23436694721E+02 -0.11991280357E+02  0.31886093857E+02  0.00000000000E+00 0.  1.
         11    1    3    3    0    0 -0.10595419219E+02  0.24916703415E+02  0.20464727935E+02  0.33939801225E+02  0.51100000000E-03 0. -1.
        -11    1    3    3    0    0 -0.15071369003E+02 -0.43719047250E+01 -0.58942699354E+01  0.16763118233E+02  0.51100000000E-03 0.  1.
        -12    1    3    3    0    0  0.76764153127E+01  0.28918960309E+01 -0.25791776427E+01  0.85989866856E+01  0.00000000000E+00 0.  1.
</event>
<event>
 7    1  0.3802554E-013  0.5930193E+02  0.7816164E-02  0.1266605E+00
        -11   -1    0    0    0    0  0.00000000000E+00  0.00000000000E+00  0.45593999997E+02  0.45594000000E+02  0.51100000000E-03 0.  1.
         11   -1    0    0    0    0 -0.00000000000E+00 -0.00000000000E+00 -0.45593999997E+02  0.45594000000E+02  0.51100000000E-03 0. -1.
    9900012    2    1    2    0    0 -0.27547201826E+02  0.15702868369E+02 -0.33605530724E+01  0.59301925917E+02  0.49999966971E+02 0.  0.
        -12    1    1    2    0    0  0.27547201826E+02 -0.15702868369E+02  0.33605530724E+01  0.31886074083E+02  0.00000000000E+00 0.  1.
         11    1    3    3    0    0 -0.72820000694E+01  0.17551436897E+02  0.50831138368E+01  0.19670244246E+02  0.51100000000E-03 0. -1.
        -11    1    3    3    0    0  0.66576724522E+01  0.68773444199E+01 -0.58345876175E+01  0.11210034865E+02  0.51100000000E-03 0.  1.
         12    1    3    3    0    0 -0.26922874208E+02 -0.87259129478E+01 -0.26090792917E+01  0.28421646806E+02  0.00000000000E+00 0. -1.
</event>
<event>
 7    1  0.3802554E-013  0.5930194E+02  0.7816164E-02  0.1266605E+00
        -11   -1    0    0    0    0  0.00000000000E+00  0.00000000000E+00  0.45593999997E+02  0.45594000000E+02  0.51100000000E-03 0. -1.
         11   -1    0    0    0    0 -0.00000000000E+00 -0.00000000000E+00 -0.45593999997E+02  0.45594000000E+02  0.51100000000E-03 0.  1.
    9900012    2    1    2    0    0  0.25114837790E+02 -0.10385205319E+02  0.16676725509E+02  0.59301941284E+02  0.49999994997E+02 0.  0.
        -12    1    1    2    0    0 -0.25114837790E+02  0.10385205319E+02 -0.16676725509E+02  0.31886058716E+02  0.00000000000E+00 0.  1.
         11    1    3    3    0    0  0.27375018807E+02 -0.50858677665E+01 -0.93594460401E+01  0.29374426565E+02  0.51100000000E-03 0. -1.
        -11    1    3    3    0    0 -0.10063453390E+01 -0.61947131435E+01  0.32096328801E+01  0.70490386123E+01  0.51100000000E-03 0.  1.
        -12    1    3    3    0    0 -0.12538356782E+01  0.89537559114E+00  0.22826538669E+02  0.22878476107E+02  0.00000000000E+00 0.  1.
</event>
<event>
 7    1  0.3802554E-013  0.5930195E+02  0.7816164E-02  0.1266605E+00
        -11   -1    0    0    0    0  0.00000000000E+00  0.00000000000E+00  0.45593999997E+02  0.45594000000E+02  0.51100000000E-03 0.  1.
         11   -1    0    0    0    0 -0.00000000000E+00 -0.00000000000E+00 -0.45593999997E+02  0.45594000000E+02  0.51100000000E-03 0. -1.
    9900012    2    1    2    0    0 -0.29192613826E+02 -0.11848264998E+02 -0.49122168803E+01  0.59301953520E+02  0.50000017311E+02 0.  0.
        -12    1    1    2    0    0  0.29192613826E+02  0.11848264998E+02  0.49122168803E+01  0.31886046480E+02  0.00000000000E+00 0.  1.
         11    1    3    3    0    0  0.28609759473E+01 -0.13678050177E+02 -0.11490393682E+02  0.18091528052E+02  0.51100000000E-03 0. -1.
        -11    1    3    3    0    0 -0.27876969051E+01  0.99482512681E+00  0.11187130137E+02  0.11572070343E+02  0.51100000000E-03 0.  1.
         12    1    3    3    0    0 -0.29265892868E+02  0.83496005201E+00 -0.46089533349E+01  0.29638355125E+02  0.00000000000E+00 0. -1.
</event>
<event>
 7    1  0.3802554E-013  0.5930193E+02  0.7816164E-02  0.1266605E+00
        -11   -1    0    0    0    0  0.00000000000E+00  0.00000000000E+00  0.45593999997E+02  0.45594000000E+02  0.51100000000E-03 0. -1.
         11   -1    0    0    0    0 -0.00000000000E+00 -0.00000000000E+00 -0.45593999997E+02  0.45594000000E+02  0.51100000000E-03 0.  1.
    9900012    2    1    2    0    0  0.39951447975E+01 -0.31488871913E+02 -0.30349888807E+01  0.59301931038E+02  0.49999976310E+02 0.  0.
        -12    1    1    2    0    0 -0.39951447975E+01  0.31488871913E+02  0.30349888807E+01  0.31886068962E+02  0.00000000000E+00 0.  1.
         11    1    3    3    0    0 -0.13363023925E+02 -0.87555978698E+01 -0.75451828349E+01  0.17668069695E+02  0.51100000000E-03 0. -1.
        -11    1    3    3    0    0  0.77721407867E+01  0.64308565909E+01  0.42160139584E+01  0.10933291493E+02  0.51100000000E-03 0.  1.
         12    1    3    3    0    0  0.95860279360E+01 -0.29164130635E+02  0.29417999582E+00  0.30700569850E+02  0.00000000000E+00 0. -1.
</event>
<event>
 7    1  0.3802554E-013  0.5930181E+02  0.7816164E-02  0.1266605E+00
        -11   -1    0    0    0    0  0.00000000000E+00  0.00000000000E+00  0.45593999997E+02  0.45594000000E+02  0.51100000000E-03 0.  1.
         11   -1    0    0    0    0 -0.00000000000E+00 -0.00000000000E+00 -0.45593999997E+02  0.45594000000E+02  0.51100000000E-03 0. -1.
    9900012    2    1    2    0    0  0.93419794750E+00 -0.14279161048E+02 -0.28494951347E+02  0.59301805208E+02  0.49999746825E+02 0.  0.
        -12    1    1    2    0    0 -0.93419794750E+00  0.14279161048E+02  0.28494951347E+02  0.31886194792E+02  0.00000000000E+00 0.  1.
         11    1    3    3    0    0 -0.57535036831E+01 -0.13853242532E+02  0.60270407164E+00  0.15012607559E+02  0.51100000000E-03 0. -1.
        -11    1    3    3    0    0  0.26591652673E+01  0.74462763506E+01  0.48048963224E+01  0.92523089193E+01  0.51100000000E-03 0.  1.
         12    1    3    3    0    0  0.40285363633E+01 -0.78721948668E+01 -0.33902551741E+02  0.35036888729E+02  0.00000000000E+00 0. -1.
</event>
<event>
 7    1  0.3802554E-013  0.5930197E+02  0.7816164E-02  0.1266605E+00
        -11   -1    0    0    0    0  0.00000000000E+00  0.00000000000E+00  0.45593999997E+02  0.45594000000E+02  0.51100000000E-03 0. -1.
         11   -1    0    0    0    0 -0.00000000000E+00 -0.00000000000E+00 -0.45593999997E+02  0.45594000000E+02  0.51100000000E-03 0.  1.
    9900012    2    1    2    0    0 -0.65281510936E+01 -0.30747970052E+02 -0.53539470294E+01  0.59301965944E+02  0.50000039970E+02 0.  0.
        -12    1    1    2    0    0  0.65281510936E+01  0.30747970052E+02  0.53539470294E+01  0.31886034056E+02  0.00000000000E+00 0.  1.
         11    1    3    3    0    0  0.13112887435E+02 -0.11416379290E+02  0.62564520820E+01  0.18477681832E+02  0.51100000000E-03 0. -1.
        -11    1    3    3    0    0  0.24823586877E+01 -0.66195739275E+01  0.64451073234E+01  0.95666228267E+01  0.51100000000E-03 0.  1.
        -12    1    3    3    0    0 -0.22123397216E+02 -0.12712016834E+02 -0.18055506435E+02  0.31257661285E+02  0.00000000000E+00 0.  1.
</event>
<event>
 7    1  0.3802554E-013  0.5930194E+02  0.7816164E-02  0.1266605E+00
        -11   -1    0    0    0    0  0.00000000000E+00  0.00000000000E+00  0.45593999997E+02  0.45594000000E+02  0.51100000000E-03 0.  1.
         11   -1    0    0    0    0 -0.00000000000E+00 -0.00000000000E+00 -0.45593999997E+02  0.45594000000E+02  0.51100000000E-03 0. -1.
    9900012    2    1    2    0    0  0.20820747612E+02  0.89561447529E+01 -0.22427763041E+02  0.59301943251E+02  0.49999998584E+02 0.  0.
        -12    1    1    2    0    0 -0.20820747612E+02 -0.89561447529E+01  0.22427763041E+02  0.31886056749E+02  0.00000000000E+00 0.  1.
         11    1    3    3    0    0  0.82674362364E+01 -0.47676463815E+01 -0.20146763521E+02  0.22292892019E+02  0.51100000000E-03 0. -1.
        -11    1    3    3    0    0  0.11686694311E+02 -0.85060094302E+01  0.11466525088E+01  0.14499856295E+02  0.51100000000E-03 0.  1.
         12    1    3    3    0    0  0.86661706386E+00  0.22229800565E+02 -0.34276520291E+01  0.22509194937E+02  0.00000000000E+00 0. -1.
</event>
<event>
 7    1  0.3802554E-013  0.5930190E+02  0.7816164E-02  0.1266605E+00
        -11   -1    0    0    0    0  0.00000000000E+00  0.00000000000E+00  0.45593999997E+02  0.45594000000E+02  0.51100000000E-03 0. -1.
         11   -1    0    0    0    0 -0.00000000000E+00 -0.00000000000E+00 -0.45593999997E+02  0.45594000000E+02  0.51100000000E-03 0.  1.
    9900012    2    1    2    0    0  0.61047072683E+00  0.16139587922E+02  0.27492986135E+02  0.59301901784E+02  0.49999922958E+02 0.  0.
        -12    1    1    2    0    0 -0.61047072683E+00 -0.16139587922E+02 -0.27492986135E+02  0.31886098216E+02  0.00000000000E+00 0.  1.
         11    1    3    3    0    0  0.21271138600E+00  0.10375838529E+01 -0.60756040143E+01  0.61672352627E+01  0.51100000000E-03 0. -1.
        -11    1    3    3    0    0  0.11996570113E+02 -0.73378147137E+01  0.48217540121E+01  0.14866422948E+02  0.51100000000E-03 0.  1.
         12    1    3    3    0    0 -0.11598810772E+02  0.22439818782E+02  0.28746836137E+02  0.38268243574E+02  0.00000000000E+00 0. -1.
</event>
<event>
 7    1  0.3802554E-013  0.5930195E+02  0.7816164E-02  0.1266605E+00
        -11   -1    0    0    0    0  0.00000000000E+00  0.00000000000E+00  0.45593999997E+02  0.45594000000E+02  0.51100000000E-03 0.  1.
         11   -1    0    0    0    0 -0.00000000000E+00 -0.00000000000E+00 -0.45593999997E+02  0.45594000000E+02  0.51100000000E-03 0. -1.
    9900012    2    1    2    0    0 -0.25701255376E+02  0.30001083274E+01 -0.18632370821E+02  0.59301946305E+02  0.50000004153E+02 0.  0.
        -12    1    1    2    0    0  0.25701255376E+02 -0.30001083274E+01  0.18632370821E+02  0.31886053695E+02  0.00000000000E+00 0.  1.
         11    1    3    3    0    0 -0.96624726884E+01 -0.87969707649E+01  0.10968275175E+02  0.17060279413E+02  0.51100000000E-03 0. -1.
        -11    1    3    3    0    0 -0.25069232424E+01  0.31335029363E+00  0.37155214597E+01  0.44931005474E+01  0.51100000000E-03 0.  1.
         12    1    3    3    0    0 -0.13531859445E+02  0.11483728799E+02 -0.33316167455E+02  0.37748566344E+02  0.00000000000E+00 0. -1.
</event>
<event>
 7    1  0.3802554E-013  0.5930206E+02  0.7816164E-02  0.1266604E+00
        -11   -1    0    0    0    0  0.00000000000E+00  0.00000000000E+00  0.45593999997E+02  0.45594000000E+02  0.51100000000E-03 0. -1.
         11   -1    0    0    0    0 -0.00000000000E+00 -0.00000000000E+00 -0.45593999997E+02  0.45594000000E+02  0.51100000000E-03 0.  1.
    9900012    2    1    2    0    0 -0.30063643925E+02 -0.64818149997E+01 -0.84188390507E+01  0.59302055405E+02  0.50000203125E+02 0.  0.
        -12    1    1    2    0    0  0.30063643925E+02  0.64818149997E+01  0.84188390507E+01  0.31885944595E+02  0.00000000000E+00 0.  1.
         11    1    3    3    0    0 -0.13970990659E+02 -0.15805761984E+02 -0.21691010332E+02  0.30257406058E+02  0.51100000000E-03 0. -1.
        -11    1    3    3    0    0 -0.33678341825E+01 -0.24557816043E+01 -0.31015852265E+01  0.51954789526E+01  0.51100000000E-03 0.  1.
         12    1    3    3    0    0 -0.12724819084E+02  0.11779728588E+02  0.16373756507E+02  0.23849170394E+02  0.00000000000E+00 0. -1.
</event>
<event>
 7    1  0.3802554E-013  0.5930194E+02  0.7816164E-02  0.1266605E+00
        -11   -1    0    0    0    0  0.00000000000E+00  0.00000000000E+00  0.45593999997E+02  0.45594000000E+02  0.51100000000E-03 0.  1.
         11   -1    0    0    0    0 -0.00000000000E+00 -0.00000000000E+00 -0.45593999997E+02  0.45594000000E+02  0.51100000000E-03 0. -1.
    9900012    2    1    2    0    0  0.18866490719E+00 -0.15446598281E+02 -0.27894225787E+02  0.59301939955E+02  0.49999992573E+02 0.  0.
        -12    1    1    2    0    0 -0.18866490719E+00  0.15446598281E+02  0.27894225787E+02  0.31886060045E+02  0.00000000000E+00 0.  1.
         11    1    3    3    0    0 -0.12646480328E+01  0.11423042176E+00  0.37088665404E+01  0.39202135799E+01  0.51100000000E-03 0. -1.
        -11    1    3    3    0    0  0.58557491349E+01 -0.53711505246E+01  0.97425206257E+01  0.12572023079E+02  0.51100000000E-03 0.  1.
         12    1    3    3    0    0 -0.44024361949E+01 -0.10189678178E+02 -0.41345612954E+02  0.42809703296E+02  0.00000000000E+00 0. -1.
</event>
<event>
 7    1  0.3802554E-013  0.5930194E+02  0.7816164E-02  0.1266605E+00
        -11   -1    0    0    0    0  0.00000000000E+00  0.00000000000E+00  0.45593999997E+02  0.45594000000E+02  0.51100000000E-03 0. -1.
         11   -1    0    0    0    0 -0.00000000000E+00 -0.00000000000E+00 -0.45593999997E+02  0.45594000000E+02  0.51100000000E-03 0.  1.
    9900012    2    1    2    0    0 -0.26982372872E+02  0.10614215849E+02  0.13266900496E+02  0.59301942347E+02  0.49999996935E+02 0.  0.
        -12    1    1    2    0    0  0.26982372872E+02 -0.10614215849E+02 -0.13266900496E+02  0.31886057653E+02  0.00000000000E+00 0.  1.
         11    1    3    3    0    0 -0.80603260995E+00 -0.26453373910E+01  0.21269553305E+02  0.21448575629E+02  0.51100000000E-03 0. -1.
        -11    1    3    3    0    0  0.23878239615E+01  0.65272447375E+01  0.12929671639E+01  0.70695396938E+01  0.51100000000E-03 0.  1.
        -12    1    3    3    0    0 -0.28564164224E+02  0.67323085022E+01 -0.92956199731E+01  0.30783827024E+02  0.00000000000E+00 0.  1.
</event>
<event>
 7    1  0.3802554E-013  0.5930171E+02  0.7816164E-02  0.1266606E+00
        -11   -1    0    0    0    0  0.00000000000E+00  0.00000000000E+00  0.45593999997E+02  0.45594000000E+02  0.51100000000E-03 0. -1.
         11   -1    0    0    0    0 -0.00000000000E+00 -0.00000000000E+00 -0.45593999997E+02  0.45594000000E+02  0.51100000000E-03 0.  1.
    9900012    2    1    2    0    0 -0.14908435971E+02 -0.22949158338E+02  0.16364905612E+02  0.59301710357E+02  0.49999573839E+02 0.  0.
        -12    1    1    2    0    0  0.14908435971E+02  0.22949158338E+02 -0.16364905612E+02  0.31886289643E+02  0.00000000000E+00 0.  1.
         11    1    3    3    0    0 -0.13940135764E+02  0.28886173362E+01  0.10907595551E+02  0.17934523585E+02  0.51100000000E-03 0. -1.
        -11    1    3    3    0    0 -0.90657158404E+01 -0.99942508686E+01 -0.10786393854E+02  0.17274795129E+02  0.51100000000E-03 0.  1.
         12    1    3    3    0    0  0.80974156337E+01 -0.15843524805E+02  0.16243703915E+02  0.24092391643E+02  0.00000000000E+00 0. -1.
</event>
<event>
 7    1  0.3802554E-013  0.5930194E+02  0.7816164E-02  0.1266605E+00
        -11   -1    0    0    0    0  0.00000000000E+00  0.00000000000E+00  0.45593999997E+02  0.45594000000E+02  0.51100000000E-03 0. -1.
         11   -1    0    0    0    0 -0.00000000000E+00 -0.00000000000E+00 -0.45593999997E+02  0.45594000000E+02  0.51100000000E-03 0.  1.
    9900012    2    1    2    0    0  0.69143471901E+01  0.30048221529E+02  0.81250859705E+01  0.59301939783E+02  0.49999992258E+02 0.  0.
        -12    1    1    2    0    0 -0.69143471901E+01 -0.30048221529E+02 -0.81250859705E+01  0.31886060217E+02  0.00000000000E+00 0.  1.
         11    1    3    3    0    0 -0.15898294479E+01 -0.15003542876E+00  0.78714463032E+00  0.17803553672E+01  0.51100000000E-03 0. -1.
        -11    1    3    3    0    0 -0.10868593915E+02  0.11836300618E+02  0.21863074045E+02  0.27133343933E+02  0.51100000000E-03 0.  1.
         12    1    3    3    0    0  0.19372770553E+02  0.18361956340E+02 -0.14525132705E+02  0.30388240483E+02  0.00000000000E+00 0. -1.
</event>
<event>
 7    1  0.3802554E-013  0.5930194E+02  0.7816164E-02  0.1266605E+00
        -11   -1    0    0    0    0  0.00000000000E+00  0.00000000000E+00  0.45593999997E+02  0.45594000000E+02  0.51100000000E-03 0.  1.
         11   -1    0    0    0    0 -0.00000000000E+00 -0.00000000000E+00 -0.45593999997E+02  0.45594000000E+02  0.51100000000E-03 0. -1.
    9900012    2    1    2    0    0  0.30275353860E+02 -0.21218621514E+01  0.97786237301E+01  0.59301939842E+02  0.49999992366E+02 0.  0.
        -12    1    1    2    0    0 -0.30275353860E+02  0.21218621514E+01 -0.97786237301E+01  0.31886060158E+02  0.00000000000E+00 0.  1.
         11    1    3    3    0    0  0.51446683944E+01 -0.30609433578E+01  0.10559450456E+02  0.12138326957E+02  0.51100000000E-03 0.  1.
        -11    1    3    3    0    0  0.22881009878E+02  0.12988559862E+02 -0.13438254749E+02  0.29543696304E+02  0.51100000000E-03 0. -1.
         12    1    3    3    0    0  0.22496755875E+01 -0.12049478656E+02  0.12657428023E+02  0.17619916580E+02  0.00000000000E+00 0. -1.
</event>
<event>
 7    1  0.3802554E-013  0.5930196E+02  0.7816164E-02  0.1266605E+00
        -11   -1    0    0    0    0  0.00000000000E+00  0.00000000000E+00  0.45593999997E+02  0.45594000000E+02  0.51100000000E-03 0.  1.
         11   -1    0    0    0    0 -0.00000000000E+00 -0.00000000000E+00 -0.45593999997E+02  0.45594000000E+02  0.51100000000E-03 0. -1.
    9900012    2    1    2    0    0  0.26152484262E+02  0.14391782224E+02 -0.11209104183E+02  0.59301955321E+02  0.50000020597E+02 0.  0.
        -12    1    1    2    0    0 -0.26152484262E+02 -0.14391782224E+02  0.11209104183E+02  0.31886044679E+02  0.00000000000E+00 0.  1.
         11    1    3    3    0    0  0.15562397354E+02  0.11474013939E+02 -0.13600749791E+02  0.23639407827E+02  0.51100000000E-03 0. -1.
        -11    1    3    3    0    0  0.56240428251E+01  0.17643567547E+02 -0.38519411447E+01  0.18914618271E+02  0.51100000000E-03 0.  1.
         12    1    3    3    0    0  0.49660440832E+01 -0.14725799262E+02  0.62435867531E+01  0.16747929224E+02  0.00000000000E+00 0. -1.
</event>
<event>
 7    1  0.3802554E-013  0.5930186E+02  0.7816164E-02  0.1266605E+00
        -11   -1    0    0    0    0  0.00000000000E+00  0.00000000000E+00  0.45593999997E+02  0.45594000000E+02  0.51100000000E-03 0. -1.
         11   -1    0    0    0    0 -0.00000000000E+00 -0.00000000000E+00 -0.45593999997E+02  0.45594000000E+02  0.51100000000E-03 0.  1.
    9900012    2    1    2    0    0 -0.13979839204E+02  0.90347730205E+01  0.27196743890E+02  0.59301860285E+02  0.49999847273E+02 0.  0.
        -12    1    1    2    0    0  0.13979839204E+02 -0.90347730205E+01 -0.27196743890E+02  0.31886139715E+02  0.00000000000E+00 0.  1.
         11    1    3    3    0    0 -0.17263104284E+02 -0.21948139990E+01 -0.20955756965E+01  0.17527789814E+02  0.51100000000E-03 0. -1.
        -11    1    3    3    0    0  0.22679786099E-01  0.19290475747E+02  0.12863557263E+02  0.23186075016E+02  0.51100000000E-03 0.  1.
         12    1    3    3    0    0  0.32605852942E+01 -0.80608887272E+01  0.16428762324E+02  0.18587995455E+02  0.00000000000E+00 0. -1.
</event>
<event>
 7    1  0.3802554E-013  0.5930196E+02  0.7816164E-02  0.1266605E+00
        -11   -1    0    0    0    0  0.00000000000E+00  0.00000000000E+00  0.45593999997E+02  0.45594000000E+02  0.51100000000E-03 0.  1.
         11   -1    0    0    0    0 -0.00000000000E+00 -0.00000000000E+00 -0.45593999997E+02  0.45594000000E+02  0.51100000000E-03 0. -1.
    9900012    2    1    2    0    0 -0.21373091259E+02 -0.12810533493E+01 -0.23627722805E+02  0.59301962106E+02  0.50000032970E+02 0.  0.
        -12    1    1    2    0    0  0.21373091259E+02  0.12810533493E+01  0.23627722805E+02  0.31886037894E+02  0.00000000000E+00 0.  1.
         11    1    3    3    0    0 -0.19560328019E+02 -0.97877440052E+01 -0.14130545885E+02  0.26039944166E+02  0.51100000000E-03 0. -1.
        -11    1    3    3    0    0 -0.13193597355E+02 -0.11058005579E+01 -0.12336804893E+02  0.18096700287E+02  0.51100000000E-03 0.  1.
        -12    1    3    3    0    0  0.11380834115E+02  0.96124912138E+01  0.28396279725E+01  0.15165317653E+02  0.00000000000E+00 0.  1.
</event>
<event>
 7    1  0.3802554E-013  0.5930197E+02  0.7816164E-02  0.1266605E+00
        -11   -1    0    0    0    0  0.00000000000E+00  0.00000000000E+00  0.45593999997E+02  0.45594000000E+02  0.51100000000E-03 0. -1.
         11   -1    0    0    0    0 -0.00000000000E+00 -0.00000000000E+00 -0.45593999997E+02  0.45594000000E+02  0.51100000000E-03 0.  1.
    9900012    2    1    2    0    0 -0.68308953140E+01  0.60100549208E+01  0.30560383448E+02  0.59301969714E+02  0.50000046845E+02 0.  0.
        -12    1    1    2    0    0  0.68308953140E+01 -0.60100549208E+01 -0.30560383448E+02  0.31886030286E+02  0.00000000000E+00 0.  1.
         11    1    3    3    0    0 -0.56604153168E+01 -0.10301419871E+02 -0.37614137613E+00  0.11760146067E+02  0.51100000000E-03 0. -1.
        -11    1    3    3    0    0 -0.30646694255E+01 -0.96066830296E+01  0.78142447760E+01  0.12757075652E+02  0.51100000000E-03 0.  1.
        -12    1    3    3    0    0  0.18941894283E+01  0.25918157821E+02  0.23122280048E+02  0.34784747995E+02  0.00000000000E+00 0.  1.
</event>
<event>
 7    1  0.3802554E-013  0.5930197E+02  0.7816164E-02  0.1266605E+00
        -11   -1    0    0    0    0  0.00000000000E+00  0.00000000000E+00  0.45593999997E+02  0.45594000000E+02  0.51100000000E-03 0. -1.
         11   -1    0    0    0    0 -0.00000000000E+00 -0.00000000000E+00 -0.45593999997E+02  0.45594000000E+02  0.51100000000E-03 0.  1.
    9900012    2    1    2    0    0  0.21822990277E+01  0.67429873606E+01  0.31088403596E+02  0.59301966290E+02  0.50000040602E+02 0.  0.
        -12    1    1    2    0    0 -0.21822990277E+01 -0.67429873606E+01 -0.31088403596E+02  0.31886033710E+02  0.00000000000E+00 0.  1.
         11    1    3    3    0    0  0.82495996245E+01 -0.64504658527E+01  0.49799870219E+01  0.11595890422E+02  0.51100000000E-03 0. -1.
        -11    1    3    3    0    0 -0.15702134476E+01  0.13593859436E+02 -0.62430508388E+01  0.15041086021E+02  0.51100000000E-03 0.  1.
         12    1    3    3    0    0 -0.44970871493E+01 -0.40040622314E+00  0.32351467413E+02  0.32664989847E+02  0.00000000000E+00 0. -1.
</event>
<event>
 7    1  0.3802554E-013  0.5930193E+02  0.7816164E-02  0.1266605E+00
        -11   -1    0    0    0    0  0.00000000000E+00  0.00000000000E+00  0.45593999997E+02  0.45594000000E+02  0.51100000000E-03 0.  1.
         11   -1    0    0    0    0 -0.00000000000E+00 -0.00000000000E+00 -0.45593999997E+02  0.45594000000E+02  0.51100000000E-03 0. -1.
    9900012    2    1    2    0    0 -0.70125207678E+00 -0.19372559751E+02 -0.25316664769E+02  0.59301931870E+02  0.49999977826E+02 0.  0.
        -12    1    1    2    0    0  0.70125207678E+00  0.19372559751E+02  0.25316664769E+02  0.31886068130E+02  0.00000000000E+00 0.  1.
         11    1    3    3    0    0  0.12730128241E+02 -0.61247586739E+01 -0.67171934703E+01  0.15642554849E+02  0.51100000000E-03 0. -1.
        -11    1    3    3    0    0 -0.11062151684E+02 -0.24367714180E+02 -0.75513887591E+01  0.27806117433E+02  0.51100000000E-03 0.  1.
         12    1    3    3    0    0 -0.23692286330E+01  0.11119913103E+02 -0.11048082540E+02  0.15853259587E+02  0.00000000000E+00 0. -1.
</event>
<event>
 7    1  0.3802554E-013  0.5930185E+02  0.7816164E-02  0.1266605E+00
        -11   -1    0    0    0    0  0.00000000000E+00  0.00000000000E+00  0.45593999997E+02  0.45594000000E+02  0.51100000000E-03 0. -1.
         11   -1    0    0    0    0 -0.00000000000E+00 -0.00000000000E+00 -0.45593999997E+02  0.45594000000E+02  0.51100000000E-03 0.  1.
    9900012    2    1    2    0    0 -0.14847320065E+02  0.26892738922E+02 -0.85477708969E+01  0.59301847721E+02  0.49999824360E+02 0.  0.
        -12    1    1    2    0    0  0.14847320065E+02 -0.26892738922E+02  0.85477708969E+01  0.31886152279E+02  0.00000000000E+00 0.  1.
         11    1    3    3    0    0  0.84682692315E+01  0.24774097830E+02  0.99149168900E+00  0.26200201585E+02  0.51100000000E-03 0.  1.
        -11    1    3    3    0    0 -0.13396873686E+02  0.11124198584E+02 -0.15004949497E+01  0.17477857536E+02  0.51100000000E-03 0. -1.
         12    1    3    3    0    0 -0.99187156106E+01 -0.90055574922E+01 -0.80387676362E+01  0.15623788600E+02  0.00000000000E+00 0. -1.
</event>
<event>
 7    1  0.3802554E-013  0.5930195E+02  0.7816164E-02  0.1266605E+00
        -11   -1    0    0    0    0  0.00000000000E+00  0.00000000000E+00  0.45593999997E+02  0.45594000000E+02  0.51100000000E-03 0.  1.
         11   -1    0    0    0    0 -0.00000000000E+00 -0.00000000000E+00 -0.45593999997E+02  0.45594000000E+02  0.51100000000E-03 0. -1.
    9900012    2    1    2    0    0  0.13962934866E+02 -0.18714756756E+02 -0.21714391785E+02  0.59301945351E+02  0.50000002413E+02 0.  0.
        -12    1    1    2    0    0 -0.13962934866E+02  0.18714756756E+02  0.21714391785E+02  0.31886054649E+02  0.00000000000E+00 0.  1.
         11    1    3    3    0    0  0.18742831602E+02 -0.10136427557E+02 -0.14759274901E+02  0.25920592122E+02  0.51100000000E-03 0. -1.
        -11    1    3    3    0    0  0.49329116150E+01 -0.15132353387E+02  0.49591388633E+01  0.16670776664E+02  0.51100000000E-03 0.  1.
        -12    1    3    3    0    0 -0.97128083509E+01  0.65540241887E+01 -0.11914255747E+02  0.16710576565E+02  0.00000000000E+00 0.  1.
</event>
<event>
 7    1  0.3802554E-013  0.5930195E+02  0.7816164E-02  0.1266605E+00
        -11   -1    0    0    0    0  0.00000000000E+00  0.00000000000E+00  0.45593999997E+02  0.45594000000E+02  0.51100000000E-03 0. -1.
         11   -1    0    0    0    0 -0.00000000000E+00 -0.00000000000E+00 -0.45593999997E+02  0.45594000000E+02  0.51100000000E-03 0.  1.
    9900012    2    1    2    0    0 -0.25492284915E+02  0.38688562752E+01  0.18758874645E+02  0.59301952628E+02  0.50000015685E+02 0.  0.
        -12    1    1    2    0    0  0.25492284915E+02 -0.38688562752E+01 -0.18758874645E+02  0.31886047372E+02  0.00000000000E+00 0.  1.
         11    1    3    3    0    0 -0.31139117045E+01 -0.35084771357E+01  0.26260779216E+02  0.26676476214E+02  0.51100000000E-03 0. -1.
        -11    1    3    3    0    0 -0.15110493847E+02 -0.78715161570E-01  0.53996057176E+01  0.16046462618E+02  0.51100000000E-03 0.  1.
        -12    1    3    3    0    0 -0.72678793631E+01  0.74560485725E+01 -0.12901510288E+02  0.16579013796E+02  0.00000000000E+00 0.  1.
</event>
<event>
 7    1  0.3802554E-013  0.5930203E+02  0.7816164E-02  0.1266604E+00
        -11   -1    0    0    0    0  0.00000000000E+00  0.00000000000E+00  0.45593999997E+02  0.45594000000E+02  0.51100000000E-03 0. -1.
         11   -1    0    0    0    0 -0.00000000000E+00 -0.00000000000E+00 -0.45593999997E+02  0.45594000000E+02  0.51100000000E-03 0.  1.
    9900012    2    1    2    0    0  0.19444527007E+01 -0.18543488358E+02  0.25866452123E+02  0.59302028128E+02  0.50000153378E+02 0.  0.
        -12    1    1    2    0    0 -0.19444527007E+01  0.18543488358E+02 -0.25866452123E+02  0.31885971872E+02  0.00000000000E+00 0.  1.
         11    1    3    3    0    0  0.32428038653E+01 -0.46580463724E+01  0.32259274547E+02  0.32754754884E+02  0.51100000000E-03 0. -1.
        -11    1    3    3    0    0 -0.24333604741E+01 -0.16489507099E+02  0.28213311294E+01  0.16905176638E+02  0.51100000000E-03 0.  1.
        -12    1    3    3    0    0  0.11350093094E+01  0.26040651136E+01 -0.92141535536E+01  0.96420966059E+01  0.00000000000E+00 0.  1.
</event>
<event>
 7    1  0.3802554E-013  0.5930195E+02  0.7816164E-02  0.1266605E+00
        -11   -1    0    0    0    0  0.00000000000E+00  0.00000000000E+00  0.45593999997E+02  0.45594000000E+02  0.51100000000E-03 0. -1.
         11   -1    0    0    0    0 -0.00000000000E+00 -0.00000000000E+00 -0.45593999997E+02  0.45594000000E+02  0.51100000000E-03 0.  1.
    9900012    2    1    2    0    0 -0.83325580750E+01  0.19243278903E+02  0.24020503934E+02  0.59301954208E+02  0.50000018566E+02 0.  0.
        -12    1    1    2    0    0  0.83325580750E+01 -0.19243278903E+02 -0.24020503934E+02  0.31886045792E+02  0.00000000000E+00 0.  1.
         11    1    3    3    0    0  0.39681710855E+00 -0.26731512385E+01 -0.43973954549E+01  0.51614230993E+01  0.51100000000E-03 0. -1.
        -11    1    3    3    0    0  0.52896264840E+00  0.86524002026E+01 -0.95337371423E+01  0.12885494748E+02  0.51100000000E-03 0.  1.
         12    1    3    3    0    0 -0.92583378319E+01  0.13264029939E+02  0.37951636531E+02  0.41255036360E+02  0.00000000000E+00 0. -1.
</event>
<event>
 7    1  0.3802554E-013  0.5930196E+02  0.7816164E-02  0.1266605E+00
        -11   -1    0    0    0    0  0.00000000000E+00  0.00000000000E+00  0.45593999997E+02  0.45594000000E+02  0.51100000000E-03 0.  1.
         11   -1    0    0    0    0 -0.00000000000E+00 -0.00000000000E+00 -0.45593999997E+02  0.45594000000E+02  0.51100000000E-03 0. -1.
    9900012    2    1    2    0    0  0.55403593515E+00  0.14615638763E+02 -0.28333646556E+02  0.59301962626E+02  0.50000033918E+02 0.  0.
        -12    1    1    2    0    0 -0.55403593515E+00 -0.14615638763E+02  0.28333646556E+02  0.31886037374E+02  0.00000000000E+00 0.  1.
         11    1    3    3    0    0 -0.93993311507E+01 -0.27670355186E+01 -0.84605408306E+01  0.12945449511E+02  0.51100000000E-03 0. -1.
        -11    1    3    3    0    0 -0.12234101405E+01  0.24572335553E+02 -0.28604401344E+01  0.24768498641E+02  0.51100000000E-03 0.  1.
         12    1    3    3    0    0  0.11176777226E+02 -0.71896612717E+01 -0.17012665591E+02  0.21588014473E+02  0.00000000000E+00 0. -1.
</event>
<event>
 7    1  0.3802554E-013  0.5930193E+02  0.7816164E-02  0.1266605E+00
        -11   -1    0    0    0    0  0.00000000000E+00  0.00000000000E+00  0.45593999997E+02  0.45594000000E+02  0.51100000000E-03 0.  1.
         11   -1    0    0    0    0 -0.00000000000E+00 -0.00000000000E+00 -0.45593999997E+02  0.45594000000E+02  0.51100000000E-03 0. -1.
    9900012    2    1    2    0    0 -0.14601850319E+02  0.78714761356E+01 -0.27231362764E+02  0.59301932710E+02  0.49999979358E+02 0.  0.
        -12    1    1    2    0    0  0.14601850319E+02 -0.78714761356E+01  0.27231362764E+02  0.31886067290E+02  0.00000000000E+00 0.  1.
         11    1    3    3    0    0 -0.15557684264E+02  0.41518082067E+01 -0.23174403746E+02  0.28219355774E+02  0.51100000000E-03 0. -1.
        -11    1    3    3    0    0 -0.14121587546E+02  0.31119495000E+01  0.24201356554E+01  0.14661532026E+02  0.51100000000E-03 0.  1.
        -12    1    3    3    0    0  0.15077421491E+02  0.60771842889E+00 -0.64770946731E+01  0.16421044909E+02  0.00000000000E+00 0.  1.
</event>
<event>
 7    1  0.3802554E-013  0.5930192E+02  0.7816164E-02  0.1266605E+00
        -11   -1    0    0    0    0  0.00000000000E+00  0.00000000000E+00  0.45593999997E+02  0.45594000000E+02  0.51100000000E-03 0.  1.
         11   -1    0    0    0    0 -0.00000000000E+00 -0.00000000000E+00 -0.45593999997E+02  0.45594000000E+02  0.51100000000E-03 0. -1.
    9900012    2    1    2    0    0  0.14495727780E+02 -0.26135638124E+02 -0.11114147396E+02  0.59301921904E+02  0.49999959652E+02 0.  0.
        -12    1    1    2    0    0 -0.14495727780E+02  0.26135638124E+02  0.11114147396E+02  0.31886078096E+02  0.00000000000E+00 0.  1.
         11    1    3    3    0    0 -0.17484748564E+01 -0.28995827131E+01  0.10406132429E+02  0.10943141077E+02  0.51100000000E-03 0. -1.
        -11    1    3    3    0    0  0.31122932266E+01 -0.13992225122E+01  0.83951287602E+01  0.90621399199E+01  0.51100000000E-03 0.  1.
         12    1    3    3    0    0  0.13131909410E+02 -0.21836832898E+02 -0.29915408585E+02  0.39296640907E+02  0.00000000000E+00 0. -1.
</event>
<event>
 7    1  0.3802554E-013  0.5930195E+02  0.7816164E-02  0.1266605E+00
        -11   -1    0    0    0    0  0.00000000000E+00  0.00000000000E+00  0.45593999997E+02  0.45594000000E+02  0.51100000000E-03 0. -1.
         11   -1    0    0    0    0 -0.00000000000E+00 -0.00000000000E+00 -0.45593999997E+02  0.45594000000E+02  0.51100000000E-03 0.  1.
    9900012    2    1    2    0    0 -0.24387477497E+02  0.12542899097E+02 -0.16267973549E+02  0.59301947566E+02  0.50000006453E+02 0.  0.
        -12    1    1    2    0    0  0.24387477497E+02 -0.12542899097E+02  0.16267973549E+02  0.31886052434E+02  0.00000000000E+00 0.  1.
         11    1    3    3    0    0 -0.73241188178E+01  0.63527266731E+01 -0.53499473075E+01  0.11073472314E+02  0.51100000000E-03 0. -1.
        -11    1    3    3    0    0 -0.30627794974E+02  0.39250295432E+01 -0.14356961779E+02  0.34052753687E+02  0.51100000000E-03 0.  1.
         12    1    3    3    0    0  0.13564436295E+02  0.22651428808E+01  0.34389355374E+01  0.14175721565E+02  0.00000000000E+00 0. -1.
</event>
<event>
 7    1  0.3802554E-013  0.5930190E+02  0.7816164E-02  0.1266605E+00
        -11   -1    0    0    0    0  0.00000000000E+00  0.00000000000E+00  0.45593999997E+02  0.45594000000E+02  0.51100000000E-03 0. -1.
         11   -1    0    0    0    0 -0.00000000000E+00 -0.00000000000E+00 -0.45593999997E+02  0.45594000000E+02  0.51100000000E-03 0.  1.
    9900012    2    1    2    0    0 -0.31697262356E+02  0.20958274540E+01 -0.27594739320E+01  0.59301895974E+02  0.49999912361E+02 0.  0.
        -12    1    1    2    0    0  0.31697262356E+02 -0.20958274540E+01  0.27594739320E+01  0.31886104026E+02  0.00000000000E+00 0.  1.
         11    1    3    3    0    0 -0.32052850248E+01  0.16427500526E+01  0.13686490429E+02  0.14152473294E+02  0.51100000000E-03 0. -1.
        -11    1    3    3    0    0  0.24207040642E+01 -0.90674714883E+01 -0.14486733371E+01  0.94961835522E+01  0.51100000000E-03 0.  1.
         12    1    3    3    0    0 -0.30912681395E+02  0.95205488898E+01 -0.14997291024E+02  0.35653239127E+02  0.00000000000E+00 0. -1.
</event>
<event>
 7    1  0.3802554E-013  0.5930187E+02  0.7816164E-02  0.1266605E+00
        -11   -1    0    0    0    0  0.00000000000E+00  0.00000000000E+00  0.45593999997E+02  0.45594000000E+02  0.51100000000E-03 0.  1.
         11   -1    0    0    0    0 -0.00000000000E+00 -0.00000000000E+00 -0.45593999997E+02  0.45594000000E+02  0.51100000000E-03 0. -1.
    9900012    2    1    2    0    0  0.53900498235E+01 -0.24970209799E+02 -0.19083011157E+02  0.59301869326E+02  0.49999863763E+02 0.  0.
        -12    1    1    2    0    0 -0.53900498235E+01  0.24970209799E+02  0.19083011157E+02  0.31886130674E+02  0.00000000000E+00 0.  1.
         11    1    3    3    0    0  0.12367658545E+02  0.59351180116E+01 -0.86711398514E+01  0.16228779076E+02  0.51100000000E-03 0. -1.
        -11    1    3    3    0    0 -0.10284883234E+02 -0.30638241988E+01  0.41180419065E+01  0.11494525274E+02  0.51100000000E-03 0.  1.
        -12    1    3    3    0    0  0.33072745124E+01 -0.27841503612E+02 -0.14529913212E+02  0.31578564977E+02  0.00000000000E+00 0.  1.
</event>
<event>
 7    1  0.4072360E-013  0.5930193E+02  0.7816164E-02  0.1266605E+00
        -11   -1    0    0    0    0  0.00000000000E+00  0.00000000000E+00  0.45593999997E+02  0.45594000000E+02  0.51100000000E-03 0. -1.
         11   -1    0    0    0    0 -0.00000000000E+00 -0.00000000000E+00 -0.45593999997E+02  0.45594000000E+02  0.51100000000E-03 0.  1.
    9900012    2    1    2    0    0  0.19117908661E+01  0.12911335849E+02  0.29092333761E+02  0.59301930606E+02  0.49999975522E+02 0.  0.
        -12    1    1    2    0    0 -0.19117908661E+01 -0.12911335849E+02 -0.29092333761E+02  0.31886069394E+02  0.00000000000E+00 0.  1.
         11    1    3    3    0    0  0.38887177144E+00  0.50409485647E+01  0.25211821824E+02  0.25713777311E+02  0.51100000000E-03 0. -1.
        -11    1    3    3    0    0  0.10543367019E+02  0.10656276790E+02  0.13453959443E+02  0.20142687210E+02  0.51100000000E-03 0.  1.
        -12    1    3    3    0    0 -0.90204479239E+01 -0.27858895053E+01 -0.95734475056E+01  0.13445466084E+02  0.00000000000E+00 0.  1.
</event>
<event>
 7    1  0.3802554E-013  0.5930201E+02  0.7816164E-02  0.1266605E+00
        -11   -1    0    0    0    0  0.00000000000E+00  0.00000000000E+00  0.45593999997E+02  0.45594000000E+02  0.51100000000E-03 0.  1.
         11   -1    0    0    0    0 -0.00000000000E+00 -0.00000000000E+00 -0.45593999997E+02  0.45594000000E+02  0.51100000000E-03 0. -1.
    9900012    2    1    2    0    0 -0.19206673166E+02  0.11593875347E+02 -0.22658381074E+02  0.59302008208E+02  0.50000117049E+02 0.  0.
        -12    1    1    2    0    0  0.19206673166E+02 -0.11593875347E+02  0.22658381074E+02  0.31885991792E+02  0.00000000000E+00 0.  1.
         11    1    3    3    0    0  0.33616946562E+01  0.17297765163E+01  0.51296483794E+01  0.63723159460E+01  0.51100000000E-03 0. -1.
        -11    1    3    3    0    0  0.41189242617E+01 -0.65485765132E+01  0.36426504527E+01  0.85509235762E+01  0.51100000000E-03 0.  1.
         12    1    3    3    0    0 -0.26687292084E+02  0.16412675344E+02 -0.31430679906E+02  0.44378768686E+02  0.00000000000E+00 0. -1.
</event>
<event>
 7    1  0.3802554E-013  0.5930210E+02  0.7816164E-02  0.1266604E+00
        -11   -1    0    0    0    0  0.00000000000E+00  0.00000000000E+00  0.45593999997E+02  0.45594000000E+02  0.51100000000E-03 0.  1.
         11   -1    0    0    0    0 -0.00000000000E+00 -0.00000000000E+00 -0.45593999997E+02  0.45594000000E+02  0.51100000000E-03 0. -1.
    9900012    2    1    2    0    0 -0.17124050349E+02 -0.22923937015E+02 -0.14070207379E+02  0.59302098346E+02  0.50000281438E+02 0.  0.
        -12    1    1    2    0    0  0.17124050349E+02  0.22923937015E+02  0.14070207379E+02  0.31885901654E+02  0.00000000000E+00 0.  1.
         11    1    3    3    0    0  0.28282803922E+01 -0.59421919961E+01 -0.16147269816E+01  0.67761463370E+01  0.51100000000E-03 0. -1.
        -11    1    3    3    0    0  0.98332296540E+01  0.74752834184E+01 -0.46838740593E+01  0.13210259047E+02  0.51100000000E-03 0.  1.
         12    1    3    3    0    0 -0.29785560395E+02 -0.24457028437E+02 -0.77716063386E+01  0.39315692962E+02  0.00000000000E+00 0. -1.
</event>
<event>
 7    1  0.3802554E-013  0.5930196E+02  0.7816164E-02  0.1266605E+00
        -11   -1    0    0    0    0  0.00000000000E+00  0.00000000000E+00  0.45593999997E+02  0.45594000000E+02  0.51100000000E-03 0.  1.
         11   -1    0    0    0    0 -0.00000000000E+00 -0.00000000000E+00 -0.45593999997E+02  0.45594000000E+02  0.51100000000E-03 0. -1.
    9900012    2    1    2    0    0  0.28048142730E+02  0.75854476385E+01 -0.13133252741E+02  0.59301958320E+02  0.50000026066E+02 0.  0.
        -12    1    1    2    0    0 -0.28048142730E+02 -0.75854476385E+01  0.13133252741E+02  0.31886041680E+02  0.00000000000E+00 0.  1.
         11    1    3    3    0    0 -0.10494760049E+02  0.62436712482E+01 -0.94680931296E+01  0.15452126291E+02  0.51100000000E-03 0. -1.
        -11    1    3    3    0    0 -0.13521474895E+01  0.31452939008E+01  0.11798367303E+01  0.36212140957E+01  0.51100000000E-03 0.  1.
        -12    1    3    3    0    0  0.39895050268E+02 -0.18035175104E+01 -0.48449963414E+01  0.40228617933E+02  0.00000000000E+00 0.  1.
</event>
<event>
 7    1  0.3802554E-013  0.5930194E+02  0.7816164E-02  0.1266605E+00
        -11   -1    0    0    0    0  0.00000000000E+00  0.00000000000E+00  0.45593999997E+02  0.45594000000E+02  0.51100000000E-03 0.  1.
         11   -1    0    0    0    0 -0.00000000000E+00 -0.00000000000E+00 -0.45593999997E+02  0.45594000000E+02  0.51100000000E-03 0. -1.
    9900012    2    1    2    0    0  0.27168405038E+01  0.18588806367E+02 -0.25764232680E+02  0.59301943015E+02  0.49999998153E+02 0.  0.
        -12    1    1    2    0    0 -0.27168405038E+01 -0.18588806367E+02  0.25764232680E+02  0.31886056985E+02  0.00000000000E+00 0.  1.
         11    1    3    3    0    0  0.24431928932E+01  0.11212055674E+02 -0.90096383921E+01  0.14589481422E+02  0.51100000000E-03 0. -1.
        -11    1    3    3    0    0  0.17430353238E+02  0.18720070169E+00 -0.19220370606E+02  0.25947541398E+02  0.51100000000E-03 0.  1.
         12    1    3    3    0    0 -0.17156705627E+02  0.71895499906E+01  0.24657763181E+01  0.18764920194E+02  0.00000000000E+00 0. -1.
</event>
<event>
 7    1  0.3802554E-013  0.5930195E+02  0.7816164E-02  0.1266605E+00
        -11   -1    0    0    0    0  0.00000000000E+00  0.00000000000E+00  0.45593999997E+02  0.45594000000E+02  0.51100000000E-03 0.  1.
         11   -1    0    0    0    0 -0.00000000000E+00 -0.00000000000E+00 -0.45593999997E+02  0.45594000000E+02  0.51100000000E-03 0. -1.
    9900012    2    1    2    0    0 -0.14211830347E+02 -0.11643673329E+02 -0.26060868559E+02  0.59301951006E+02  0.50000012726E+02 0.  0.
        -12    1    1    2    0    0  0.14211830347E+02  0.11643673329E+02  0.26060868559E+02  0.31886048994E+02  0.00000000000E+00 0.  1.
         11    1    3    3    0    0  0.15541374768E+01 -0.87662740462E+01 -0.32350421582E+02  0.33553132204E+02  0.51100000000E-03 0. -1.
        -11    1    3    3    0    0 -0.35615930499E+01 -0.15581384384E+01 -0.67818436362E+01  0.78170418838E+01  0.51100000000E-03 0.  1.
        -12    1    3    3    0    0 -0.12204374774E+02 -0.13192608449E+01  0.13071396659E+02  0.17931776918E+02  0.00000000000E+00 0.  1.
</event>
<event>
 7    1  0.3802554E-013  0.5930195E+02  0.7816164E-02  0.1266605E+00
        -11   -1    0    0    0    0  0.00000000000E+00  0.00000000000E+00  0.45593999997E+02  0.45594000000E+02  0.51100000000E-03 0. -1.
         11   -1    0    0    0    0 -0.00000000000E+00 -0.00000000000E+00 -0.45593999997E+02  0.45594000000E+02  0.51100000000E-03 0.  1.
    9900012    2    1    2    0    0 -0.15896462857E+02 -0.27436730483E+02  0.33539173876E+01  0.59301945480E+02  0.50000002649E+02 0.  0.
        -12    1    1    2    0    0  0.15896462857E+02  0.27436730483E+02 -0.33539173876E+01  0.31886054520E+02  0.00000000000E+00 0.  1.
         11    1    3    3    0    0 -0.63449864036E+01 -0.73664389622E+01  0.79939036813E+01  0.12586729987E+02  0.51100000000E-03 0. -1.
        -11    1    3    3    0    0  0.87370486116E+00  0.11202594370E+02  0.51025423380E+01  0.12340884059E+02  0.51100000000E-03 0.  1.
         12    1    3    3    0    0 -0.10425181315E+02 -0.31272885891E+02 -0.97425286317E+01  0.34374331434E+02  0.00000000000E+00 0. -1.
</event>
<event>
 7    1  0.3802554E-013  0.5930194E+02  0.7816164E-02  0.1266605E+00
        -11   -1    0    0    0    0  0.00000000000E+00  0.00000000000E+00  0.45593999997E+02  0.45594000000E+02  0.51100000000E-03 0.  1.
         11   -1    0    0    0    0 -0.00000000000E+00 -0.00000000000E+00 -0.45593999997E+02  0.45594000000E+02  0.51100000000E-03 0. -1.
    9900012    2    1    2    0    0 -0.31358082803E+02 -0.42443079724E+01 -0.39213713806E+01  0.59301942534E+02  0.49999997275E+02 0.  0.
        -12    1    1    2    0    0  0.31358082803E+02  0.42443079724E+01  0.39213713806E+01  0.31886057466E+02  0.00000000000E+00 0.  1.
         11    1    3    3    0    0  0.14312196337E+01 -0.95320311621E+01 -0.15502047076E+02  0.18254354865E+02  0.51100000000E-03 0. -1.
        -11    1    3    3    0    0  0.22135437570E+01 -0.11269660703E+01 -0.17590502337E+01  0.30436961862E+01  0.51100000000E-03 0.  1.
        -12    1    3    3    0    0 -0.35002846194E+02  0.64146892600E+01  0.13339725929E+02  0.38003891483E+02  0.00000000000E+00 0.  1.
</event>
<event>
 7    1  0.3802554E-013  0.5930194E+02  0.7816164E-02  0.1266605E+00
        -11   -1    0    0    0    0  0.00000000000E+00  0.00000000000E+00  0.45593999997E+02  0.45594000000E+02  0.51100000000E-03 0.  1.
         11   -1    0    0    0    0 -0.00000000000E+00 -0.00000000000E+00 -0.45593999997E+02  0.45594000000E+02  0.51100000000E-03 0. -1.
    9900012    2    1    2    0    0 -0.14564197036E+02 -0.10627073086E+02 -0.26299629502E+02  0.59301936750E+02  0.49999986727E+02 0.  0.
        -12    1    1    2    0    0  0.14564197036E+02  0.10627073086E+02  0.26299629502E+02  0.31886063250E+02  0.00000000000E+00 0.  1.
         11    1    3    3    0    0 -0.50352265320E+01 -0.14439042225E+02  0.10998140424E+00  0.15292205295E+02  0.51100000000E-03 0. -1.
        -11    1    3    3    0    0 -0.17165933410E+02  0.73376995039E+00 -0.90111914357E+00  0.17205223165E+02  0.51100000000E-03 0.  1.
         12    1    3    3    0    0  0.76369629062E+01  0.30781991888E+01 -0.25508491762E+02  0.26804508290E+02  0.00000000000E+00 0. -1.
</event>
<event>
 7    1  0.3802554E-013  0.5930195E+02  0.7816164E-02  0.1266605E+00
        -11   -1    0    0    0    0  0.00000000000E+00  0.00000000000E+00  0.45593999997E+02  0.45594000000E+02  0.51100000000E-03 0.  1.
         11   -1    0    0    0    0 -0.00000000000E+00 -0.00000000000E+00 -0.45593999997E+02  0.45594000000E+02  0.51100000000E-03 0. -1.
    9900012    2    1    2    0    0  0.72786166706E+01 -0.27751822211E+02 -0.13913242301E+02  0.59301949633E+02  0.50000010223E+02 0.  0.
        -12    1    1    2    0    0 -0.72786166706E+01  0.27751822211E+02  0.13913242301E+02  0.31886050367E+02  0.00000000000E+00 0.  1.
         11    1    3    3    0    0  0.66421853900E+01  0.76696879542E+01 -0.10180896031E+01  0.10197021466E+02  0.51100000000E-03 0. -1.
        -11    1    3    3    0    0  0.66725103825E+01 -0.39475826817E+02 -0.99051847595E+01  0.41242890091E+02  0.51100000000E-03 0.  1.
         12    1    3    3    0    0 -0.60360791019E+01  0.40543166522E+01 -0.29899679382E+01  0.78620380763E+01  0.00000000000E+00 0. -1.
</event>
<event>
 7    1  0.3802554E-013  0.5930191E+02  0.7816164E-02  0.1266605E+00
        -11   -1    0    0    0    0  0.00000000000E+00  0.00000000000E+00  0.45593999997E+02  0.45594000000E+02  0.51100000000E-03 0. -1.
         11   -1    0    0    0    0 -0.00000000000E+00 -0.00000000000E+00 -0.45593999997E+02  0.45594000000E+02  0.51100000000E-03 0.  1.
    9900012    2    1    2    0    0  0.81819890626E+01 -0.13899597487E+02  0.27505986414E+02  0.59301905163E+02  0.49999929121E+02 0.  0.
        -12    1    1    2    0    0 -0.81819890626E+01  0.13899597487E+02 -0.27505986414E+02  0.31886094837E+02  0.00000000000E+00 0.  1.
         11    1    3    3    0    0 -0.30344161299E+01 -0.18927570023E+02  0.16505247016E+02  0.25295923932E+02  0.51100000000E-03 0. -1.
        -11    1    3    3    0    0 -0.82381483485E+01 -0.54664491940E+01  0.17347477784E+01  0.10037853611E+02  0.51100000000E-03 0.  1.
         12    1    3    3    0    0  0.19454553541E+02  0.10494421730E+02  0.92659916194E+01  0.23968127620E+02  0.00000000000E+00 0. -1.
</event>
<event>
 7    1  0.3802554E-013  0.5930186E+02  0.7816164E-02  0.1266605E+00
        -11   -1    0    0    0    0  0.00000000000E+00  0.00000000000E+00  0.45593999997E+02  0.45594000000E+02  0.51100000000E-03 0.  1.
         11   -1    0    0    0    0 -0.00000000000E+00 -0.00000000000E+00 -0.45593999997E+02  0.45594000000E+02  0.51100000000E-03 0. -1.
    9900012    2    1    2    0    0 -0.14063937279E+02 -0.90619337669E+01 -0.27144300421E+02  0.59301858485E+02  0.49999843990E+02 0.  0.
        -12    1    1    2    0    0  0.14063937279E+02  0.90619337669E+01  0.27144300421E+02  0.31886141515E+02  0.00000000000E+00 0.  1.
         11    1    3    3    0    0  0.68521775960E+01 -0.77100392231E+01  0.55196792590E+01  0.11698884648E+02  0.51100000000E-03 0. -1.
        -11    1    3    3    0    0 -0.14463362732E+02  0.48020548517E+01 -0.16454913434E+01  0.15328282171E+02  0.51100000000E-03 0.  1.
         12    1    3    3    0    0 -0.64527521431E+01 -0.61539493955E+01 -0.31018488337E+02  0.32274691665E+02  0.00000000000E+00 0. -1.
</event>
<event>
 7    1  0.3802554E-013  0.5930196E+02  0.7816164E-02  0.1266605E+00
        -11   -1    0    0    0    0  0.00000000000E+00  0.00000000000E+00  0.45593999997E+02  0.45594000000E+02  0.51100000000E-03 0.  1.
         11   -1    0    0    0    0 -0.00000000000E+00 -0.00000000000E+00 -0.45593999997E+02  0.45594000000E+02  0.51100000000E-03 0. -1.
    9900012    2    1    2    0    0 -0.39712942112E+00  0.21792636282E+02 -0.23273225454E+02  0.59301957114E+02  0.50000023866E+02 0.  0.
        -12    1    1    2    0    0  0.39712942112E+00 -0.21792636282E+02  0.23273225454E+02  0.31886042886E+02  0.00000000000E+00 0.  1.
         11    1    3    3    0    0  0.36502370934E+01  0.11846927634E+02 -0.66002737701E+01  0.14044128286E+02  0.51100000000E-03 0. -1.
        -11    1    3    3    0    0 -0.10265027689E+02  0.20985446096E+02  0.11504877199E+01  0.23389813244E+02  0.51100000000E-03 0.  1.
        -12    1    3    3    0    0  0.62176611748E+01 -0.11039737448E+02 -0.17823439404E+02  0.21868015585E+02  0.00000000000E+00 0.  1.
</event>
<event>
 7    1  0.3802554E-013  0.5930195E+02  0.7816164E-02  0.1266605E+00
        -11   -1    0    0    0    0  0.00000000000E+00  0.00000000000E+00  0.45593999997E+02  0.45594000000E+02  0.51100000000E-03 0.  1.
         11   -1    0    0    0    0 -0.00000000000E+00 -0.00000000000E+00 -0.45593999997E+02  0.45594000000E+02  0.51100000000E-03 0. -1.
    9900012    2    1    2    0    0 -0.16077102323E+02 -0.92898172997E+01 -0.25921929725E+02  0.59301947167E+02  0.50000005726E+02 0.  0.
        -12    1    1    2    0    0  0.16077102323E+02  0.92898172997E+01  0.25921929725E+02  0.31886052833E+02  0.00000000000E+00 0.  1.
         11    1    3    3    0    0 -0.29183800062E+01 -0.39854350007E+01 -0.25289100708E+02  0.25767018626E+02  0.51100000000E-03 0. -1.
        -11    1    3    3    0    0  0.94572590860E-01 -0.44671330123E+01 -0.13998142396E+02  0.14693951549E+02  0.51100000000E-03 0.  1.
        -12    1    3    3    0    0 -0.13253294908E+02 -0.83724928673E+00  0.13365313379E+02  0.18840976992E+02  0.00000000000E+00 0.  1.
</event>
<event>
 7    1  0.3802554E-013  0.5930194E+02  0.7816164E-02  0.1266605E+00
        -11   -1    0    0    0    0  0.00000000000E+00  0.00000000000E+00  0.45593999997E+02  0.45594000000E+02  0.51100000000E-03 0.  1.
         11   -1    0    0    0    0 -0.00000000000E+00 -0.00000000000E+00 -0.45593999997E+02  0.45594000000E+02  0.51100000000E-03 0. -1.
    9900012    2    1    2    0    0  0.28887006577E+02  0.12225755015E+02  0.57264662546E+01  0.59301942695E+02  0.49999997570E+02 0.  0.
        -12    1    1    2    0    0 -0.28887006577E+02 -0.12225755015E+02 -0.57264662546E+01  0.31886057305E+02  0.00000000000E+00 0.  1.
         11    1    3    3    0    0  0.38971467167E+02  0.13763134087E+01 -0.46759757371E+01  0.39275109690E+02  0.51100000000E-03 0. -1.
        -11    1    3    3    0    0  0.99553841444E+00  0.29232152020E+01  0.37747528839E+01  0.48769912290E+01  0.51100000000E-03 0.  1.
        -12    1    3    3    0    0 -0.11079999005E+02  0.79262264040E+01  0.66276891078E+01  0.15149841777E+02  0.00000000000E+00 0.  1.
</event>
<event>
 7    1  0.3802554E-013  0.5930195E+02  0.7816164E-02  0.1266605E+00
        -11   -1    0    0    0    0  0.00000000000E+00  0.00000000000E+00  0.45593999997E+02  0.45594000000E+02  0.51100000000E-03 0. -1.
         11   -1    0    0    0    0 -0.00000000000E+00 -0.00000000000E+00 -0.45593999997E+02  0.45594000000E+02  0.51100000000E-03 0.  1.
    9900012    2    1    2    0    0  0.84957423436E+01 -0.26838514546E+02  0.14974541467E+02  0.59301946729E+02  0.50000004927E+02 0.  0.
        -12    1    1    2    0    0 -0.84957423436E+01  0.26838514546E+02 -0.14974541467E+02  0.31886053271E+02  0.00000000000E+00 0.  1.
         11    1    3    3    0    0 -0.40474014509E+01 -0.21064901899E+02  0.21091416120E+01  0.21553654658E+02  0.51100000000E-03 0. -1.
        -11    1    3    3    0    0 -0.26187291420E+01  0.11091308646E+02 -0.53121627098E+00  0.11408639743E+02  0.51100000000E-03 0.  1.
         12    1    3    3    0    0  0.15161872937E+02 -0.16864921293E+02  0.13396616126E+02  0.26339652329E+02  0.00000000000E+00 0. -1.
</event>
<event>
 7    1  0.3802554E-013  0.5930195E+02  0.7816164E-02  0.1266605E+00
        -11   -1    0    0    0    0  0.00000000000E+00  0.00000000000E+00  0.45593999997E+02  0.45594000000E+02  0.51100000000E-03 0.  1.
         11   -1    0    0    0    0 -0.00000000000E+00 -0.00000000000E+00 -0.45593999997E+02  0.45594000000E+02  0.51100000000E-03 0. -1.
    9900012    2    1    2    0    0 -0.21740984909E+02  0.24744973150E+01 -0.23193250445E+02  0.59301946184E+02  0.50000003932E+02 0.  0.
        -12    1    1    2    0    0  0.21740984909E+02 -0.24744973150E+01  0.23193250445E+02  0.31886053816E+02  0.00000000000E+00 0.  1.
         11    1    3    3    0    0 -0.65822729548E+01  0.26929924892E+01  0.70257121901E+01  0.99969574290E+01  0.51100000000E-03 0.  1.
        -11    1    3    3    0    0  0.66631789757E+01  0.12116815975E+02 -0.94070680565E+01  0.16724476468E+02  0.51100000000E-03 0. -1.
         12    1    3    3    0    0 -0.21821890930E+02 -0.12335311150E+02 -0.20811894579E+02  0.32580512287E+02  0.00000000000E+00 0. -1.
</event>
<event>
 7    1  0.3802554E-013  0.5930194E+02  0.7816164E-02  0.1266605E+00
        -11   -1    0    0    0    0  0.00000000000E+00  0.00000000000E+00  0.45593999997E+02  0.45594000000E+02  0.51100000000E-03 0.  1.
         11   -1    0    0    0    0 -0.00000000000E+00 -0.00000000000E+00 -0.45593999997E+02  0.45594000000E+02  0.51100000000E-03 0. -1.
    9900012    2    1    2    0    0  0.11346350905E+02 -0.29178746983E+02 -0.60482876549E+01  0.59301941324E+02  0.49999995069E+02 0.  0.
        -12    1    1    2    0    0 -0.11346350905E+02  0.29178746983E+02  0.60482876549E+01  0.31886058676E+02  0.00000000000E+00 0.  1.
         11    1    3    3    0    0  0.99215256807E+01 -0.18431425613E+02  0.15715050163E+01  0.20991039761E+02  0.51100000000E-03 0. -1.
        -11    1    3    3    0    0 -0.16282918640E+02  0.54998460301E+00 -0.55185367232E+01  0.17201458378E+02  0.51100000000E-03 0.  1.
         12    1    3    3    0    0  0.17707743865E+02 -0.11297305973E+02 -0.21012559480E+01  0.21109443185E+02  0.00000000000E+00 0. -1.
</event>
<event>
 7    1  0.3802554E-013  0.5930192E+02  0.7816164E-02  0.1266605E+00
        -11   -1    0    0    0    0  0.00000000000E+00  0.00000000000E+00  0.45593999997E+02  0.45594000000E+02  0.51100000000E-03 0.  1.
         11   -1    0    0    0    0 -0.00000000000E+00 -0.00000000000E+00 -0.45593999997E+02  0.45594000000E+02  0.51100000000E-03 0. -1.
    9900012    2    1    2    0    0  0.41626801971E+01 -0.11820541536E+02 -0.29320111997E+02  0.59301920339E+02  0.49999956797E+02 0.  0.
        -12    1    1    2    0    0 -0.41626801971E+01  0.11820541536E+02  0.29320111997E+02  0.31886079661E+02  0.00000000000E+00 0.  1.
         11    1    3    3    0    0 -0.10984938233E+02 -0.36497728303E+01 -0.91365102551E+01  0.14746712502E+02  0.51100000000E-03 0. -1.
        -11    1    3    3    0    0 -0.52049555495E+01 -0.13554014401E+01  0.76845294960E+01  0.93798011265E+01  0.51100000000E-03 0.  1.
         12    1    3    3    0    0  0.20352573980E+02 -0.68153672656E+01 -0.27868131238E+02  0.35175406711E+02  0.00000000000E+00 0. -1.
</event>
<event>
 7    1  0.3802554E-013  0.5930195E+02  0.7816164E-02  0.1266605E+00
        -11   -1    0    0    0    0  0.00000000000E+00  0.00000000000E+00  0.45593999997E+02  0.45594000000E+02  0.51100000000E-03 0.  1.
         11   -1    0    0    0    0 -0.00000000000E+00 -0.00000000000E+00 -0.45593999997E+02  0.45594000000E+02  0.51100000000E-03 0. -1.
    9900012    2    1    2    0    0  0.22779467749E+01  0.98364119172E+01 -0.30245267113E+02  0.59301949387E+02  0.50000009775E+02 0.  0.
        -12    1    1    2    0    0 -0.22779467749E+01 -0.98364119172E+01  0.30245267113E+02  0.31886050613E+02  0.00000000000E+00 0.  1.
         11    1    3    3    0    0  0.71819946732E+01  0.19176796165E+02 -0.27658063704E+02  0.34413646228E+02  0.51100000000E-03 0. -1.
        -11    1    3    3    0    0 -0.26347632462E+01 -0.10616044684E+02 -0.11340600490E+02  0.15756002089E+02  0.51100000000E-03 0.  1.
        -12    1    3    3    0    0 -0.22692846521E+01  0.12756604359E+01  0.87533970807E+01  0.91323010700E+01  0.00000000000E+00 0.  1.
</event>
<event>
 7    1  0.3802554E-013  0.5930203E+02  0.7816164E-02  0.1266604E+00
        -11   -1    0    0    0    0  0.00000000000E+00  0.00000000000E+00  0.45593999997E+02  0.45594000000E+02  0.51100000000E-03 0.  1.
         11   -1    0    0    0    0 -0.00000000000E+00 -0.00000000000E+00 -0.45593999997E+02  0.45594000000E+02  0.51100000000E-03 0. -1.
    9900012    2    1    2    0    0  0.16099918566E+02  0.72818982091E+01 -0.26542070532E+02  0.59302032436E+02  0.50000161235E+02 0.  0.
        -12    1    1    2    0    0 -0.16099918566E+02 -0.72818982091E+01  0.26542070532E+02  0.31885967564E+02  0.00000000000E+00 0.  1.
         11    1    3    3    0    0  0.14765999102E+00  0.11676609086E+02 -0.14738777710E+02  0.18804163685E+02  0.51100000000E-03 0. -1.
        -11    1    3    3    0    0  0.19666960443E+02  0.11163164147E+02 -0.52725178026E+01  0.23220788339E+02  0.51100000000E-03 0.  1.
         12    1    3    3    0    0 -0.37147018683E+01 -0.15557875024E+02 -0.65307750193E+01  0.17277080412E+02  0.00000000000E+00 0. -1.
</event>
<event>
 7    1  0.3802554E-013  0.5930197E+02  0.7816164E-02  0.1266605E+00
        -11   -1    0    0    0    0  0.00000000000E+00  0.00000000000E+00  0.45593999997E+02  0.45594000000E+02  0.51100000000E-03 0. -1.
         11   -1    0    0    0    0 -0.00000000000E+00 -0.00000000000E+00 -0.45593999997E+02  0.45594000000E+02  0.51100000000E-03 0.  1.
    9900012    2    1    2    0    0  0.30906946244E+02  0.62983730295E+01 -0.46701372250E+01  0.59301968408E+02  0.50000044464E+02 0.  0.
        -12    1    1    2    0    0 -0.30906946244E+02 -0.62983730295E+01  0.46701372250E+01  0.31886031592E+02  0.00000000000E+00 0.  1.
         11    1    3    3    0    0  0.13533406018E+02 -0.15489003808E+02 -0.20827597249E+01  0.20673659709E+02  0.51100000000E-03 0. -1.
        -11    1    3    3    0    0  0.15798093051E+02  0.40764740173E+01 -0.10248429238E+02  0.19267269826E+02  0.51100000000E-03 0.  1.
         12    1    3    3    0    0  0.15754471756E+01  0.17710902821E+02  0.76610517375E+01  0.19361038873E+02  0.00000000000E+00 0. -1.
</event>
<event>
 7    1  0.3802554E-013  0.5930196E+02  0.7816164E-02  0.1266605E+00
        -11   -1    0    0    0    0  0.00000000000E+00  0.00000000000E+00  0.45593999997E+02  0.45594000000E+02  0.51100000000E-03 0. -1.
         11   -1    0    0    0    0 -0.00000000000E+00 -0.00000000000E+00 -0.45593999997E+02  0.45594000000E+02  0.51100000000E-03 0.  1.
    9900012    2    1    2    0    0 -0.16380917698E+02  0.22368801921E+02  0.15748708241E+02  0.59301959555E+02  0.50000028318E+02 0.  0.
        -12    1    1    2    0    0  0.16380917698E+02 -0.22368801921E+02 -0.15748708241E+02  0.31886040445E+02  0.00000000000E+00 0.  1.
         11    1    3    3    0    0 -0.85285384594E+01  0.28089181860E+02  0.30779443300E+01  0.29516297996E+02  0.51100000000E-03 0. -1.
        -11    1    3    3    0    0 -0.58667041256E+01 -0.66874246377E+01 -0.61633355392E+01  0.10822502983E+02  0.51100000000E-03 0.  1.
        -12    1    3    3    0    0 -0.19856751128E+01  0.96704469814E+00  0.18834099450E+02  0.18963158577E+02  0.00000000000E+00 0.  1.
</event>
<event>
 7    1  0.3802554E-013  0.5930196E+02  0.7816164E-02  0.1266605E+00
        -11   -1    0    0    0    0  0.00000000000E+00  0.00000000000E+00  0.45593999997E+02  0.45594000000E+02  0.51100000000E-03 0.  1.
         11   -1    0    0    0    0 -0.00000000000E+00 -0.00000000000E+00 -0.45593999997E+02  0.45594000000E+02  0.51100000000E-03 0. -1.
    9900012    2    1    2    0    0 -0.71383152226E+01  0.35457176983E+01 -0.30873805482E+02  0.59301960372E+02  0.50000029808E+02 0.  0.
        -12    1    1    2    0    0  0.71383152226E+01 -0.35457176983E+01  0.30873805482E+02  0.31886039628E+02  0.00000000000E+00 0.  1.
         11    1    3    3    0    0 -0.61107120366E+01  0.13636527302E+01 -0.17094824160E+02  0.18205311414E+02  0.51100000000E-03 0. -1.
        -11    1    3    3    0    0 -0.69210362410E+01  0.35558357494E+01  0.12173606090E+02  0.14447885521E+02  0.51100000000E-03 0.  1.
         12    1    3    3    0    0  0.58934330550E+01 -0.13737707813E+01 -0.25952587412E+02  0.26648763437E+02  0.00000000000E+00 0. -1.
</event>
<event>
 7    1  0.3802554E-013  0.5930196E+02  0.7816164E-02  0.1266605E+00
        -11   -1    0    0    0    0  0.00000000000E+00  0.00000000000E+00  0.45593999997E+02  0.45594000000E+02  0.51100000000E-03 0. -1.
         11   -1    0    0    0    0 -0.00000000000E+00 -0.00000000000E+00 -0.45593999997E+02  0.45594000000E+02  0.51100000000E-03 0.  1.
    9900012    2    1    2    0    0  0.28064312515E+02  0.54935112881E+00  0.15126538284E+02  0.59301959417E+02  0.50000028067E+02 0.  0.
        -12    1    1    2    0    0 -0.28064312515E+02 -0.54935112881E+00 -0.15126538284E+02  0.31886040583E+02  0.00000000000E+00 0.  1.
         11    1    3    3    0    0  0.13195220513E+02 -0.92481244572E+01 -0.92753030220E+01  0.18592280569E+02  0.51100000000E-03 0. -1.
        -11    1    3    3    0    0  0.17824784999E+02 -0.39234627703E+01  0.16490874805E+02  0.24598078634E+02  0.51100000000E-03 0.  1.
        -12    1    3    3    0    0 -0.29556929977E+01  0.13720938356E+02  0.79109665017E+01  0.16111600214E+02  0.00000000000E+00 0.  1.
</event>
<event>
 7    1  0.3802554E-013  0.5930194E+02  0.7816164E-02  0.1266605E+00
        -11   -1    0    0    0    0  0.00000000000E+00  0.00000000000E+00  0.45593999997E+02  0.45594000000E+02  0.51100000000E-03 0.  1.
         11   -1    0    0    0    0 -0.00000000000E+00 -0.00000000000E+00 -0.45593999997E+02  0.45594000000E+02  0.51100000000E-03 0. -1.
    9900012    2    1    2    0    0  0.23572207383E+02 -0.20317151625E+02 -0.69487727027E+01  0.59301936381E+02  0.49999986054E+02 0.  0.
        -12    1    1    2    0    0 -0.23572207383E+02  0.20317151625E+02  0.69487727027E+01  0.31886063619E+02  0.00000000000E+00 0.  1.
         11    1    3    3    0    0  0.17270572516E+02  0.54419627617E+00 -0.14860869775E+02  0.22790662021E+02  0.51100000000E-03 0. -1.
        -11    1    3    3    0    0 -0.29717598034E-01  0.68113509960E+01 -0.69653819729E+00  0.68469373626E+01  0.51100000000E-03 0.  1.
        -12    1    3    3    0    0  0.63313524649E+01 -0.27672698897E+02  0.86086352694E+01  0.29664336998E+02  0.00000000000E+00 0.  1.
</event>
<event>
 7    1  0.3802554E-013  0.5930195E+02  0.7816164E-02  0.1266605E+00
        -11   -1    0    0    0    0  0.00000000000E+00  0.00000000000E+00  0.45593999997E+02  0.45594000000E+02  0.51100000000E-03 0. -1.
         11   -1    0    0    0    0 -0.00000000000E+00 -0.00000000000E+00 -0.45593999997E+02  0.45594000000E+02  0.51100000000E-03 0.  1.
    9900012    2    1    2    0    0  0.30583679985E+02 -0.33503781972E+01  0.83745786317E+01  0.59301951597E+02  0.50000013805E+02 0.  0.
        -12    1    1    2    0    0 -0.30583679985E+02  0.33503781972E+01 -0.83745786317E+01  0.31886048403E+02  0.00000000000E+00 0.  1.
         11    1    3    3    0    0  0.11331885515E+01  0.92663250274E+01  0.14361960949E+02  0.17129355457E+02  0.51100000000E-03 0. -1.
        -11    1    3    3    0    0 -0.29358949806E+01  0.42078365490E+01  0.29818332975E+00  0.51394825925E+01  0.51100000000E-03 0.  1.
        -12    1    3    3    0    0  0.32386386414E+02 -0.16824539774E+02 -0.62855656469E+01  0.37033113548E+02  0.00000000000E+00 0.  1.
</event>
<event>
 7    1  0.3802554E-013  0.5930196E+02  0.7816164E-02  0.1266605E+00
        -11   -1    0    0    0    0  0.00000000000E+00  0.00000000000E+00  0.45593999997E+02  0.45594000000E+02  0.51100000000E-03 0. -1.
         11   -1    0    0    0    0 -0.00000000000E+00 -0.00000000000E+00 -0.45593999997E+02  0.45594000000E+02  0.51100000000E-03 0.  1.
    9900012    2    1    2    0    0  0.10287916413E+02  0.67665692864E+00  0.30173172756E+02  0.59301961630E+02  0.50000032103E+02 0.  0.
        -12    1    1    2    0    0 -0.10287916413E+02 -0.67665692864E+00 -0.30173172756E+02  0.31886038370E+02  0.00000000000E+00 0.  1.
         11    1    3    3    0    0  0.18919161071E+02  0.61069006534E+00  0.12545752629E+02  0.22709106264E+02  0.51100000000E-03 0. -1.
        -11    1    3    3    0    0 -0.12334334450E+01 -0.91826175783E+01 -0.53816453014E+01  0.10714659587E+02  0.51100000000E-03 0.  1.
        -12    1    3    3    0    0 -0.73978112133E+01  0.92485844416E+01  0.23009065428E+02  0.25878195780E+02  0.00000000000E+00 0.  1.
</event>
<event>
 7    1  0.3802554E-013  0.5930197E+02  0.7816164E-02  0.1266605E+00
        -11   -1    0    0    0    0  0.00000000000E+00  0.00000000000E+00  0.45593999997E+02  0.45594000000E+02  0.51100000000E-03 0.  1.
         11   -1    0    0    0    0 -0.00000000000E+00 -0.00000000000E+00 -0.45593999997E+02  0.45594000000E+02  0.51100000000E-03 0. -1.
    9900012    2    1    2    0    0 -0.18804534819E+02 -0.24833388634E+02 -0.68125971746E+01  0.59301965423E+02  0.50000039020E+02 0.  0.
        -12    1    1    2    0    0  0.18804534819E+02  0.24833388634E+02  0.68125971746E+01  0.31886034577E+02  0.00000000000E+00 0.  1.
         11    1    3    3    0    0 -0.88664020567E+01 -0.67712612887E+00  0.27528779461E+01  0.93085940116E+01  0.51100000000E-03 0. -1.
        -11    1    3    3    0    0 -0.20471580177E+02  0.22750796815E+01 -0.33273722452E+01  0.20864634884E+02  0.51100000000E-03 0.  1.
         12    1    3    3    0    0  0.10533447415E+02 -0.26431342186E+02 -0.62381028755E+01  0.29128736528E+02  0.00000000000E+00 0. -1.
</event>
<event>
 7    1  0.3802554E-013  0.5930195E+02  0.7816164E-02  0.1266605E+00
        -11   -1    0    0    0    0  0.00000000000E+00  0.00000000000E+00  0.45593999997E+02  0.45594000000E+02  0.51100000000E-03 0. -1.
         11   -1    0    0    0    0 -0.00000000000E+00 -0.00000000000E+00 -0.45593999997E+02  0.45594000000E+02  0.51100000000E-03 0.  1.
    9900012    2    1    2    0    0 -0.28358500794E+01 -0.28843291027E+02 -0.13294463183E+02  0.59301949221E+02  0.50000009472E+02 0.  0.
        -12    1    1    2    0    0  0.28358500794E+01  0.28843291027E+02  0.13294463183E+02  0.31886050779E+02  0.00000000000E+00 0.  1.
         11    1    3    3    0    0 -0.27054610403E+00  0.74453651241E+01  0.11792736733E+00  0.74512122605E+01  0.51100000000E-03 0. -1.
        -11    1    3    3    0    0 -0.12529281862E+01 -0.49230399358E+01 -0.19259150591E+02  0.19917857138E+02  0.51100000000E-03 0.  1.
         12    1    3    3    0    0 -0.13123757892E+01 -0.31365616215E+02  0.58467600405E+01  0.31932879822E+02  0.00000000000E+00 0. -1.
</event>
<event>
 7    1  0.3802554E-013  0.5930204E+02  0.7816164E-02  0.1266604E+00
        -11   -1    0    0    0    0  0.00000000000E+00  0.00000000000E+00  0.45593999997E+02  0.45594000000E+02  0.51100000000E-03 0. -1.
         11   -1    0    0    0    0 -0.00000000000E+00 -0.00000000000E+00 -0.45593999997E+02  0.45594000000E+02  0.51100000000E-03 0.  1.
    9900012    2    1    2    0    0 -0.26254930432E+02  0.18052454915E+02  0.12255177388E+01  0.59302040799E+02  0.50000176487E+02 0.  0.
        -12    1    1    2    0    0  0.26254930432E+02 -0.18052454915E+02 -0.12255177388E+01  0.31885959201E+02  0.00000000000E+00 0.  1.
         11    1    3    3    0    0 -0.84205111136E+01  0.22391620797E+02  0.24201851405E+01  0.24044687266E+02  0.51100000000E-03 0. -1.
        -11    1    3    3    0    0 -0.12567447635E+02  0.15664883471E+01 -0.14824041278E+02  0.19497354331E+02  0.51100000000E-03 0.  1.
         12    1    3    3    0    0 -0.52669716833E+01 -0.59056542297E+01  0.13629373876E+02  0.15759999202E+02  0.00000000000E+00 0. -1.
</event>
<event>
 7    1  0.3802554E-013  0.5930194E+02  0.7816164E-02  0.1266605E+00
        -11   -1    0    0    0    0  0.00000000000E+00  0.00000000000E+00  0.45593999997E+02  0.45594000000E+02  0.51100000000E-03 0. -1.
         11   -1    0    0    0    0 -0.00000000000E+00 -0.00000000000E+00 -0.45593999997E+02  0.45594000000E+02  0.51100000000E-03 0.  1.
    9900012    2    1    2    0    0 -0.27837408708E+02 -0.13515967275E+02  0.76888315338E+01  0.59301939953E+02  0.49999992569E+02 0.  0.
        -12    1    1    2    0    0  0.27837408708E+02  0.13515967275E+02 -0.76888315338E+01  0.31886060047E+02  0.00000000000E+00 0.  1.
         11    1    3    3    0    0 -0.11228519800E+02 -0.13066454195E+01  0.25348668236E+00  0.11307132038E+02  0.51100000000E-03 0. -1.
        -11    1    3    3    0    0 -0.30808223717E+02 -0.59605574621E+01  0.82954451666E+01  0.32457499975E+02  0.51100000000E-03 0.  1.
        -12    1    3    3    0    0  0.14199334809E+02 -0.62487643935E+01 -0.86010031512E+00  0.15537307940E+02  0.00000000000E+00 0.  1.
</event>
<event>
 7    1  0.3802554E-013  0.5930195E+02  0.7816164E-02  0.1266605E+00
        -11   -1    0    0    0    0  0.00000000000E+00  0.00000000000E+00  0.45593999997E+02  0.45594000000E+02  0.51100000000E-03 0. -1.
         11   -1    0    0    0    0 -0.00000000000E+00 -0.00000000000E+00 -0.45593999997E+02  0.45594000000E+02  0.51100000000E-03 0.  1.
    9900012    2    1    2    0    0  0.23068237848E+02 -0.19856175152E+02 -0.95031136127E+01  0.59301945722E+02  0.50000003089E+02 0.  0.
        -12    1    1    2    0    0 -0.23068237848E+02  0.19856175152E+02  0.95031136127E+01  0.31886054278E+02  0.00000000000E+00 0.  1.
         11    1    3    3    0    0  0.28730902011E+02 -0.69266867214E+01  0.21893543138E+01  0.29635063555E+02  0.51100000000E-03 0. -1.
        -11    1    3    3    0    0  0.54719615317E+01 -0.86346392271E+01  0.30796680775E+01  0.10676315531E+02  0.51100000000E-03 0.  1.
        -12    1    3    3    0    0 -0.11134625694E+02 -0.42948492039E+01 -0.14772136004E+02  0.18990566636E+02  0.00000000000E+00 0.  1.
</event>
<event>
 7    1  0.3802554E-013  0.5930193E+02  0.7816164E-02  0.1266605E+00
        -11   -1    0    0    0    0  0.00000000000E+00  0.00000000000E+00  0.45593999997E+02  0.45594000000E+02  0.51100000000E-03 0. -1.
         11   -1    0    0    0    0 -0.00000000000E+00 -0.00000000000E+00 -0.45593999997E+02  0.45594000000E+02  0.51100000000E-03 0.  1.
    9900012    2    1    2    0    0  0.12822755004E+02  0.16121134965E+02  0.24339426478E+02  0.59301925928E+02  0.49999966990E+02 0.  0.
        -12    1    1    2    0    0 -0.12822755004E+02 -0.16121134965E+02 -0.24339426478E+02  0.31886074072E+02  0.00000000000E+00 0.  1.
         11    1    3    3    0    0  0.62075412925E+01 -0.11884232607E+02  0.18086209851E+02  0.22513985444E+02  0.51100000000E-03 0. -1.
        -11    1    3    3    0    0  0.10460983733E+01  0.86228165005E+00  0.88544102048E+01  0.89575907356E+01  0.51100000000E-03 0.  1.
        -12    1    3    3    0    0  0.55691153381E+01  0.27143085923E+02 -0.26011935780E+01  0.27830349748E+02  0.00000000000E+00 0.  1.
</event>
<event>
 7    1  0.3802554E-013  0.5930194E+02  0.7816164E-02  0.1266605E+00
        -11   -1    0    0    0    0  0.00000000000E+00  0.00000000000E+00  0.45593999997E+02  0.45594000000E+02  0.51100000000E-03 0.  1.
         11   -1    0    0    0    0 -0.00000000000E+00 -0.00000000000E+00 -0.45593999997E+02  0.45594000000E+02  0.51100000000E-03 0. -1.
    9900012    2    1    2    0    0  0.21315166081E+02  0.69456938797E+01 -0.22674697014E+02  0.59301939516E+02  0.49999991771E+02 0.  0.
        -12    1    1    2    0    0 -0.21315166081E+02 -0.69456938797E+01  0.22674697014E+02  0.31886060484E+02  0.00000000000E+00 0.  1.
         11    1    3    3    0    0  0.38666065182E+01  0.99391601122E+01  0.24177740604E+01  0.10935409520E+02  0.51100000000E-03 0. -1.
        -11    1    3    3    0    0 -0.78849270162E-01  0.53573247652E+01 -0.28199859996E+02  0.28704342004E+02  0.51100000000E-03 0.  1.
        -12    1    3    3    0    0  0.17527408833E+02 -0.83507909977E+01  0.31073889220E+01  0.19662187991E+02  0.00000000000E+00 0.  1.
</event>
<event>
 7    1  0.3802554E-013  0.5930195E+02  0.7816164E-02  0.1266605E+00
        -11   -1    0    0    0    0  0.00000000000E+00  0.00000000000E+00  0.45593999997E+02  0.45594000000E+02  0.51100000000E-03 0.  1.
         11   -1    0    0    0    0 -0.00000000000E+00 -0.00000000000E+00 -0.45593999997E+02  0.45594000000E+02  0.51100000000E-03 0. -1.
    9900012    2    1    2    0    0 -0.15823775726E+02  0.27563367106E+00 -0.27681262745E+02  0.59301950397E+02  0.50000011616E+02 0.  0.
        -12    1    1    2    0    0  0.15823775726E+02 -0.27563367106E+00  0.27681262745E+02  0.31886049603E+02  0.00000000000E+00 0.  1.
         11    1    3    3    0    0 -0.53234338859E+01  0.58036018060E+01 -0.14057078648E+02  0.16112796239E+02  0.51100000000E-03 0. -1.
        -11    1    3    3    0    0 -0.21743969798E+02 -0.94817076293E+01  0.16924587905E+01  0.23781661405E+02  0.51100000000E-03 0.  1.
         12    1    3    3    0    0  0.11243627958E+02  0.39537394943E+01 -0.15316642887E+02  0.19407492754E+02  0.00000000000E+00 0. -1.
</event>
<event>
 7    1  0.3802554E-013  0.5930194E+02  0.7816164E-02  0.1266605E+00
        -11   -1    0    0    0    0  0.00000000000E+00  0.00000000000E+00  0.45593999997E+02  0.45594000000E+02  0.51100000000E-03 0.  1.
         11   -1    0    0    0    0 -0.00000000000E+00 -0.00000000000E+00 -0.45593999997E+02  0.45594000000E+02  0.51100000000E-03 0. -1.
    9900012    2    1    2    0    0 -0.13412281617E+02 -0.25443467555E+02  0.13764506575E+02  0.59301937517E+02  0.49999988126E+02 0.  0.
        -12    1    1    2    0    0  0.13412281617E+02  0.25443467555E+02 -0.13764506575E+02  0.31886062483E+02  0.00000000000E+00 0.  1.
         11    1    3    3    0    0  0.15152909008E+02 -0.14278699989E+02  0.75416292413E+00  0.20834123134E+02  0.51100000000E-03 0. -1.
        -11    1    3    3    0    0 -0.93510420351E+01  0.23570253349E+01 -0.29262479131E+01  0.10077722098E+02  0.51100000000E-03 0.  1.
        -12    1    3    3    0    0 -0.19214148590E+02 -0.13521792901E+02  0.15936591564E+02  0.28390092285E+02  0.00000000000E+00 0.  1.
</event>
<event>
 7    1  0.3802554E-013  0.5930193E+02  0.7816164E-02  0.1266605E+00
        -11   -1    0    0    0    0  0.00000000000E+00  0.00000000000E+00  0.45593999997E+02  0.45594000000E+02  0.51100000000E-03 0. -1.
         11   -1    0    0    0    0 -0.00000000000E+00 -0.00000000000E+00 -0.45593999997E+02  0.45594000000E+02  0.51100000000E-03 0.  1.
    9900012    2    1    2    0    0  0.17342782531E+02 -0.45325476709E+01  0.26370545382E+02  0.59301925326E+02  0.49999965893E+02 0.  0.
        -12    1    1    2    0    0 -0.17342782531E+02  0.45325476709E+01 -0.26370545382E+02  0.31886074674E+02  0.00000000000E+00 0.  1.
         11    1    3    3    0    0  0.18502503728E+01 -0.16792466794E+02  0.12437485516E+02  0.20978594178E+02  0.51100000000E-03 0. -1.
        -11    1    3    3    0    0  0.16520236663E+02  0.63840212322E+01  0.22029909729E+02  0.28266426541E+02  0.51100000000E-03 0.  1.
        -12    1    3    3    0    0 -0.10277045046E+01  0.58758978912E+01 -0.80968498622E+01  0.10056904607E+02  0.00000000000E+00 0.  1.
</event>
<event>
 7    1  0.3802554E-013  0.5930189E+02  0.7816164E-02  0.1266605E+00
        -11   -1    0    0    0    0  0.00000000000E+00  0.00000000000E+00  0.45593999997E+02  0.45594000000E+02  0.51100000000E-03 0.  1.
         11   -1    0    0    0    0 -0.00000000000E+00 -0.00000000000E+00 -0.45593999997E+02  0.45594000000E+02  0.51100000000E-03 0. -1.
    9900012    2    1    2    0    0  0.11693849986E+02  0.89895347360E+01 -0.28269526540E+02  0.59301890281E+02  0.49999901978E+02 0.  0.
        -12    1    1    2    0    0 -0.11693849986E+02 -0.89895347360E+01  0.28269526540E+02  0.31886109719E+02  0.00000000000E+00 0.  1.
         11    1    3    3    0    0 -0.34611407965E+01  0.61453088927E+01 -0.16678215150E+02  0.18108207472E+02  0.51100000000E-03 0. -1.
        -11    1    3    3    0    0 -0.93536347710E+01  0.64559001767E+01 -0.11849693860E+02  0.16419024799E+02  0.51100000000E-03 0.  1.
         12    1    3    3    0    0  0.24508625553E+02 -0.36116743334E+01  0.25838246968E+00  0.24774658010E+02  0.00000000000E+00 0. -1.
</event>
<event>
 7    1  0.3802554E-013  0.5930195E+02  0.7816164E-02  0.1266605E+00
        -11   -1    0    0    0    0  0.00000000000E+00  0.00000000000E+00  0.45593999997E+02  0.45594000000E+02  0.51100000000E-03 0. -1.
         11   -1    0    0    0    0 -0.00000000000E+00 -0.00000000000E+00 -0.45593999997E+02  0.45594000000E+02  0.51100000000E-03 0.  1.
    9900012    2    1    2    0    0 -0.24884365283E-01 -0.20131683368E+02  0.24727210324E+02  0.59301949368E+02  0.50000009740E+02 0.  0.
        -12    1    1    2    0    0  0.24884365283E-01  0.20131683368E+02 -0.24727210324E+02  0.31886050632E+02  0.00000000000E+00 0.  1.
         11    1    3    3    0    0  0.38997223967E+01 -0.13432128485E+02  0.20740757009E+02  0.25016173008E+02  0.51100000000E-03 0. -1.
        -11    1    3    3    0    0  0.83223758943E+01  0.35188708446E+01  0.13101274549E+02  0.15915017676E+02  0.51100000000E-03 0.  1.
        -12    1    3    3    0    0 -0.12246982656E+02 -0.10218425728E+02 -0.91148212335E+01  0.18370758685E+02  0.00000000000E+00 0.  1.
</event>
<event>
 7    1  0.3802554E-013  0.5930194E+02  0.7816164E-02  0.1266605E+00
        -11   -1    0    0    0    0  0.00000000000E+00  0.00000000000E+00  0.45593999997E+02  0.45594000000E+02  0.51100000000E-03 0. -1.
         11   -1    0    0    0    0 -0.00000000000E+00 -0.00000000000E+00 -0.45593999997E+02  0.45594000000E+02  0.51100000000E-03 0.  1.
    9900012    2    1    2    0    0  0.14268098640E+02  0.27956605503E+02 -0.56187452404E+01  0.59301941477E+02  0.49999995348E+02 0.  0.
        -12    1    1    2    0    0 -0.14268098640E+02 -0.27956605503E+02  0.56187452404E+01  0.31886058523E+02  0.00000000000E+00 0.  1.
         11    1    3    3    0    0  0.14091318046E+01  0.15443702450E+02  0.26742460127E+01  0.15736746481E+02  0.51100000000E-03 0. -1.
        -11    1    3    3    0    0  0.20519780843E+02  0.19920580528E+02  0.21051516043E+01  0.28676167770E+02  0.51100000000E-03 0.  1.
        -12    1    3    3    0    0 -0.76608140071E+01 -0.74076774757E+01 -0.10398142857E+02  0.14889027225E+02  0.00000000000E+00 0.  1.
</event>
<event>
 7    1  0.3802554E-013  0.5930195E+02  0.7816164E-02  0.1266605E+00
        -11   -1    0    0    0    0  0.00000000000E+00  0.00000000000E+00  0.45593999997E+02  0.45594000000E+02  0.51100000000E-03 0. -1.
         11   -1    0    0    0    0 -0.00000000000E+00 -0.00000000000E+00 -0.45593999997E+02  0.45594000000E+02  0.51100000000E-03 0.  1.
    9900012    2    1    2    0    0  0.17239955328E+02  0.97212610008E+01  0.25000024571E+02  0.59301949701E+02  0.50000010346E+02 0.  0.
        -12    1    1    2    0    0 -0.17239955328E+02 -0.97212610008E+01 -0.25000024571E+02  0.31886050299E+02  0.00000000000E+00 0.  1.
         11    1    3    3    0    0  0.89139372372E+01  0.17946630133E+01  0.58289688057E+01  0.10800739326E+02  0.51100000000E-03 0. -1.
        -11    1    3    3    0    0  0.96704613632E+01 -0.16354797460E+02  0.28475515525E+01  0.19212125677E+02  0.51100000000E-03 0.  1.
         12    1    3    3    0    0 -0.13444432729E+01  0.24281395448E+02  0.16323504213E+02  0.29289084697E+02  0.00000000000E+00 0. -1.
</event>
<event>
 7    1  0.3802554E-013  0.5930194E+02  0.7816164E-02  0.1266605E+00
        -11   -1    0    0    0    0  0.00000000000E+00  0.00000000000E+00  0.45593999997E+02  0.45594000000E+02  0.51100000000E-03 0. -1.
         11   -1    0    0    0    0 -0.00000000000E+00 -0.00000000000E+00 -0.45593999997E+02  0.45594000000E+02  0.51100000000E-03 0.  1.
    9900012    2    1    2    0    0 -0.22501883928E+02 -0.16686390971E+02  0.15229923841E+02  0.59301937149E+02  0.49999987455E+02 0.  0.
        -12    1    1    2    0    0  0.22501883928E+02  0.16686390971E+02 -0.15229923841E+02  0.31886062851E+02  0.00000000000E+00 0.  1.
         11    1    3    3    0    0  0.14728821003E+01  0.15517664958E+01  0.72135978401E+01  0.75241846733E+01  0.51100000000E-03 0. -1.
        -11    1    3    3    0    0  0.99382279579E+01  0.34150046104E+01  0.43552154159E+01  0.11375347600E+02  0.51100000000E-03 0.  1.
        -12    1    3    3    0    0 -0.33912993986E+02 -0.21653162077E+02  0.36611105848E+01  0.40402404876E+02  0.00000000000E+00 0.  1.
</event>
<event>
 7    1  0.3802554E-013  0.5930194E+02  0.7816164E-02  0.1266605E+00
        -11   -1    0    0    0    0  0.00000000000E+00  0.00000000000E+00  0.45593999997E+02  0.45594000000E+02  0.51100000000E-03 0. -1.
         11   -1    0    0    0    0 -0.00000000000E+00 -0.00000000000E+00 -0.45593999997E+02  0.45594000000E+02  0.51100000000E-03 0.  1.
    9900012    2    1    2    0    0 -0.31041489125E+02 -0.72216968081E+01  0.99703201047E+00  0.59301936826E+02  0.49999986866E+02 0.  0.
        -12    1    1    2    0    0  0.31041489125E+02  0.72216968081E+01 -0.99703201047E+00  0.31886063174E+02  0.00000000000E+00 0.  1.
         11    1    3    3    0    0 -0.26208783421E+02 -0.32002529246E+00  0.29234033979E+01  0.26373263588E+02  0.51100000000E-03 0. -1.
        -11    1    3    3    0    0 -0.66694085140E+01  0.93876629060E+01 -0.94455461284E+01  0.14893876819E+02  0.51100000000E-03 0.  1.
         12    1    3    3    0    0  0.18367028097E+01 -0.16289334422E+02  0.75191747409E+01  0.18034796420E+02  0.00000000000E+00 0. -1.
</event>
<event>
 7    1  0.3802554E-013  0.5930192E+02  0.7816164E-02  0.1266605E+00
        -11   -1    0    0    0    0  0.00000000000E+00  0.00000000000E+00  0.45593999997E+02  0.45594000000E+02  0.51100000000E-03 0.  1.
         11   -1    0    0    0    0 -0.00000000000E+00 -0.00000000000E+00 -0.45593999997E+02  0.45594000000E+02  0.51100000000E-03 0. -1.
    9900012    2    1    2    0    0  0.21954604198E+02  0.20901514528E+02 -0.98916072616E+01  0.59301923897E+02  0.49999963286E+02 0.  0.
        -12    1    1    2    0    0 -0.21954604198E+02 -0.20901514528E+02  0.98916072616E+01  0.31886076103E+02  0.00000000000E+00 0.  1.
         11    1    3    3    0    0  0.61696855889E+01 -0.35454289122E+01 -0.14514779239E+02  0.16165206558E+02  0.51100000000E-03 0. -1.
        -11    1    3    3    0    0 -0.66570511419E+01  0.18254313003E+02  0.15382952977E+00  0.19430901598E+02  0.51100000000E-03 0.  1.
         12    1    3    3    0    0  0.22441969751E+02  0.61926304374E+01  0.44693424477E+01  0.23705815741E+02  0.00000000000E+00 0. -1.
</event>
<event>
 7    1  0.3802554E-013  0.5930184E+02  0.7816164E-02  0.1266605E+00
        -11   -1    0    0    0    0  0.00000000000E+00  0.00000000000E+00  0.45593999997E+02  0.45594000000E+02  0.51100000000E-03 0.  1.
         11   -1    0    0    0    0 -0.00000000000E+00 -0.00000000000E+00 -0.45593999997E+02  0.45594000000E+02  0.51100000000E-03 0. -1.
    9900012    2    1    2    0    0  0.83124664035E+01 -0.30353841104E+02 -0.51258356626E+01  0.59301843777E+02  0.49999817166E+02 0.  0.
        -12    1    1    2    0    0 -0.83124664035E+01  0.30353841104E+02  0.51258356626E+01  0.31886156223E+02  0.00000000000E+00 0.  1.
         11    1    3    3    0    0  0.13605703008E+02 -0.29777978865E+02 -0.14379577571E+01  0.32770579830E+02  0.51100000000E-03 0.  1.
        -11    1    3    3    0    0  0.76684265325E+01 -0.20049963452E+01 -0.93992522965E+01  0.12295150256E+02  0.51100000000E-03 0. -1.
        -12    1    3    3    0    0 -0.12961663137E+02  0.14291341064E+01  0.57113743911E+01  0.14236113690E+02  0.00000000000E+00 0.  1.
</event>
<event>
 7    1  0.3802554E-013  0.5930193E+02  0.7816164E-02  0.1266605E+00
        -11   -1    0    0    0    0  0.00000000000E+00  0.00000000000E+00  0.45593999997E+02  0.45594000000E+02  0.51100000000E-03 0.  1.
         11   -1    0    0    0    0 -0.00000000000E+00 -0.00000000000E+00 -0.45593999997E+02  0.45594000000E+02  0.51100000000E-03 0. -1.
    9900012    2    1    2    0    0 -0.25724136698E+02  0.17897265495E+02  0.58887939121E+01  0.59301933846E+02  0.49999981431E+02 0.  0.
        -12    1    1    2    0    0  0.25724136698E+02 -0.17897265495E+02 -0.58887939121E+01  0.31886066154E+02  0.00000000000E+00 0.  1.
         11    1    3    3    0    0 -0.85994294302E+01 -0.64507173229E+01 -0.17846127693E+01  0.10897099775E+02  0.51100000000E-03 0. -1.
        -11    1    3    3    0    0 -0.89082782791E+01 -0.56930917110E+01  0.13055001755E+02  0.16798862646E+02  0.51100000000E-03 0.  1.
         12    1    3    3    0    0 -0.82164289885E+01  0.30041074529E+02 -0.53815950734E+01  0.31605971425E+02  0.00000000000E+00 0. -1.
</event>
<event>
 7    1  0.3802554E-013  0.5930198E+02  0.7816164E-02  0.1266605E+00
        -11   -1    0    0    0    0  0.00000000000E+00  0.00000000000E+00  0.45593999997E+02  0.45594000000E+02  0.51100000000E-03 0.  1.
         11   -1    0    0    0    0 -0.00000000000E+00 -0.00000000000E+00 -0.45593999997E+02  0.45594000000E+02  0.51100000000E-03 0. -1.
    9900012    2    1    2    0    0 -0.11963578592E+02 -0.23645039297E+02 -0.17734243227E+02  0.59301976747E+02  0.50000059672E+02 0.  0.
        -12    1    1    2    0    0  0.11963578592E+02  0.23645039297E+02  0.17734243227E+02  0.31886023253E+02  0.00000000000E+00 0.  1.
         11    1    3    3    0    0  0.89060521663E+01  0.25478694145E+00 -0.19500832265E+02  0.21439802725E+02  0.51100000000E-03 0. -1.
        -11    1    3    3    0    0  0.30548373604E+01 -0.32444529932E+01 -0.36919221836E+01  0.57869505091E+01  0.51100000000E-03 0.  1.
        -12    1    3    3    0    0 -0.23924468118E+02 -0.20655373245E+02  0.54585112221E+01  0.32075223513E+02  0.00000000000E+00 0.  1.
</event>
<event>
 7    1  0.3802554E-013  0.5930194E+02  0.7816164E-02  0.1266605E+00
        -11   -1    0    0    0    0  0.00000000000E+00  0.00000000000E+00  0.45593999997E+02  0.45594000000E+02  0.51100000000E-03 0.  1.
         11   -1    0    0    0    0 -0.00000000000E+00 -0.00000000000E+00 -0.45593999997E+02  0.45594000000E+02  0.51100000000E-03 0. -1.
    9900012    2    1    2    0    0  0.23792217764E+02 -0.10824147474E+02 -0.18261675659E+02  0.59301943603E+02  0.49999999226E+02 0.  0.
        -12    1    1    2    0    0 -0.23792217764E+02  0.10824147474E+02  0.18261675659E+02  0.31886056397E+02  0.00000000000E+00 0.  1.
         11    1    3    3    0    0 -0.11554404329E+01 -0.19958135138E+02 -0.21430214812E+02  0.29307273977E+02  0.51100000000E-03 0. -1.
        -11    1    3    3    0    0 -0.69316273797E+00 -0.17081715359E+01 -0.51273557500E+00  0.19134321541E+01  0.51100000000E-03 0.  1.
         12    1    3    3    0    0  0.25640820935E+02  0.10842159200E+02  0.36812747288E+01  0.28081237472E+02  0.00000000000E+00 0. -1.
</event>
<event>
 7    1  0.3802554E-013  0.5930194E+02  0.7816164E-02  0.1266605E+00
        -11   -1    0    0    0    0  0.00000000000E+00  0.00000000000E+00  0.45593999997E+02  0.45594000000E+02  0.51100000000E-03 0.  1.
         11   -1    0    0    0    0 -0.00000000000E+00 -0.00000000000E+00 -0.45593999997E+02  0.45594000000E+02  0.51100000000E-03 0. -1.
    9900012    2    1    2    0    0  0.74092632866E+01 -0.18588989162E+01 -0.30957522440E+02  0.59301939045E+02  0.49999990912E+02 0.  0.
        -12    1    1    2    0    0 -0.74092632866E+01  0.18588989162E+01  0.30957522440E+02  0.31886060955E+02  0.00000000000E+00 0.  1.
         11    1    3    3    0    0 -0.35084227415E+01  0.13657492711E+01  0.63654702016E+01  0.73955062269E+01  0.51100000000E-03 0. -1.
        -11    1    3    3    0    0 -0.18417229763E+00  0.39633544931E+01  0.56727123474E+01  0.69225547243E+01  0.51100000000E-03 0.  1.
         12    1    3    3    0    0  0.11101858326E+02 -0.71880026804E+01 -0.42995704989E+02  0.44983878093E+02  0.00000000000E+00 0. -1.
</event>
<event>
 7    1  0.3802554E-013  0.5930194E+02  0.7816164E-02  0.1266605E+00
        -11   -1    0    0    0    0  0.00000000000E+00  0.00000000000E+00  0.45593999997E+02  0.45594000000E+02  0.51100000000E-03 0. -1.
         11   -1    0    0    0    0 -0.00000000000E+00 -0.00000000000E+00 -0.45593999997E+02  0.45594000000E+02  0.51100000000E-03 0.  1.
    9900012    2    1    2    0    0 -0.57872786300E+01 -0.29612794080E+02  0.10310717314E+02  0.59301936293E+02  0.49999985894E+02 0.  0.
        -12    1    1    2    0    0  0.57872786300E+01  0.29612794080E+02 -0.10310717314E+02  0.31886063707E+02  0.00000000000E+00 0.  1.
         11    1    3    3    0    0  0.82392021080E+00  0.21725700513E+01  0.15954317311E+02  0.16122628392E+02  0.51100000000E-03 0. -1.
        -11    1    3    3    0    0 -0.89468973356E+01 -0.40259155578E+00 -0.74620524526E+01  0.11657241482E+02  0.51100000000E-03 0.  1.
        -12    1    3    3    0    0  0.23356984948E+01 -0.31382772576E+02  0.18184524549E+01  0.31522066419E+02  0.00000000000E+00 0.  1.
</event>
<event>
 7    1  0.3802554E-013  0.5930194E+02  0.7816164E-02  0.1266605E+00
        -11   -1    0    0    0    0  0.00000000000E+00  0.00000000000E+00  0.45593999997E+02  0.45594000000E+02  0.51100000000E-03 0. -1.
         11   -1    0    0    0    0 -0.00000000000E+00 -0.00000000000E+00 -0.45593999997E+02  0.45594000000E+02  0.51100000000E-03 0.  1.
    9900012    2    1    2    0    0  0.10945718149E+02 -0.29901366688E+02  0.16794347188E+01  0.59301937581E+02  0.49999988244E+02 0.  0.
        -12    1    1    2    0    0 -0.10945718149E+02  0.29901366688E+02 -0.16794347188E+01  0.31886062419E+02  0.00000000000E+00 0.  1.
         11    1    3    3    0    0 -0.18966230993E+01 -0.22497733691E+02  0.73088517829E+01  0.23731087524E+02  0.51100000000E-03 0. -1.
        -11    1    3    3    0    0 -0.18890625499E+01 -0.15419784680E+02 -0.96974276208E+01  0.18313339936E+02  0.51100000000E-03 0.  1.
        -12    1    3    3    0    0  0.14731403798E+02  0.80161516839E+01  0.40680105567E+01  0.17257510121E+02  0.00000000000E+00 0.  1.
</event>
<event>
 7    1  0.3802554E-013  0.5930192E+02  0.7816164E-02  0.1266605E+00
        -11   -1    0    0    0    0  0.00000000000E+00  0.00000000000E+00  0.45593999997E+02  0.45594000000E+02  0.51100000000E-03 0.  1.
         11   -1    0    0    0    0 -0.00000000000E+00 -0.00000000000E+00 -0.45593999997E+02  0.45594000000E+02  0.51100000000E-03 0. -1.
    9900012    2    1    2    0    0  0.28714948561E+02 -0.13384478359E+02  0.36096310479E+01  0.59301922033E+02  0.49999959886E+02 0.  0.
        -12    1    1    2    0    0 -0.28714948561E+02  0.13384478359E+02 -0.36096310479E+01  0.31886077967E+02  0.00000000000E+00 0.  1.
         11    1    3    3    0    0  0.29537134613E+02 -0.16307244803E+02  0.22842154785E+01  0.33816951294E+02  0.51100000000E-03 0. -1.
        -11    1    3    3    0    0  0.28287431395E+00 -0.27497760123E+01  0.12554909455E+02  0.12855622804E+02  0.51100000000E-03 0.  1.
         12    1    3    3    0    0 -0.11050603656E+01  0.56725424567E+01 -0.11229493885E+02  0.12629347935E+02  0.00000000000E+00 0. -1.
</event>
<event>
 7    1  0.3802554E-013  0.5930200E+02  0.7816164E-02  0.1266605E+00
        -11   -1    0    0    0    0  0.00000000000E+00  0.00000000000E+00  0.45593999997E+02  0.45594000000E+02  0.51100000000E-03 0. -1.
         11   -1    0    0    0    0 -0.00000000000E+00 -0.00000000000E+00 -0.45593999997E+02  0.45594000000E+02  0.51100000000E-03 0.  1.
    9900012    2    1    2    0    0  0.30156638751E+02 -0.10331454495E+02  0.74504874123E+00  0.59302001342E+02  0.50000104528E+02 0.  0.
        -12    1    1    2    0    0 -0.30156638751E+02  0.10331454495E+02 -0.74504874123E+00  0.31885998658E+02  0.00000000000E+00 0.  1.
         11    1    3    3    0    0  0.12114342970E+02 -0.21034414485E+02  0.43765722156E+01  0.24664920088E+02  0.51100000000E-03 0. -1.
        -11    1    3    3    0    0  0.10930431369E+02 -0.66339698804E+01  0.53459232565E+01  0.13858671726E+02  0.51100000000E-03 0.  1.
        -12    1    3    3    0    0  0.71118644118E+01  0.17336929870E+02 -0.89774467309E+01  0.20778409528E+02  0.00000000000E+00 0.  1.
</event>
<event>
 7    1  0.3802554E-013  0.5930194E+02  0.7816164E-02  0.1266605E+00
        -11   -1    0    0    0    0  0.00000000000E+00  0.00000000000E+00  0.45593999997E+02  0.45594000000E+02  0.51100000000E-03 0.  1.
         11   -1    0    0    0    0 -0.00000000000E+00 -0.00000000000E+00 -0.45593999997E+02  0.45594000000E+02  0.51100000000E-03 0. -1.
    9900012    2    1    2    0    0  0.10441574675E+00  0.16747402281E+01 -0.31841876608E+02  0.59301940924E+02  0.49999994339E+02 0.  0.
        -12    1    1    2    0    0 -0.10441574675E+00 -0.16747402281E+01  0.31841876608E+02  0.31886059076E+02  0.00000000000E+00 0.  1.
         11    1    3    3    0    0 -0.49553841490E+01 -0.94007322329E+01 -0.23071578395E+02  0.25401325329E+02  0.51100000000E-03 0. -1.
        -11    1    3    3    0    0  0.48832354006E+01  0.86546893587E+01  0.10512357178E+02  0.14465797232E+02  0.51100000000E-03 0.  1.
         12    1    3    3    0    0  0.17656449513E+00  0.24207831023E+01 -0.19282655391E+02  0.19434818363E+02  0.00000000000E+00 0. -1.
</event>
<event>
 7    1  0.3802554E-013  0.5930195E+02  0.7816164E-02  0.1266605E+00
        -11   -1    0    0    0    0  0.00000000000E+00  0.00000000000E+00  0.45593999997E+02  0.45594000000E+02  0.51100000000E-03 0.  1.
         11   -1    0    0    0    0 -0.00000000000E+00 -0.00000000000E+00 -0.45593999997E+02  0.45594000000E+02  0.51100000000E-03 0. -1.
    9900012    2    1    2    0    0 -0.10899387720E+02  0.28685715179E+02 -0.86633224536E+01  0.59301951892E+02  0.50000014343E+02 0.  0.
        -12    1    1    2    0    0  0.10899387720E+02 -0.28685715179E+02  0.86633224536E+01  0.31886048108E+02  0.00000000000E+00 0.  1.
         11    1    3    3    0    0  0.41150021822E+00  0.17360074040E+02 -0.24553785209E+02  0.30073740563E+02  0.51100000000E-03 0. -1.
        -11    1    3    3    0    0  0.32113768520E+01  0.14150459457E+01 -0.20866198132E+01  0.40828028142E+01  0.51100000000E-03 0.  1.
        -12    1    3    3    0    0 -0.14522264790E+02  0.99105951932E+01  0.17977082569E+02  0.25145408515E+02  0.00000000000E+00 0.  1.
</event>
<event>
 7    1  0.3802554E-013  0.5930195E+02  0.7816164E-02  0.1266605E+00
        -11   -1    0    0    0    0  0.00000000000E+00  0.00000000000E+00  0.45593999997E+02  0.45594000000E+02  0.51100000000E-03 0.  1.
         11   -1    0    0    0    0 -0.00000000000E+00 -0.00000000000E+00 -0.45593999997E+02  0.45594000000E+02  0.51100000000E-03 0. -1.
    9900012    2    1    2    0    0 -0.27151306765E+02  0.16430129548E+02 -0.30947811697E+01  0.59301948402E+02  0.50000007979E+02 0.  0.
        -12    1    1    2    0    0  0.27151306765E+02 -0.16430129548E+02  0.30947811697E+01  0.31886051598E+02  0.00000000000E+00 0.  1.
         11    1    3    3    0    0 -0.12814380262E+02  0.13541642670E+02 -0.40292599267E+01  0.19074049478E+02  0.51100000000E-03 0. -1.
        -11    1    3    3    0    0 -0.26707565076E+02  0.46340725430E+00 -0.33337665001E+01  0.26918818285E+02  0.51100000000E-03 0.  1.
        -12    1    3    3    0    0  0.12370638572E+02  0.24250796237E+01  0.42682452572E+01  0.13309080639E+02  0.00000000000E+00 0.  1.
</event>
<event>
 7    1  0.3802554E-013  0.5930194E+02  0.7816164E-02  0.1266605E+00
        -11   -1    0    0    0    0  0.00000000000E+00  0.00000000000E+00  0.45593999997E+02  0.45594000000E+02  0.51100000000E-03 0. -1.
         11   -1    0    0    0    0 -0.00000000000E+00 -0.00000000000E+00 -0.45593999997E+02  0.45594000000E+02  0.51100000000E-03 0.  1.
    9900012    2    1    2    0    0 -0.83174768185E+01  0.21664678290E+02  0.21867376954E+02  0.59301939082E+02  0.49999990980E+02 0.  0.
        -12    1    1    2    0    0  0.83174768185E+01 -0.21664678290E+02 -0.21867376954E+02  0.31886060918E+02  0.00000000000E+00 0.  1.
         11    1    3    3    0    0 -0.42003691868E+01  0.11364055218E+02  0.80508722239E+01  0.14546525225E+02  0.51100000000E-03 0. -1.
        -11    1    3    3    0    0 -0.81395886585E+01  0.22668351076E+02 -0.21283051422E+01  0.24179262335E+02  0.51100000000E-03 0.  1.
         12    1    3    3    0    0  0.40224810269E+01 -0.12367728004E+02  0.15944809872E+02  0.20576151521E+02  0.00000000000E+00 0. -1.
</event>
<event>
 7    1  0.3802554E-013  0.5930197E+02  0.7816164E-02  0.1266605E+00
        -11   -1    0    0    0    0  0.00000000000E+00  0.00000000000E+00  0.45593999997E+02  0.45594000000E+02  0.51100000000E-03 0.  1.
         11   -1    0    0    0    0 -0.00000000000E+00 -0.00000000000E+00 -0.45593999997E+02  0.45594000000E+02  0.51100000000E-03 0. -1.
    9900012    2    1    2    0    0  0.18006277690E+02 -0.25808512907E+02  0.51394335101E+01  0.59301966200E+02  0.50000040436E+02 0.  0.
        -12    1    1    2    0    0 -0.18006277690E+02  0.25808512907E+02 -0.51394335101E+01  0.31886033800E+02  0.00000000000E+00 0.  1.
         11    1    3    3    0    0 -0.54306997619E+01 -0.90987192825E+01  0.94414356797E+01  0.14192247900E+02  0.51100000000E-03 0. -1.
        -11    1    3    3    0    0 -0.13269374927E+01 -0.11811787938E+02  0.10488643673E+02  0.15852152654E+02  0.51100000000E-03 0.  1.
         12    1    3    3    0    0  0.24763914945E+02 -0.48980056867E+01 -0.14790645843E+02  0.29257565646E+02  0.00000000000E+00 0. -1.
</event>
<event>
 7    1  0.3802554E-013  0.5930193E+02  0.7816164E-02  0.1266605E+00
        -11   -1    0    0    0    0  0.00000000000E+00  0.00000000000E+00  0.45593999997E+02  0.45594000000E+02  0.51100000000E-03 0. -1.
         11   -1    0    0    0    0 -0.00000000000E+00 -0.00000000000E+00 -0.45593999997E+02  0.45594000000E+02  0.51100000000E-03 0.  1.
    9900012    2    1    2    0    0 -0.31448781211E+02  0.52613074834E+01  0.12061057274E+00  0.59301925563E+02  0.49999966324E+02 0.  0.
        -12    1    1    2    0    0  0.31448781211E+02 -0.52613074834E+01 -0.12061057274E+00  0.31886074437E+02  0.00000000000E+00 0.  1.
         11    1    3    3    0    0 -0.84397417328E+01  0.10656872380E+02  0.17990963256E+02  0.22549344305E+02  0.51100000000E-03 0. -1.
        -11    1    3    3    0    0  0.82110641699E-01  0.36782582662E+01  0.26678278160E+01  0.45446266675E+01  0.51100000000E-03 0.  1.
        -12    1    3    3    0    0 -0.23091150120E+02 -0.90738231628E+01 -0.20538180499E+02  0.32207954590E+02  0.00000000000E+00 0.  1.
</event>
<event>
 7    1  0.3802554E-013  0.5930194E+02  0.7816164E-02  0.1266605E+00
        -11   -1    0    0    0    0  0.00000000000E+00  0.00000000000E+00  0.45593999997E+02  0.45594000000E+02  0.51100000000E-03 0.  1.
         11   -1    0    0    0    0 -0.00000000000E+00 -0.00000000000E+00 -0.45593999997E+02  0.45594000000E+02  0.51100000000E-03 0. -1.
    9900012    2    1    2    0    0 -0.23524599668E+02  0.15003141503E+02 -0.15434364038E+02  0.59301942895E+02  0.49999997933E+02 0.  0.
        -12    1    1    2    0    0  0.23524599668E+02 -0.15003141503E+02  0.15434364038E+02  0.31886057105E+02  0.00000000000E+00 0.  1.
         11    1    3    3    0    0  0.25526702128E+01  0.28302450874E+01 -0.41308366035E+01  0.56205181056E+01  0.51100000000E-03 0. -1.
        -11    1    3    3    0    0 -0.11447416168E+02  0.73170735759E+01  0.16813266060E+02  0.21616401609E+02  0.51100000000E-03 0.  1.
         12    1    3    3    0    0 -0.14629853712E+02  0.48558228393E+01 -0.28116793495E+02  0.32065023180E+02  0.00000000000E+00 0. -1.
</event>
<event>
 7    1  0.3802554E-013  0.5930197E+02  0.7816164E-02  0.1266605E+00
        -11   -1    0    0    0    0  0.00000000000E+00  0.00000000000E+00  0.45593999997E+02  0.45594000000E+02  0.51100000000E-03 0.  1.
         11   -1    0    0    0    0 -0.00000000000E+00 -0.00000000000E+00 -0.45593999997E+02  0.45594000000E+02  0.51100000000E-03 0. -1.
    9900012    2    1    2    0    0  0.23955893322E+02 -0.10258653314E+01 -0.21018602932E+02  0.59301970241E+02  0.50000047807E+02 0.  0.
        -12    1    1    2    0    0 -0.23955893322E+02  0.10258653314E+01  0.21018602932E+02  0.31886029759E+02  0.00000000000E+00 0.  1.
         11    1    3    3    0    0  0.19838315867E+02 -0.11720188654E+02  0.28476081770E+01  0.23217029766E+02  0.51100000000E-03 0. -1.
        -11    1    3    3    0    0  0.26757208512E+01  0.14757906775E+02 -0.36800121808E+01  0.15443373478E+02  0.51100000000E-03 0.  1.
         12    1    3    3    0    0  0.14418566038E+01 -0.40635834522E+01 -0.20186198929E+02  0.20641566998E+02  0.00000000000E+00 0. -1.
</event>
<event>
 7    1  0.3802554E-013  0.5930171E+02  0.7816164E-02  0.1266606E+00
        -11   -1    0    0    0    0  0.00000000000E+00  0.00000000000E+00  0.45593999997E+02  0.45594000000E+02  0.51100000000E-03 0.  1.
         11   -1    0    0    0    0 -0.00000000000E+00 -0.00000000000E+00 -0.45593999997E+02  0.45594000000E+02  0.51100000000E-03 0. -1.
    9900012    2    1    2    0    0  0.14409698038E+02  0.27820953184E+02 -0.59237591841E+01  0.59301705820E+02  0.49999565565E+02 0.  0.
        -12    1    1    2    0    0 -0.14409698038E+02 -0.27820953184E+02  0.59237591841E+01  0.31886294180E+02  0.00000000000E+00 0.  1.
         11    1    3    3    0    0  0.94436015226E+01  0.49903567385E+01  0.11355708958E+00  0.10681674287E+02  0.51100000000E-03 0. -1.
        -11    1    3    3    0    0  0.11548728650E+02 -0.63284110232E+01  0.81964851093E+01  0.15511424432E+02  0.51100000000E-03 0.  1.
         12    1    3    3    0    0 -0.65826321339E+01  0.29159007469E+02 -0.14233801383E+02  0.33108607101E+02  0.00000000000E+00 0. -1.
</event>
<event>
 7    1  0.3802554E-013  0.5930194E+02  0.7816164E-02  0.1266605E+00
        -11   -1    0    0    0    0  0.00000000000E+00  0.00000000000E+00  0.45593999997E+02  0.45594000000E+02  0.51100000000E-03 0.  1.
         11   -1    0    0    0    0 -0.00000000000E+00 -0.00000000000E+00 -0.45593999997E+02  0.45594000000E+02  0.51100000000E-03 0. -1.
    9900012    2    1    2    0    0  0.22154593027E+02 -0.18334861891E+02  0.13774173909E+02  0.59301936906E+02  0.49999987011E+02 0.  0.
        -12    1    1    2    0    0 -0.22154593027E+02  0.18334861891E+02 -0.13774173909E+02  0.31886063094E+02  0.00000000000E+00 0.  1.
         11    1    3    3    0    0  0.14089171731E+02 -0.30488059614E+02  0.10694993519E+01  0.33603130333E+02  0.51100000000E-03 0. -1.
        -11    1    3    3    0    0  0.39570244358E+01  0.67512816537E+01 -0.31631267154E+01  0.84405697220E+01  0.51100000000E-03 0.  1.
        -12    1    3    3    0    0  0.41083968602E+01  0.54019160687E+01  0.15867801272E+02  0.17258236851E+02  0.00000000000E+00 0.  1.
</event>
<event>
 7    1  0.3802554E-013  0.5930188E+02  0.7816164E-02  0.1266605E+00
        -11   -1    0    0    0    0  0.00000000000E+00  0.00000000000E+00  0.45593999997E+02  0.45594000000E+02  0.51100000000E-03 0.  1.
         11   -1    0    0    0    0 -0.00000000000E+00 -0.00000000000E+00 -0.45593999997E+02  0.45594000000E+02  0.51100000000E-03 0. -1.
    9900012    2    1    2    0    0 -0.30102730243E+02  0.57250684247E+01 -0.88189374937E+01  0.59301883349E+02  0.49999889337E+02 0.  0.
        -12    1    1    2    0    0  0.30102730243E+02 -0.57250684247E+01  0.88189374937E+01  0.31886116651E+02  0.00000000000E+00 0.  1.
         11    1    3    3    0    0 -0.18489821857E+02  0.96887494936E+01  0.54361527438E+01  0.21570747228E+02  0.51100000000E-03 0. -1.
        -11    1    3    3    0    0 -0.28146013507E+01  0.80721635337E+01 -0.20002611985E+02  0.21752845592E+02  0.51100000000E-03 0.  1.
         12    1    3    3    0    0 -0.87983070356E+01 -0.12035844603E+02  0.57475217476E+01  0.15978290529E+02  0.00000000000E+00 0. -1.
</event>
<event>
 7    1  0.3802554E-013  0.5930195E+02  0.7816164E-02  0.1266605E+00
        -11   -1    0    0    0    0  0.00000000000E+00  0.00000000000E+00  0.45593999997E+02  0.45594000000E+02  0.51100000000E-03 0.  1.
         11   -1    0    0    0    0 -0.00000000000E+00 -0.00000000000E+00 -0.45593999997E+02  0.45594000000E+02  0.51100000000E-03 0. -1.
    9900012    2    1    2    0    0 -0.22178215412E+02 -0.13603309277E+02 -0.18433584003E+02  0.59301948483E+02  0.50000008125E+02 0.  0.
        -12    1    1    2    0    0  0.22178215412E+02  0.13603309277E+02  0.18433584003E+02  0.31886051517E+02  0.00000000000E+00 0.  1.
         11    1    3    3    0    0 -0.25596564005E+02  0.62567154437E+01 -0.10131658119E+02  0.28230853219E+02  0.51100000000E-03 0. -1.
        -11    1    3    3    0    0 -0.53180805539E+01 -0.13937770125E+02 -0.12743674851E+02  0.19620006774E+02  0.51100000000E-03 0.  1.
        -12    1    3    3    0    0  0.87364291465E+01 -0.59222545954E+01  0.44417489666E+01  0.11451088490E+02  0.00000000000E+00 0.  1.
</event>
<event>
 7    1  0.3802554E-013  0.5930195E+02  0.7816164E-02  0.1266605E+00
        -11   -1    0    0    0    0  0.00000000000E+00  0.00000000000E+00  0.45593999997E+02  0.45594000000E+02  0.51100000000E-03 0.  1.
         11   -1    0    0    0    0 -0.00000000000E+00 -0.00000000000E+00 -0.45593999997E+02  0.45594000000E+02  0.51100000000E-03 0. -1.
    9900012    2    1    2    0    0  0.13660232717E+02  0.13199195685E+02 -0.25610530879E+02  0.59301952636E+02  0.50000015699E+02 0.  0.
        -12    1    1    2    0    0 -0.13660232717E+02 -0.13199195685E+02  0.25610530879E+02  0.31886047364E+02  0.00000000000E+00 0.  1.
         11    1    3    3    0    0  0.10750747578E+02  0.78186813242E+01  0.11969881163E+02  0.17888219767E+02  0.51100000000E-03 0. -1.
        -11    1    3    3    0    0 -0.44808367918E+01 -0.35764514348E+01 -0.14025405866E+02  0.15151927705E+02  0.51100000000E-03 0.  1.
        -12    1    3    3    0    0  0.73903219310E+01  0.89569657957E+01 -0.23555006175E+02  0.26261805163E+02  0.00000000000E+00 0.  1.
</event>
<event>
 7    1  0.3802554E-013  0.5930195E+02  0.7816164E-02  0.1266605E+00
        -11   -1    0    0    0    0  0.00000000000E+00  0.00000000000E+00  0.45593999997E+02  0.45594000000E+02  0.51100000000E-03 0.  1.
         11   -1    0    0    0    0 -0.00000000000E+00 -0.00000000000E+00 -0.45593999997E+02  0.45594000000E+02  0.51100000000E-03 0. -1.
    9900012    2    1    2    0    0 -0.86405572582E+01 -0.57508512480E+01 -0.30149436258E+02  0.59301952480E+02  0.50000015414E+02 0.  0.
        -12    1    1    2    0    0  0.86405572582E+01  0.57508512480E+01  0.30149436258E+02  0.31886047520E+02  0.00000000000E+00 0.  1.
         11    1    3    3    0    0 -0.53308920675E+01 -0.12290938425E+02 -0.10631149134E+02  0.17102833384E+02  0.51100000000E-03 0. -1.
        -11    1    3    3    0    0 -0.66840983949E+01 -0.13232179308E+02 -0.93243679477E+00  0.14853860752E+02  0.51100000000E-03 0.  1.
        -12    1    3    3    0    0  0.33744332041E+01  0.19772266485E+02 -0.18585850329E+02  0.27345258344E+02  0.00000000000E+00 0.  1.
</event>
<event>
 7    1  0.3802554E-013  0.5930194E+02  0.7816164E-02  0.1266605E+00
        -11   -1    0    0    0    0  0.00000000000E+00  0.00000000000E+00  0.45593999997E+02  0.45594000000E+02  0.51100000000E-03 0.  1.
         11   -1    0    0    0    0 -0.00000000000E+00 -0.00000000000E+00 -0.45593999997E+02  0.45594000000E+02  0.51100000000E-03 0. -1.
    9900012    2    1    2    0    0  0.16159793214E+02  0.20983003969E+02 -0.17756555791E+02  0.59301942768E+02  0.49999997702E+02 0.  0.
        -12    1    1    2    0    0 -0.16159793214E+02 -0.20983003969E+02  0.17756555791E+02  0.31886057232E+02  0.00000000000E+00 0.  1.
         11    1    3    3    0    0  0.14309522346E+02  0.22841989249E+02 -0.12124170737E+01  0.26981268652E+02  0.51100000000E-03 0.  1.
        -11    1    3    3    0    0  0.14701893923E+02  0.18357508283E+00 -0.97368112073E+01  0.17634763324E+02  0.51100000000E-03 0. -1.
         12    1    3    3    0    0 -0.12851623055E+02 -0.20425603628E+01 -0.68073275097E+01  0.14685910793E+02  0.00000000000E+00 0. -1.
</event>
<event>
 7    1  0.3802554E-013  0.5930197E+02  0.7816164E-02  0.1266605E+00
        -11   -1    0    0    0    0  0.00000000000E+00  0.00000000000E+00  0.45593999997E+02  0.45594000000E+02  0.51100000000E-03 0.  1.
         11   -1    0    0    0    0 -0.00000000000E+00 -0.00000000000E+00 -0.45593999997E+02  0.45594000000E+02  0.51100000000E-03 0. -1.
    9900012    2    1    2    0    0  0.89889533501E+01 -0.27857850703E+02  0.12643486625E+02  0.59301970424E+02  0.50000048140E+02 0.  0.
        -12    1    1    2    0    0 -0.89889533501E+01  0.27857850703E+02 -0.12643486625E+02  0.31886029576E+02  0.00000000000E+00 0.  1.
         11    1    3    3    0    0 -0.32046647572E+01 -0.12771707100E+02  0.63705698932E+01  0.14627731864E+02  0.51100000000E-03 0. -1.
        -11    1    3    3    0    0 -0.14261074454E+01  0.31780854598E+01  0.18494657582E+02  0.18819839770E+02  0.51100000000E-03 0.  1.
         12    1    3    3    0    0  0.13619725553E+02 -0.18264229062E+02 -0.12221740850E+02  0.25854398790E+02  0.00000000000E+00 0. -1.
</event>
<event>
 7    1  0.3802554E-013  0.5930194E+02  0.7816164E-02  0.1266605E+00
        -11   -1    0    0    0    0  0.00000000000E+00  0.00000000000E+00  0.45593999997E+02  0.45594000000E+02  0.51100000000E-03 0. -1.
         11   -1    0    0    0    0 -0.00000000000E+00 -0.00000000000E+00 -0.45593999997E+02  0.45594000000E+02  0.51100000000E-03 0.  1.
    9900012    2    1    2    0    0 -0.23147317611E+02  0.76640007091E+01  0.20547161016E+02  0.59301936504E+02  0.49999986279E+02 0.  0.
        -12    1    1    2    0    0  0.23147317611E+02 -0.76640007091E+01 -0.20547161016E+02  0.31886063496E+02  0.00000000000E+00 0.  1.
         11    1    3    3    0    0 -0.83292407163E+01 -0.12529997146E+02 -0.23135515809E+01  0.15222667328E+02  0.51100000000E-03 0. -1.
        -11    1    3    3    0    0  0.62128002041E+01  0.11871286096E+01 -0.17244838304E+01  0.65560663095E+01  0.51100000000E-03 0.  1.
        -12    1    3    3    0    0 -0.21030877098E+02  0.19006869245E+02  0.24585196427E+02  0.37523202867E+02  0.00000000000E+00 0.  1.
</event>
<event>
 7    1  0.3802554E-013  0.5930193E+02  0.7816164E-02  0.1266605E+00
        -11   -1    0    0    0    0  0.00000000000E+00  0.00000000000E+00  0.45593999997E+02  0.45594000000E+02  0.51100000000E-03 0.  1.
         11   -1    0    0    0    0 -0.00000000000E+00 -0.00000000000E+00 -0.45593999997E+02  0.45594000000E+02  0.51100000000E-03 0. -1.
    9900012    2    1    2    0    0  0.30044599808E+02 -0.24910824435E+01  0.10384512106E+02  0.59301928416E+02  0.49999971528E+02 0.  0.
        -12    1    1    2    0    0 -0.30044599808E+02  0.24910824435E+01 -0.10384512106E+02  0.31886071584E+02  0.00000000000E+00 0.  1.
         11    1    3    3    0    0  0.83396021658E+01 -0.15761663329E+02  0.20832162887E+02  0.27421852709E+02  0.51100000000E-03 0. -1.
        -11    1    3    3    0    0  0.20687667394E+01  0.49937682188E+01  0.34747091771E+01  0.64258167552E+01  0.51100000000E-03 0.  1.
         12    1    3    3    0    0  0.19636230903E+02  0.82768126667E+01 -0.13922359958E+02  0.25454258952E+02  0.00000000000E+00 0. -1.
</event>
<event>
 7    1  0.3802554E-013  0.5930194E+02  0.7816164E-02  0.1266605E+00
        -11   -1    0    0    0    0  0.00000000000E+00  0.00000000000E+00  0.45593999997E+02  0.45594000000E+02  0.51100000000E-03 0.  1.
         11   -1    0    0    0    0 -0.00000000000E+00 -0.00000000000E+00 -0.45593999997E+02  0.45594000000E+02  0.51100000000E-03 0. -1.
    9900012    2    1    2    0    0 -0.22776532852E+02  0.17129666366E+01 -0.22248953673E+02  0.59301942812E+02  0.49999997782E+02 0.  0.
        -12    1    1    2    0    0  0.22776532852E+02 -0.17129666366E+01  0.22248953673E+02  0.31886057188E+02  0.00000000000E+00 0.  1.
         11    1    3    3    0    0 -0.23737787720E+02  0.18808869942E+02 -0.16188830570E+02  0.34341438377E+02  0.51100000000E-03 0. -1.
        -11    1    3    3    0    0 -0.46881567122E+01  0.10379618845E+01 -0.31566755640E+01  0.57463709512E+01  0.51100000000E-03 0.  1.
        -12    1    3    3    0    0  0.56494115797E+01 -0.18133865190E+02 -0.29034475393E+01  0.19214133484E+02  0.00000000000E+00 0.  1.
</event>
<event>
 7    1  0.3802554E-013  0.5930189E+02  0.7816164E-02  0.1266605E+00
        -11   -1    0    0    0    0  0.00000000000E+00  0.00000000000E+00  0.45593999997E+02  0.45594000000E+02  0.51100000000E-03 0.  1.
         11   -1    0    0    0    0 -0.00000000000E+00 -0.00000000000E+00 -0.45593999997E+02  0.45594000000E+02  0.51100000000E-03 0. -1.
    9900012    2    1    2    0    0 -0.23947968062E+02 -0.18765619536E+01 -0.20968964380E+02  0.59301888192E+02  0.49999898169E+02 0.  0.
        -12    1    1    2    0    0  0.23947968062E+02  0.18765619536E+01  0.20968964380E+02  0.31886111808E+02  0.00000000000E+00 0.  1.
         11    1    3    3    0    0 -0.11437287163E+02 -0.29564766726E+01 -0.15040509469E+01  0.11908587719E+02  0.51100000000E-03 0. -1.
        -11    1    3    3    0    0 -0.13951351620E+02 -0.16226020302E+02 -0.20971713020E+02  0.29962254490E+02  0.51100000000E-03 0.  1.
        -12    1    3    3    0    0  0.14406707202E+01  0.17305935021E+02  0.15067995870E+01  0.17431045983E+02  0.00000000000E+00 0.  1.
</event>
<event>
 7    1  0.3802554E-013  0.5930195E+02  0.7816164E-02  0.1266605E+00
        -11   -1    0    0    0    0  0.00000000000E+00  0.00000000000E+00  0.45593999997E+02  0.45594000000E+02  0.51100000000E-03 0.  1.
         11   -1    0    0    0    0 -0.00000000000E+00 -0.00000000000E+00 -0.45593999997E+02  0.45594000000E+02  0.51100000000E-03 0. -1.
    9900012    2    1    2    0    0 -0.31145790308E+02 -0.61059327986E+01 -0.30622219674E+01  0.59301954892E+02  0.50000019814E+02 0.  0.
        -12    1    1    2    0    0  0.31145790308E+02  0.61059327986E+01  0.30622219674E+01  0.31886045108E+02  0.00000000000E+00 0.  1.
         11    1    3    3    0    0 -0.15836092029E+02 -0.12234405554E+02 -0.16494536864E+02  0.25933226499E+02  0.51100000000E-03 0. -1.
        -11    1    3    3    0    0 -0.13471733302E+02 -0.84106635738E+01  0.65748279679E+01  0.17188810982E+02  0.51100000000E-03 0.  1.
        -12    1    3    3    0    0 -0.18379649775E+01  0.14539136329E+02  0.68574869292E+01  0.16179917411E+02  0.00000000000E+00 0.  1.
</event>
<event>
 7    1  0.3802554E-013  0.5930200E+02  0.7816164E-02  0.1266605E+00
        -11   -1    0    0    0    0  0.00000000000E+00  0.00000000000E+00  0.45593999997E+02  0.45594000000E+02  0.51100000000E-03 0.  1.
         11   -1    0    0    0    0 -0.00000000000E+00 -0.00000000000E+00 -0.45593999997E+02  0.45594000000E+02  0.51100000000E-03 0. -1.
    9900012    2    1    2    0    0 -0.18785900992E+02  0.11423122670E+02  0.23093706920E+02  0.59301998261E+02  0.50000098908E+02 0.  0.
        -12    1    1    2    0    0  0.18785900992E+02 -0.11423122670E+02 -0.23093706920E+02  0.31886001739E+02  0.00000000000E+00 0.  1.
         11    1    3    3    0    0  0.96243360196E+01  0.26044435244E+01 -0.24640062144E+01  0.10270457476E+02  0.51100000000E-03 0.  1.
        -11    1    3    3    0    0 -0.98254358319E+01 -0.10002665374E+02  0.15052461084E+02  0.20571074080E+02  0.51100000000E-03 0. -1.
         12    1    3    3    0    0 -0.18584801180E+02  0.18821344519E+02  0.10505252050E+02  0.28460466704E+02  0.00000000000E+00 0. -1.
</event>
<event>
 7    1  0.3802554E-013  0.5930196E+02  0.7816164E-02  0.1266605E+00
        -11   -1    0    0    0    0  0.00000000000E+00  0.00000000000E+00  0.45593999997E+02  0.45594000000E+02  0.51100000000E-03 0.  1.
         11   -1    0    0    0    0 -0.00000000000E+00 -0.00000000000E+00 -0.45593999997E+02  0.45594000000E+02  0.51100000000E-03 0. -1.
    9900012    2    1    2    0    0 -0.29077446961E+02 -0.94588516484E+01 -0.90416558273E+01  0.59301963301E+02  0.50000035150E+02 0.  0.
        -12    1    1    2    0    0  0.29077446961E+02  0.94588516484E+01  0.90416558273E+01  0.31886036699E+02  0.00000000000E+00 0.  1.
         11    1    3    3    0    0 -0.50962070407E+01  0.43765382584E+01 -0.39843838592E+01  0.78102963021E+01  0.51100000000E-03 0. -1.
        -11    1    3    3    0    0  0.12556040474E+02 -0.22913003825E+01 -0.30431406791E+01  0.13121162879E+02  0.51100000000E-03 0.  1.
         12    1    3    3    0    0 -0.36537280395E+02 -0.11544089524E+02 -0.20141312889E+01  0.38370504120E+02  0.00000000000E+00 0. -1.
</event>
<event>
 7    1  0.3802554E-013  0.5930195E+02  0.7816164E-02  0.1266605E+00
        -11   -1    0    0    0    0  0.00000000000E+00  0.00000000000E+00  0.45593999997E+02  0.45594000000E+02  0.51100000000E-03 0.  1.
         11   -1    0    0    0    0 -0.00000000000E+00 -0.00000000000E+00 -0.45593999997E+02  0.45594000000E+02  0.51100000000E-03 0. -1.
    9900012    2    1    2    0    0 -0.29522167478E+02 -0.47057641154E+01 -0.11091329006E+02  0.59301950267E+02  0.50000011378E+02 0.  0.
        -12    1    1    2    0    0  0.29522167478E+02  0.47057641154E+01  0.11091329006E+02  0.31886049733E+02  0.00000000000E+00 0.  1.
         11    1    3    3    0    0 -0.36399141183E+01  0.86376495305E+01  0.89436540058E+01  0.12955574531E+02  0.51100000000E-03 0. -1.
        -11    1    3    3    0    0  0.44564881914E+01  0.18236055515E+01  0.26929202414E+01  0.55170321637E+01  0.51100000000E-03 0.  1.
         12    1    3    3    0    0 -0.30338741551E+02 -0.15167019197E+02 -0.22727903253E+02  0.40829343572E+02  0.00000000000E+00 0. -1.
</event>
<event>
 7    1  0.3802554E-013  0.5930194E+02  0.7816164E-02  0.1266605E+00
        -11   -1    0    0    0    0  0.00000000000E+00  0.00000000000E+00  0.45593999997E+02  0.45594000000E+02  0.51100000000E-03 0.  1.
         11   -1    0    0    0    0 -0.00000000000E+00 -0.00000000000E+00 -0.45593999997E+02  0.45594000000E+02  0.51100000000E-03 0. -1.
    9900012    2    1    2    0    0 -0.26973747931E+02  0.96867107423E+01 -0.13975170417E+02  0.59301939870E+02  0.49999992417E+02 0.  0.
        -12    1    1    2    0    0  0.26973747931E+02 -0.96867107423E+01  0.13975170417E+02  0.31886060130E+02  0.00000000000E+00 0.  1.
         11    1    3    3    0    0  0.71308114276E+01 -0.66708610280E+01 -0.37164174251E+01  0.10447995847E+02  0.51100000000E-03 0. -1.
        -11    1    3    3    0    0 -0.99500504487E+01 -0.59442603611E+01  0.49838866823E+01  0.12616531294E+02  0.51100000000E-03 0.  1.
         12    1    3    3    0    0 -0.24154508909E+02  0.22301832131E+02 -0.15242639674E+02  0.36237412729E+02  0.00000000000E+00 0. -1.
</event>
<event>
 7    1  0.3802554E-013  0.5930192E+02  0.7816164E-02  0.1266605E+00
        -11   -1    0    0    0    0  0.00000000000E+00  0.00000000000E+00  0.45593999997E+02  0.45594000000E+02  0.51100000000E-03 0.  1.
         11   -1    0    0    0    0 -0.00000000000E+00 -0.00000000000E+00 -0.45593999997E+02  0.45594000000E+02  0.51100000000E-03 0. -1.
    9900012    2    1    2    0    0 -0.14584386016E+02  0.17533724096E+02 -0.22284220733E+02  0.59301916989E+02  0.49999950687E+02 0.  0.
        -12    1    1    2    0    0  0.14584386016E+02 -0.17533724096E+02  0.22284220733E+02  0.31886083011E+02  0.00000000000E+00 0.  1.
         11    1    3    3    0    0  0.40918291124E+01  0.18918875219E+01  0.11199937000E+01  0.46450715850E+01  0.51100000000E-03 0.  1.
        -11    1    3    3    0    0 -0.29237170812E+02  0.15546579113E+02 -0.50716825294E+01  0.33499705121E+02  0.51100000000E-03 0. -1.
         12    1    3    3    0    0  0.10560955684E+02  0.95257460458E-01 -0.18332531904E+02  0.21157140283E+02  0.00000000000E+00 0. -1.
</event>
<event>
 7    1  0.3802554E-013  0.5930213E+02  0.7816164E-02  0.1266604E+00
        -11   -1    0    0    0    0  0.00000000000E+00  0.00000000000E+00  0.45593999997E+02  0.45594000000E+02  0.51100000000E-03 0.  1.
         11   -1    0    0    0    0 -0.00000000000E+00 -0.00000000000E+00 -0.45593999997E+02  0.45594000000E+02  0.51100000000E-03 0. -1.
    9900012    2    1    2    0    0 -0.77525211060E+01 -0.13054406591E+02 -0.28039068729E+02  0.59302133379E+02  0.50000345331E+02 0.  0.
        -12    1    1    2    0    0  0.77525211060E+01  0.13054406591E+02  0.28039068729E+02  0.31885866621E+02  0.00000000000E+00 0.  1.
         11    1    3    3    0    0 -0.75582402752E+00 -0.12119853881E+01 -0.70328656072E+01  0.71764460181E+01  0.51100000000E-03 0. -1.
        -11    1    3    3    0    0  0.82923437290E+01 -0.23193429290E+02 -0.12148190104E+01  0.24661182296E+02  0.51100000000E-03 0.  1.
         12    1    3    3    0    0 -0.15289040808E+02  0.11351008087E+02 -0.19791384112E+02  0.27464505065E+02  0.00000000000E+00 0. -1.
</event>
<event>
 7    1  0.3802554E-013  0.5930194E+02  0.7816164E-02  0.1266605E+00
        -11   -1    0    0    0    0  0.00000000000E+00  0.00000000000E+00  0.45593999997E+02  0.45594000000E+02  0.51100000000E-03 0.  1.
         11   -1    0    0    0    0 -0.00000000000E+00 -0.00000000000E+00 -0.45593999997E+02  0.45594000000E+02  0.51100000000E-03 0. -1.
    9900012    2    1    2    0    0  0.18299492268E+02 -0.75277514777E+01 -0.25003649501E+02  0.59301938030E+02  0.49999989062E+02 0.  0.
        -12    1    1    2    0    0 -0.18299492268E+02  0.75277514777E+01  0.25003649501E+02  0.31886061970E+02  0.00000000000E+00 0.  1.
         11    1    3    3    0    0 -0.94693460028E+00  0.11427739050E+02 -0.12991704988E+02  0.17328424732E+02  0.51100000000E-03 0. -1.
        -11    1    3    3    0    0  0.26486761695E+02 -0.11363890783E+02 -0.12623740855E+02  0.31464986768E+02  0.51100000000E-03 0.  1.
        -12    1    3    3    0    0 -0.72403348270E+01 -0.75915997448E+01  0.61179634247E+00  0.10508526531E+02  0.00000000000E+00 0.  1.
</event>
<event>
 7    1  0.3802554E-013  0.5930196E+02  0.7816164E-02  0.1266605E+00
        -11   -1    0    0    0    0  0.00000000000E+00  0.00000000000E+00  0.45593999997E+02  0.45594000000E+02  0.51100000000E-03 0. -1.
         11   -1    0    0    0    0 -0.00000000000E+00 -0.00000000000E+00 -0.45593999997E+02  0.45594000000E+02  0.51100000000E-03 0.  1.
    9900012    2    1    2    0    0  0.22381488344E+02 -0.10634260559E+02  0.20067404913E+02  0.59301964529E+02  0.50000037390E+02 0.  0.
        -12    1    1    2    0    0 -0.22381488344E+02  0.10634260559E+02 -0.20067404913E+02  0.31886035471E+02  0.00000000000E+00 0.  1.
         11    1    3    3    0    0  0.48332970048E+01 -0.44181229668E+01  0.19024658675E+02  0.20120094644E+02  0.51100000000E-03 0. -1.
        -11    1    3    3    0    0 -0.72581957064E+01  0.77357038807E+01  0.15273493997E+01  0.10717057240E+02  0.51100000000E-03 0.  1.
        -12    1    3    3    0    0  0.24806387045E+02 -0.13951841473E+02 -0.48460316250E+00  0.28464812645E+02  0.00000000000E+00 0.  1.
</event>
<event>
 7    1  0.3802554E-013  0.5930195E+02  0.7816164E-02  0.1266605E+00
        -11   -1    0    0    0    0  0.00000000000E+00  0.00000000000E+00  0.45593999997E+02  0.45594000000E+02  0.51100000000E-03 0.  1.
         11   -1    0    0    0    0 -0.00000000000E+00 -0.00000000000E+00 -0.45593999997E+02  0.45594000000E+02  0.51100000000E-03 0. -1.
    9900012    2    1    2    0    0 -0.27532481221E+01  0.48938683865E+01 -0.31387731556E+02  0.59301952656E+02  0.50000015736E+02 0.  0.
        -12    1    1    2    0    0  0.27532481221E+01 -0.48938683865E+01  0.31387731556E+02  0.31886047344E+02  0.00000000000E+00 0.  1.
         11    1    3    3    0    0  0.72784415833E+01  0.30660629108E+01  0.60571430327E+01  0.99531620923E+01  0.51100000000E-03 0. -1.
        -11    1    3    3    0    0 -0.70126940707E+01 -0.10411389772E+02 -0.33413377220E+01  0.12989975102E+02  0.51100000000E-03 0.  1.
         12    1    3    3    0    0 -0.30189956347E+01  0.12239195248E+02 -0.34103536867E+02  0.36358815462E+02  0.00000000000E+00 0. -1.
</event>
<event>
 7    1  0.3802554E-013  0.5930196E+02  0.7816164E-02  0.1266605E+00
        -11   -1    0    0    0    0  0.00000000000E+00  0.00000000000E+00  0.45593999997E+02  0.45594000000E+02  0.51100000000E-03 0.  1.
         11   -1    0    0    0    0 -0.00000000000E+00 -0.00000000000E+00 -0.45593999997E+02  0.45594000000E+02  0.51100000000E-03 0. -1.
    9900012    2    1    2    0    0 -0.16699826262E+02  0.11487562659E+01 -0.27138825617E+02  0.59301957692E+02  0.50000024921E+02 0.  0.
        -12    1    1    2    0    0  0.16699826262E+02 -0.11487562659E+01  0.27138825617E+02  0.31886042308E+02  0.00000000000E+00 0.  1.
         11    1    3    3    0    0  0.57471838031E+01 -0.11874633965E+02 -0.67226761841E+01  0.14806465777E+02  0.51100000000E-03 0. -1.
        -11    1    3    3    0    0 -0.63636736602E+01  0.20724995028E+02 -0.10446578132E+02  0.24065592789E+02  0.51100000000E-03 0.  1.
        -12    1    3    3    0    0 -0.16083336405E+02 -0.77016047966E+01 -0.99695713016E+01  0.20429899126E+02  0.00000000000E+00 0.  1.
</event>
<event>
 7    1  0.3802554E-013  0.5930194E+02  0.7816164E-02  0.1266605E+00
        -11   -1    0    0    0    0  0.00000000000E+00  0.00000000000E+00  0.45593999997E+02  0.45594000000E+02  0.51100000000E-03 0. -1.
         11   -1    0    0    0    0 -0.00000000000E+00 -0.00000000000E+00 -0.45593999997E+02  0.45594000000E+02  0.51100000000E-03 0.  1.
    9900012    2    1    2    0    0 -0.28655133268E+02  0.17613657252E+01  0.13874505633E+02  0.59301937553E+02  0.49999988192E+02 0.  0.
        -12    1    1    2    0    0  0.28655133268E+02 -0.17613657252E+01 -0.13874505633E+02  0.31886062447E+02  0.00000000000E+00 0.  1.
         11    1    3    3    0    0 -0.44106107101E+01 -0.35119800101E+01 -0.42508695612E+01  0.70609760455E+01  0.51100000000E-03 0. -1.
        -11    1    3    3    0    0 -0.26019043521E+02  0.10631671748E+02 -0.49022368410E+01  0.28531649027E+02  0.51100000000E-03 0.  1.
         12    1    3    3    0    0  0.17745209632E+01 -0.53583260122E+01  0.23027612035E+02  0.23709312481E+02  0.00000000000E+00 0. -1.
</event>
<event>
 7    1  0.3802554E-013  0.5930194E+02  0.7816164E-02  0.1266605E+00
        -11   -1    0    0    0    0  0.00000000000E+00  0.00000000000E+00  0.45593999997E+02  0.45594000000E+02  0.51100000000E-03 0. -1.
         11   -1    0    0    0    0 -0.00000000000E+00 -0.00000000000E+00 -0.45593999997E+02  0.45594000000E+02  0.51100000000E-03 0.  1.
    9900012    2    1    2    0    0 -0.79900444515E+01  0.14572368628E+02  0.27212606468E+02  0.59301942098E+02  0.49999996481E+02 0.  0.
        -12    1    1    2    0    0  0.79900444515E+01 -0.14572368628E+02 -0.27212606468E+02  0.31886057902E+02  0.00000000000E+00 0.  1.
         11    1    3    3    0    0  0.70137406379E+01 -0.17118104078E+01  0.23723048108E+02  0.24797295506E+02  0.51100000000E-03 0. -1.
        -11    1    3    3    0    0 -0.36801387332E+01  0.21121139453E+02  0.52319866703E+01  0.22068521420E+02  0.51100000000E-03 0.  1.
         12    1    3    3    0    0 -0.11323646356E+02 -0.48369604176E+01 -0.17424283102E+01  0.12436125172E+02  0.00000000000E+00 0. -1.
</event>
<event>
 7    1  0.3802554E-013  0.5930196E+02  0.7816164E-02  0.1266605E+00
        -11   -1    0    0    0    0  0.00000000000E+00  0.00000000000E+00  0.45593999997E+02  0.45594000000E+02  0.51100000000E-03 0. -1.
         11   -1    0    0    0    0 -0.00000000000E+00 -0.00000000000E+00 -0.45593999997E+02  0.45594000000E+02  0.51100000000E-03 0.  1.
    9900012    2    1    2    0    0  0.13447225089E+02  0.11585875340E+02  0.26488848145E+02  0.59301961581E+02  0.50000032012E+02 0.  0.
        -12    1    1    2    0    0 -0.13447225089E+02 -0.11585875340E+02 -0.26488848145E+02  0.31886038419E+02  0.00000000000E+00 0.  1.
         11    1    3    3    0    0  0.65958771395E+01 -0.59113387060E+01  0.55416343010E+01  0.10447929533E+02  0.51100000000E-03 0. -1.
        -11    1    3    3    0    0  0.15996542939E+01 -0.55136876927E+01 -0.90298176291E+01  0.10700338897E+02  0.51100000000E-03 0.  1.
         12    1    3    3    0    0  0.52516936560E+01  0.23010901739E+02  0.29977031474E+02  0.38153693151E+02  0.00000000000E+00 0. -1.
</event>
<event>
 7    1  0.3802554E-013  0.5930194E+02  0.7816164E-02  0.1266605E+00
        -11   -1    0    0    0    0  0.00000000000E+00  0.00000000000E+00  0.45593999997E+02  0.45594000000E+02  0.51100000000E-03 0. -1.
         11   -1    0    0    0    0 -0.00000000000E+00 -0.00000000000E+00 -0.45593999997E+02  0.45594000000E+02  0.51100000000E-03 0.  1.
    9900012    2    1    2    0    0  0.23504520011E+02  0.19647830999E+02  0.88442552199E+01  0.59301943889E+02  0.49999999747E+02 0.  0.
        -12    1    1    2    0    0 -0.23504520011E+02 -0.19647830999E+02 -0.88442552199E+01  0.31886056111E+02  0.00000000000E+00 0.  1.
         11    1    3    3    0    0  0.96552973594E+01  0.20629010801E+02  0.65383696845E+01  0.23696648120E+02  0.51100000000E-03 0. -1.
        -11    1    3    3    0    0 -0.14256161784E+01  0.80015598146E+01 -0.10834736203E+02  0.13544329064E+02  0.51100000000E-03 0.  1.
         12    1    3    3    0    0  0.15274838830E+02 -0.89827396161E+01  0.13140621738E+02  0.22060966705E+02  0.00000000000E+00 0. -1.
</event>
<event>
 7    1  0.3802554E-013  0.5930194E+02  0.7816164E-02  0.1266605E+00
        -11   -1    0    0    0    0  0.00000000000E+00  0.00000000000E+00  0.45593999997E+02  0.45594000000E+02  0.51100000000E-03 0.  1.
         11   -1    0    0    0    0 -0.00000000000E+00 -0.00000000000E+00 -0.45593999997E+02  0.45594000000E+02  0.51100000000E-03 0. -1.
    9900012    2    1    2    0    0 -0.12296494168E+01 -0.21217718698E+02 -0.23770097103E+02  0.59301935007E+02  0.49999983549E+02 0.  0.
        -12    1    1    2    0    0  0.12296494168E+01  0.21217718698E+02  0.23770097103E+02  0.31886064993E+02  0.00000000000E+00 0.  1.
         11    1    3    3    0    0  0.45773827980E+01  0.20149127148E+00 -0.11383495828E+02  0.12270982420E+02  0.51100000000E-03 0. -1.
        -11    1    3    3    0    0  0.14723691595E+02 -0.87134346416E+00 -0.10136894390E+02  0.17897009855E+02  0.51100000000E-03 0.  1.
         12    1    3    3    0    0 -0.20530723810E+02 -0.20547866505E+02 -0.22497068841E+01  0.29133942732E+02  0.00000000000E+00 0. -1.
</event>
<event>
 7    1  0.3802554E-013  0.5930194E+02  0.7816164E-02  0.1266605E+00
        -11   -1    0    0    0    0  0.00000000000E+00  0.00000000000E+00  0.45593999997E+02  0.45594000000E+02  0.51100000000E-03 0. -1.
         11   -1    0    0    0    0 -0.00000000000E+00 -0.00000000000E+00 -0.45593999997E+02  0.45594000000E+02  0.51100000000E-03 0.  1.
    9900012    2    1    2    0    0  0.19417658537E+02 -0.15045161529E+01  0.25247015583E+02  0.59301939915E+02  0.49999992499E+02 0.  0.
        -12    1    1    2    0    0 -0.19417658537E+02  0.15045161529E+01 -0.25247015583E+02  0.31886060085E+02  0.00000000000E+00 0.  1.
         11    1    3    3    0    0  0.10976344843E+02  0.73135631819E+01  0.22182188517E+02  0.25807321446E+02  0.51100000000E-03 0. -1.
        -11    1    3    3    0    0  0.29651983192E+01  0.11616486789E+02  0.29160498321E+01  0.12338497205E+02  0.51100000000E-03 0.  1.
        -12    1    3    3    0    0  0.54761153747E+01 -0.20434566124E+02  0.14877723335E+00  0.21156121264E+02  0.00000000000E+00 0.  1.
</event>
<event>
 7    1  0.3802554E-013  0.5930197E+02  0.7816164E-02  0.1266605E+00
        -11   -1    0    0    0    0  0.00000000000E+00  0.00000000000E+00  0.45593999997E+02  0.45594000000E+02  0.51100000000E-03 0.  1.
         11   -1    0    0    0    0 -0.00000000000E+00 -0.00000000000E+00 -0.45593999997E+02  0.45594000000E+02  0.51100000000E-03 0. -1.
    9900012    2    1    2    0    0 -0.30342171689E+02  0.96672492087E+01  0.16172919830E+01  0.59301972913E+02  0.50000052679E+02 0.  0.
        -12    1    1    2    0    0  0.30342171689E+02 -0.96672492087E+01 -0.16172919830E+01  0.31886027087E+02  0.00000000000E+00 0.  1.
         11    1    3    3    0    0 -0.60032291144E+01  0.11837999881E+02 -0.93283203269E+01  0.16223272215E+02  0.51100000000E-03 0. -1.
        -11    1    3    3    0    0 -0.24829858292E+02  0.21005398582E+01  0.20715444976E+02  0.32404687799E+02  0.51100000000E-03 0.  1.
         12    1    3    3    0    0  0.49091571771E+00 -0.42712905305E+01 -0.97698326664E+01  0.10674012899E+02  0.00000000000E+00 0. -1.
</event>
<event>
 7    1  0.3802554E-013  0.5930196E+02  0.7816164E-02  0.1266605E+00
        -11   -1    0    0    0    0  0.00000000000E+00  0.00000000000E+00  0.45593999997E+02  0.45594000000E+02  0.51100000000E-03 0. -1.
         11   -1    0    0    0    0 -0.00000000000E+00 -0.00000000000E+00 -0.45593999997E+02  0.45594000000E+02  0.51100000000E-03 0.  1.
    9900012    2    1    2    0    0 -0.28710960925E+02  0.10418949697E+02  0.91567484275E+01  0.59301955532E+02  0.50000020981E+02 0.  0.
        -12    1    1    2    0    0  0.28710960925E+02 -0.10418949697E+02 -0.91567484275E+01  0.31886044468E+02  0.00000000000E+00 0.  1.
         11    1    3    3    0    0 -0.40986678766E+01  0.13539447647E+02  0.28527844337E+01  0.14431011754E+02  0.51100000000E-03 0. -1.
        -11    1    3    3    0    0 -0.11805029397E+02  0.15084507544E+02  0.11047876473E+02  0.22112364454E+02  0.51100000000E-03 0.  1.
         12    1    3    3    0    0 -0.12807263651E+02 -0.18205005494E+02 -0.47439124794E+01  0.22758579324E+02  0.00000000000E+00 0. -1.
</event>
<event>
 7    1  0.3802554E-013  0.5930195E+02  0.7816164E-02  0.1266605E+00
        -11   -1    0    0    0    0  0.00000000000E+00  0.00000000000E+00  0.45593999997E+02  0.45594000000E+02  0.51100000000E-03 0.  1.
         11   -1    0    0    0    0 -0.00000000000E+00 -0.00000000000E+00 -0.45593999997E+02  0.45594000000E+02  0.51100000000E-03 0. -1.
    9900012    2    1    2    0    0  0.11033636508E+02  0.27142679237E+02 -0.12579907307E+02  0.59301949153E+02  0.50000009348E+02 0.  0.
        -12    1    1    2    0    0 -0.11033636508E+02 -0.27142679237E+02  0.12579907307E+02  0.31886050847E+02  0.00000000000E+00 0.  1.
         11    1    3    3    0    0 -0.12423240147E+01  0.52484140427E+00 -0.62712881128E+00  0.14873191535E+01  0.51100000000E-03 0. -1.
        -11    1    3    3    0    0 -0.72785941822E+01  0.13687846845E+02  0.15358186505E+02  0.21822212938E+02  0.51100000000E-03 0.  1.
        -12    1    3    3    0    0  0.19554554705E+02  0.12929990988E+02 -0.27310965001E+02  0.35992417062E+02  0.00000000000E+00 0.  1.
</event>
<event>
 7    1  0.3802554E-013  0.5930196E+02  0.7816164E-02  0.1266605E+00
        -11   -1    0    0    0    0  0.00000000000E+00  0.00000000000E+00  0.45593999997E+02  0.45594000000E+02  0.51100000000E-03 0.  1.
         11   -1    0    0    0    0 -0.00000000000E+00 -0.00000000000E+00 -0.45593999997E+02  0.45594000000E+02  0.51100000000E-03 0. -1.
    9900012    2    1    2    0    0  0.16151418139E+02  0.64718709975E+00 -0.27485131050E+02  0.59301959357E+02  0.50000027957E+02 0.  0.
        -12    1    1    2    0    0 -0.16151418139E+02 -0.64718709975E+00  0.27485131050E+02  0.31886040643E+02  0.00000000000E+00 0.  1.
         11    1    3    3    0    0 -0.70720254285E+01 -0.82565679945E+00 -0.45187693300E+01  0.84329431001E+01  0.51100000000E-03 0. -1.
        -11    1    3    3    0    0 -0.98721171259E+01 -0.22614467256E+01  0.47853270474E+00  0.10139123811E+02  0.51100000000E-03 0.  1.
        -12    1    3    3    0    0  0.33095560693E+02  0.37342906248E+01 -0.23444894425E+02  0.40729892446E+02  0.00000000000E+00 0.  1.
</event>
<event>
 7    1  0.3802554E-013  0.5930192E+02  0.7816164E-02  0.1266605E+00
        -11   -1    0    0    0    0  0.00000000000E+00  0.00000000000E+00  0.45593999997E+02  0.45594000000E+02  0.51100000000E-03 0.  1.
         11   -1    0    0    0    0 -0.00000000000E+00 -0.00000000000E+00 -0.45593999997E+02  0.45594000000E+02  0.51100000000E-03 0. -1.
    9900012    2    1    2    0    0  0.27446754078E+02 -0.15831043147E+02 -0.35743179402E+01  0.59301921764E+02  0.49999959397E+02 0.  0.
        -12    1    1    2    0    0 -0.27446754078E+02  0.15831043147E+02  0.35743179402E+01  0.31886078236E+02  0.00000000000E+00 0.  1.
         11    1    3    3    0    0  0.15637978652E+02 -0.41435457913E+01 -0.52860437939E+01  0.17019330401E+02  0.51100000000E-03 0. -1.
        -11    1    3    3    0    0  0.25978624197E+02 -0.49235840887E+01  0.25163822742E+01  0.26560549231E+02  0.51100000000E-03 0.  1.
        -12    1    3    3    0    0 -0.14169848771E+02 -0.67639132669E+01 -0.80465642053E+00  0.15722042133E+02  0.00000000000E+00 0.  1.
</event>
<event>
 7    1  0.3802554E-013  0.5930195E+02  0.7816164E-02  0.1266605E+00
        -11   -1    0    0    0    0  0.00000000000E+00  0.00000000000E+00  0.45593999997E+02  0.45594000000E+02  0.51100000000E-03 0. -1.
         11   -1    0    0    0    0 -0.00000000000E+00 -0.00000000000E+00 -0.45593999997E+02  0.45594000000E+02  0.51100000000E-03 0.  1.
    9900012    2    1    2    0    0 -0.15616983883E+02 -0.20444016069E+02  0.18838058762E+02  0.59301946050E+02  0.50000003688E+02 0.  0.
        -12    1    1    2    0    0  0.15616983883E+02  0.20444016069E+02 -0.18838058762E+02  0.31886053950E+02  0.00000000000E+00 0.  1.
         11    1    3    3    0    0 -0.85407402598E+01 -0.18546831951E+02  0.83007657033E+01  0.22041595476E+02  0.51100000000E-03 0. -1.
        -11    1    3    3    0    0  0.58234072207E+01 -0.12499040713E+02  0.14593354727E+02  0.20077452349E+02  0.51100000000E-03 0.  1.
         12    1    3    3    0    0 -0.12899650844E+02  0.10601856594E+02 -0.40560616687E+01  0.17182898225E+02  0.00000000000E+00 0. -1.
</event>
<event>
 7    1  0.3802554E-013  0.5930195E+02  0.7816164E-02  0.1266605E+00
        -11   -1    0    0    0    0  0.00000000000E+00  0.00000000000E+00  0.45593999997E+02  0.45594000000E+02  0.51100000000E-03 0. -1.
         11   -1    0    0    0    0 -0.00000000000E+00 -0.00000000000E+00 -0.45593999997E+02  0.45594000000E+02  0.51100000000E-03 0.  1.
    9900012    2    1    2    0    0  0.23294989062E+02  0.15063065799E+02  0.15721564416E+02  0.59301952042E+02  0.50000014617E+02 0.  0.
        -12    1    1    2    0    0 -0.23294989062E+02 -0.15063065799E+02 -0.15721564416E+02  0.31886047958E+02  0.00000000000E+00 0.  1.
         11    1    3    3    0    0 -0.84697829768E-01  0.65474404066E+01  0.94852199473E+01  0.11525864276E+02  0.51100000000E-03 0. -1.
        -11    1    3    3    0    0  0.10763767702E+02 -0.10530527948E+02  0.16839194563E+02  0.22590024077E+02  0.51100000000E-03 0.  1.
        -12    1    3    3    0    0  0.12615919189E+02  0.19046153340E+02 -0.10602850094E+02  0.25186063690E+02  0.00000000000E+00 0.  1.
</event>
<event>
 7    1  0.3802554E-013  0.5930192E+02  0.7816164E-02  0.1266605E+00
        -11   -1    0    0    0    0  0.00000000000E+00  0.00000000000E+00  0.45593999997E+02  0.45594000000E+02  0.51100000000E-03 0. -1.
         11   -1    0    0    0    0 -0.00000000000E+00 -0.00000000000E+00 -0.45593999997E+02  0.45594000000E+02  0.51100000000E-03 0.  1.
    9900012    2    1    2    0    0 -0.24369431444E+01 -0.88192537017E+01  0.30545113363E+02  0.59301923444E+02  0.49999962461E+02 0.  0.
        -12    1    1    2    0    0  0.24369431444E+01  0.88192537017E+01 -0.30545113363E+02  0.31886076556E+02  0.00000000000E+00 0.  1.
         11    1    3    3    0    0 -0.16920800787E+02 -0.54007177796E+01  0.23638021131E+02  0.29567504039E+02  0.51100000000E-03 0. -1.
        -11    1    3    3    0    0  0.10110229618E+01 -0.12281039454E+02  0.35476733556E+00  0.12327690685E+02  0.51100000000E-03 0.  1.
         12    1    3    3    0    0  0.13472834681E+02  0.88625035320E+01  0.65523248967E+01  0.17406728721E+02  0.00000000000E+00 0. -1.
</event>
<event>
 7    1  0.3802554E-013  0.5930200E+02  0.7816164E-02  0.1266605E+00
        -11   -1    0    0    0    0  0.00000000000E+00  0.00000000000E+00  0.45593999997E+02  0.45594000000E+02  0.51100000000E-03 0. -1.
         11   -1    0    0    0    0 -0.00000000000E+00 -0.00000000000E+00 -0.45593999997E+02  0.45594000000E+02  0.51100000000E-03 0.  1.
    9900012    2    1    2    0    0 -0.94784278745E+01 -0.30276168409E+02 -0.31984689903E+01  0.59301997234E+02  0.50000097036E+02 0.  0.
        -12    1    1    2    0    0  0.94784278745E+01  0.30276168409E+02  0.31984689903E+01  0.31886002766E+02  0.00000000000E+00 0.  1.
         11    1    3    3    0    0  0.10907264889E+02 -0.13940617818E+02  0.36973051878E+01  0.18082569464E+02  0.51100000000E-03 0. -1.
        -11    1    3    3    0    0  0.22074087293E+01  0.35928256517E+01  0.68985840822E+01  0.80852651201E+01  0.51100000000E-03 0.  1.
         12    1    3    3    0    0 -0.22593101493E+02 -0.19928376242E+02 -0.13794358260E+02  0.33134162650E+02  0.00000000000E+00 0. -1.
</event>
<event>
 7    1  0.3802554E-013  0.5930194E+02  0.7816164E-02  0.1266605E+00
        -11   -1    0    0    0    0  0.00000000000E+00  0.00000000000E+00  0.45593999997E+02  0.45594000000E+02  0.51100000000E-03 0.  1.
         11   -1    0    0    0    0 -0.00000000000E+00 -0.00000000000E+00 -0.45593999997E+02  0.45594000000E+02  0.51100000000E-03 0. -1.
    9900012    2    1    2    0    0  0.86021930540E+01 -0.26895504196E+01 -0.30585773043E+02  0.59301938477E+02  0.49999989876E+02 0.  0.
        -12    1    1    2    0    0 -0.86021930540E+01  0.26895504196E+01  0.30585773043E+02  0.31886061523E+02  0.00000000000E+00 0.  1.
         11    1    3    3    0    0 -0.49522451568E+01 -0.51235679839E+01 -0.23290257256E+02  0.24355938994E+02  0.51100000000E-03 0. -1.
        -11    1    3    3    0    0  0.16468937496E+02  0.61780840086E+01 -0.16799675621E+02  0.24323316499E+02  0.51100000000E-03 0.  1.
         12    1    3    3    0    0 -0.29144992848E+01 -0.37440664442E+01  0.95041598340E+01  0.10622682984E+02  0.00000000000E+00 0. -1.
</event>
<event>
 7    1  0.3802554E-013  0.5930192E+02  0.7816164E-02  0.1266605E+00
        -11   -1    0    0    0    0  0.00000000000E+00  0.00000000000E+00  0.45593999997E+02  0.45594000000E+02  0.51100000000E-03 0.  1.
         11   -1    0    0    0    0 -0.00000000000E+00 -0.00000000000E+00 -0.45593999997E+02  0.45594000000E+02  0.51100000000E-03 0. -1.
    9900012    2    1    2    0    0 -0.15363076206E+02 -0.44987292915E+01 -0.27576426101E+02  0.59301922281E+02  0.49999960340E+02 0.  0.
        -12    1    1    2    0    0  0.15363076206E+02  0.44987292915E+01  0.27576426101E+02  0.31886077719E+02  0.00000000000E+00 0.  1.
         11    1    3    3    0    0 -0.19331175937E+01 -0.21746529471E+02 -0.20238348441E+02  0.29769770499E+02  0.51100000000E-03 0. -1.
        -11    1    3    3    0    0  0.39514573848E+01  0.37925441322E+01  0.17454270333E+01  0.57483843164E+01  0.51100000000E-03 0.  1.
        -12    1    3    3    0    0 -0.17381415997E+02  0.13455256047E+02 -0.90835046942E+01  0.23783767466E+02  0.00000000000E+00 0.  1.
</event>
<event>
 7    1  0.3802554E-013  0.5930191E+02  0.7816164E-02  0.1266605E+00
        -11   -1    0    0    0    0  0.00000000000E+00  0.00000000000E+00  0.45593999997E+02  0.45594000000E+02  0.51100000000E-03 0.  1.
         11   -1    0    0    0    0 -0.00000000000E+00 -0.00000000000E+00 -0.45593999997E+02  0.45594000000E+02  0.51100000000E-03 0. -1.
    9900012    2    1    2    0    0 -0.25740726589E+01 -0.12726540215E+02 -0.29122710406E+02  0.59301906836E+02  0.49999932171E+02 0.  0.
        -12    1    1    2    0    0  0.25740726589E+01  0.12726540215E+02  0.29122710406E+02  0.31886093164E+02  0.00000000000E+00 0.  1.
         11    1    3    3    0    0 -0.16516202583E+02 -0.23290174211E+01 -0.92565911961E+01  0.19075999338E+02  0.51100000000E-03 0. -1.
        -11    1    3    3    0    0 -0.20086990568E+01 -0.18281357881E+00  0.70389478990E+01  0.73222319337E+01  0.51100000000E-03 0.  1.
        -12    1    3    3    0    0  0.15950828981E+02 -0.10214709215E+02 -0.26905067109E+02  0.32903675564E+02  0.00000000000E+00 0.  1.
</event>
<event>
 7    1  0.3802554E-013  0.5930195E+02  0.7816164E-02  0.1266605E+00
        -11   -1    0    0    0    0  0.00000000000E+00  0.00000000000E+00  0.45593999997E+02  0.45594000000E+02  0.51100000000E-03 0.  1.
         11   -1    0    0    0    0 -0.00000000000E+00 -0.00000000000E+00 -0.45593999997E+02  0.45594000000E+02  0.51100000000E-03 0. -1.
    9900012    2    1    2    0    0 -0.54223710829E+01  0.83772889251E+01 -0.30284305667E+02  0.59301949011E+02  0.50000009089E+02 0.  0.
        -12    1    1    2    0    0  0.54223710829E+01 -0.83772889251E+01  0.30284305667E+02  0.31886050989E+02  0.00000000000E+00 0.  1.
         11    1    3    3    0    0 -0.59429038654E+01  0.37343752026E+01 -0.20790333745E+02  0.21943145672E+02  0.51100000000E-03 0. -1.
        -11    1    3    3    0    0  0.60083380827E+01 -0.69702634675E+01 -0.19178749563E+02  0.21272262089E+02  0.51100000000E-03 0.  1.
        -12    1    3    3    0    0 -0.54878053002E+01  0.11613177190E+02  0.96847776403E+01  0.16086541250E+02  0.00000000000E+00 0.  1.
</event>
<event>
 7    1  0.3802554E-013  0.5930199E+02  0.7816164E-02  0.1266605E+00
        -11   -1    0    0    0    0  0.00000000000E+00  0.00000000000E+00  0.45593999997E+02  0.45594000000E+02  0.51100000000E-03 0. -1.
         11   -1    0    0    0    0 -0.00000000000E+00 -0.00000000000E+00 -0.45593999997E+02  0.45594000000E+02  0.51100000000E-03 0.  1.
    9900012    2    1    2    0    0  0.14777587066E+01 -0.31802997789E+02 -0.17615130174E+01  0.59301994178E+02  0.50000091462E+02 0.  0.
        -12    1    1    2    0    0 -0.14777587066E+01  0.31802997789E+02  0.17615130174E+01  0.31886005822E+02  0.00000000000E+00 0.  1.
         11    1    3    3    0    0  0.48344736121E+01 -0.82911994541E+01  0.71863542729E+01  0.11989987969E+02  0.51100000000E-03 0. -1.
        -11    1    3    3    0    0  0.75257065765E+01 -0.31489537757E+02 -0.96985161863E+01  0.33797758270E+02  0.51100000000E-03 0.  1.
         12    1    3    3    0    0 -0.10882421482E+02  0.79777394216E+01  0.75064889596E+00  0.13514247939E+02  0.00000000000E+00 0. -1.
</event>
<event>
 7    1  0.3802554E-013  0.5930190E+02  0.7816164E-02  0.1266605E+00
        -11   -1    0    0    0    0  0.00000000000E+00  0.00000000000E+00  0.45593999997E+02  0.45594000000E+02  0.51100000000E-03 0.  1.
         11   -1    0    0    0    0 -0.00000000000E+00 -0.00000000000E+00 -0.45593999997E+02  0.45594000000E+02  0.51100000000E-03 0. -1.
    9900012    2    1    2    0    0  0.96911152554E+01  0.84205903911E+01 -0.29187310699E+02  0.59301903292E+02  0.49999925707E+02 0.  0.
        -12    1    1    2    0    0 -0.96911152554E+01 -0.84205903911E+01  0.29187310699E+02  0.31886096708E+02  0.00000000000E+00 0.  1.
         11    1    3    3    0    0  0.98835111247E+01  0.32041537169E+01 -0.27503362457E+02  0.29400430948E+02  0.51100000000E-03 0. -1.
        -11    1    3    3    0    0  0.10683245408E+02  0.41881690566E+00 -0.10589958298E+02  0.15048400482E+02  0.51100000000E-03 0.  1.
        -12    1    3    3    0    0 -0.10875641277E+02  0.47976197686E+01  0.89060100562E+01  0.14853071862E+02  0.00000000000E+00 0.  1.
</event>
<event>
 7    1  0.3802554E-013  0.5930195E+02  0.7816164E-02  0.1266605E+00
        -11   -1    0    0    0    0  0.00000000000E+00  0.00000000000E+00  0.45593999997E+02  0.45594000000E+02  0.51100000000E-03 0. -1.
         11   -1    0    0    0    0 -0.00000000000E+00 -0.00000000000E+00 -0.45593999997E+02  0.45594000000E+02  0.51100000000E-03 0.  1.
    9900012    2    1    2    0    0 -0.31060910873E+01  0.13160135841E+02  0.28877039467E+02  0.59301946848E+02  0.50000005144E+02 0.  0.
        -12    1    1    2    0    0  0.31060910873E+01 -0.13160135841E+02 -0.28877039467E+02  0.31886053152E+02  0.00000000000E+00 0.  1.
         11    1    3    3    0    0 -0.40499273467E+01  0.15504701334E+02  0.20579871913E+02  0.26083113372E+02  0.51100000000E-03 0. -1.
        -11    1    3    3    0    0  0.46480496007E+01  0.11251575487E+02 -0.56242120050E+01  0.13410222853E+02  0.51100000000E-03 0.  1.
        -12    1    3    3    0    0 -0.37042133412E+01 -0.13596140979E+02  0.13921379559E+02  0.19808610624E+02  0.00000000000E+00 0.  1.
</event>
<event>
 7    1  0.3802554E-013  0.5930195E+02  0.7816164E-02  0.1266605E+00
        -11   -1    0    0    0    0  0.00000000000E+00  0.00000000000E+00  0.45593999997E+02  0.45594000000E+02  0.51100000000E-03 0. -1.
         11   -1    0    0    0    0 -0.00000000000E+00 -0.00000000000E+00 -0.45593999997E+02  0.45594000000E+02  0.51100000000E-03 0.  1.
    9900012    2    1    2    0    0 -0.34748259756E+01 -0.30591147424E+02  0.82962130177E+01  0.59301954985E+02  0.50000019984E+02 0.  0.
        -12    1    1    2    0    0  0.34748259756E+01  0.30591147424E+02 -0.82962130177E+01  0.31886045015E+02  0.00000000000E+00 0.  1.
         11    1    3    3    0    0  0.51465388480E+01 -0.70050816627E+01 -0.11036151817E+02  0.14048298060E+02  0.51100000000E-03 0. -1.
        -11    1    3    3    0    0  0.12015065701E+02 -0.10399148817E+02  0.40919827953E+01  0.16408791039E+02  0.51100000000E-03 0.  1.
         12    1    3    3    0    0 -0.20636430524E+02 -0.13186916944E+02  0.15240382039E+02  0.28844865885E+02  0.00000000000E+00 0. -1.
</event>
<event>
 7    1  0.3802554E-013  0.5930192E+02  0.7816164E-02  0.1266605E+00
        -11   -1    0    0    0    0  0.00000000000E+00  0.00000000000E+00  0.45593999997E+02  0.45594000000E+02  0.51100000000E-03 0.  1.
         11   -1    0    0    0    0 -0.00000000000E+00 -0.00000000000E+00 -0.45593999997E+02  0.45594000000E+02  0.51100000000E-03 0. -1.
    9900012    2    1    2    0    0 -0.26293670764E+02 -0.15226589750E+02 -0.96703722960E+01  0.59301917488E+02  0.49999951597E+02 0.  0.
        -12    1    1    2    0    0  0.26293670764E+02  0.15226589750E+02  0.96703722960E+01  0.31886082512E+02  0.00000000000E+00 0.  1.
         11    1    3    3    0    0 -0.84909649889E+01  0.41821271048E+01 -0.22859812767E+02  0.24741821145E+02  0.51100000000E-03 0.  1.
        -11    1    3    3    0    0 -0.10646544893E+02 -0.19158530624E+02  0.30235900143E+01  0.22125557861E+02  0.51100000000E-03 0. -1.
        -12    1    3    3    0    0 -0.71561608822E+01 -0.25018623019E+00  0.10165850457E+02  0.12434538481E+02  0.00000000000E+00 0.  1.
</event>
<event>
 7    1  0.3802554E-013  0.5930195E+02  0.7816164E-02  0.1266605E+00
        -11   -1    0    0    0    0  0.00000000000E+00  0.00000000000E+00  0.45593999997E+02  0.45594000000E+02  0.51100000000E-03 0. -1.
         11   -1    0    0    0    0 -0.00000000000E+00 -0.00000000000E+00 -0.45593999997E+02  0.45594000000E+02  0.51100000000E-03 0.  1.
    9900012    2    1    2    0    0  0.30245804597E+02  0.96804913910E+01  0.28634671377E+01  0.59301952058E+02  0.50000014645E+02 0.  0.
        -12    1    1    2    0    0 -0.30245804597E+02 -0.96804913910E+01 -0.28634671377E+01  0.31886047942E+02  0.00000000000E+00 0.  1.
         11    1    3    3    0    0  0.12662870144E+02 -0.12485339292E+02  0.72053380716E+01  0.19187206011E+02  0.51100000000E-03 0. -1.
        -11    1    3    3    0    0  0.15652164771E+01  0.64493250610E+00  0.96916690358E+01  0.98384088916E+01  0.51100000000E-03 0.  1.
        -12    1    3    3    0    0  0.16017717976E+02  0.21520898176E+02 -0.14033539970E+02  0.30276337156E+02  0.00000000000E+00 0.  1.
</event>
<event>
 7    1  0.3802554E-013  0.5930195E+02  0.7816164E-02  0.1266605E+00
        -11   -1    0    0    0    0  0.00000000000E+00  0.00000000000E+00  0.45593999997E+02  0.45594000000E+02  0.51100000000E-03 0. -1.
         11   -1    0    0    0    0 -0.00000000000E+00 -0.00000000000E+00 -0.45593999997E+02  0.45594000000E+02  0.51100000000E-03 0.  1.
    9900012    2    1    2    0    0  0.20019606010E+02 -0.53468903807E+01  0.24235224630E+02  0.59301953296E+02  0.50000016903E+02 0.  0.
        -12    1    1    2    0    0 -0.20019606010E+02  0.53468903807E+01 -0.24235224630E+02  0.31886046704E+02  0.00000000000E+00 0.  1.
         11    1    3    3    0    0  0.63479766038E+00 -0.31621792784E+01 -0.44273206283E+01  0.54775463545E+01  0.51100000000E-03 0. -1.
        -11    1    3    3    0    0 -0.11811488611E+02 -0.60581628958E+01  0.39857757971E+01  0.13859978710E+02  0.51100000000E-03 0.  1.
         12    1    3    3    0    0  0.31196296960E+02  0.38734517935E+01  0.24676769461E+02  0.39964428232E+02  0.00000000000E+00 0. -1.
</event>
<event>
 7    1  0.3802554E-013  0.5930194E+02  0.7816164E-02  0.1266605E+00
        -11   -1    0    0    0    0  0.00000000000E+00  0.00000000000E+00  0.45593999997E+02  0.45594000000E+02  0.51100000000E-03 0. -1.
         11   -1    0    0    0    0 -0.00000000000E+00 -0.00000000000E+00 -0.45593999997E+02  0.45594000000E+02  0.51100000000E-03 0.  1.
    9900012    2    1    2    0    0  0.14247869272E+02 -0.25116293038E+02  0.13523722202E+02  0.59301936949E+02  0.49999987089E+02 0.  0.
        -12    1    1    2    0    0 -0.14247869272E+02  0.25116293038E+02 -0.13523722202E+02  0.31886063051E+02  0.00000000000E+00 0.  1.
         11    1    3    3    0    0 -0.79096227683E+01 -0.94831202675E+01 -0.34343900648E+01  0.12817438813E+02  0.51100000000E-03 0.  1.
        -11    1    3    3    0    0  0.23512862895E+02  0.37844681689E+01  0.92229569620E+01  0.25538986985E+02  0.51100000000E-03 0. -1.
         12    1    3    3    0    0 -0.13553708546E+01 -0.19417640939E+02  0.77351553045E+01  0.20945511151E+02  0.00000000000E+00 0. -1.
</event>
<event>
 7    1  0.3802554E-013  0.5930195E+02  0.7816164E-02  0.1266605E+00
        -11   -1    0    0    0    0  0.00000000000E+00  0.00000000000E+00  0.45593999997E+02  0.45594000000E+02  0.51100000000E-03 0.  1.
         11   -1    0    0    0    0 -0.00000000000E+00 -0.00000000000E+00 -0.45593999997E+02  0.45594000000E+02  0.51100000000E-03 0. -1.
    9900012    2    1    2    0    0  0.90578275321E+01 -0.29062219246E+02 -0.94901821055E+01  0.59301946881E+02  0.50000005205E+02 0.  0.
        -12    1    1    2    0    0 -0.90578275321E+01  0.29062219246E+02  0.94901821055E+01  0.31886053119E+02  0.00000000000E+00 0.  1.
         11    1    3    3    0    0  0.12927860773E+02 -0.10766976996E+02  0.21897004201E+01  0.16966206588E+02  0.51100000000E-03 0. -1.
        -11    1    3    3    0    0  0.80254223422E+01  0.81910218735E+01 -0.51757550224E+01  0.12581283059E+02  0.51100000000E-03 0.  1.
         12    1    3    3    0    0 -0.11895455583E+02 -0.26486264123E+02 -0.65041275032E+01  0.29754457234E+02  0.00000000000E+00 0. -1.
</event>
<event>
 7    1  0.3802554E-013  0.5930195E+02  0.7816164E-02  0.1266605E+00
        -11   -1    0    0    0    0  0.00000000000E+00  0.00000000000E+00  0.45593999997E+02  0.45594000000E+02  0.51100000000E-03 0. -1.
         11   -1    0    0    0    0 -0.00000000000E+00 -0.00000000000E+00 -0.45593999997E+02  0.45594000000E+02  0.51100000000E-03 0.  1.
    9900012    2    1    2    0    0 -0.16023068450E+02 -0.19376413323E+02  0.19609589733E+02  0.59301950929E+02  0.50000012587E+02 0.  0.
        -12    1    1    2    0    0  0.16023068450E+02  0.19376413323E+02 -0.19609589733E+02  0.31886049071E+02  0.00000000000E+00 0.  1.
         11    1    3    3    0    0  0.11738923386E+02 -0.13968940704E+01  0.10328027544E+02  0.15697827509E+02  0.51100000000E-03 0. -1.
        -11    1    3    3    0    0 -0.49735450646E+01 -0.16999364365E+02 -0.25731673440E+01  0.17897925292E+02  0.51100000000E-03 0.  1.
        -12    1    3    3    0    0 -0.22788446772E+02 -0.98015488813E+00  0.11854729533E+02  0.25706198128E+02  0.00000000000E+00 0.  1.
</event>
<event>
 7    1  0.3802554E-013  0.5930196E+02  0.7816164E-02  0.1266605E+00
        -11   -1    0    0    0    0  0.00000000000E+00  0.00000000000E+00  0.45593999997E+02  0.45594000000E+02  0.51100000000E-03 0.  1.
         11   -1    0    0    0    0 -0.00000000000E+00 -0.00000000000E+00 -0.45593999997E+02  0.45594000000E+02  0.51100000000E-03 0. -1.
    9900012    2    1    2    0    0  0.48183237466E+01 -0.17727907736E+02 -0.26061938419E+02  0.59301959314E+02  0.50000027879E+02 0.  0.
        -12    1    1    2    0    0 -0.48183237466E+01  0.17727907736E+02  0.26061938419E+02  0.31886040686E+02  0.00000000000E+00 0.  1.
         11    1    3    3    0    0 -0.93986600773E+01  0.52396715203E+01 -0.18255355954E+02  0.21190728873E+02  0.51100000000E-03 0. -1.
        -11    1    3    3    0    0  0.69759211983E+01 -0.41579427697E+01  0.88154562426E+01  0.11986001571E+02  0.51100000000E-03 0.  1.
         12    1    3    3    0    0  0.72410626256E+01 -0.18809636487E+02 -0.16622038708E+02  0.26125228870E+02  0.00000000000E+00 0. -1.
</event>
<event>
 7    1  0.3802554E-013  0.5930195E+02  0.7816164E-02  0.1266605E+00
        -11   -1    0    0    0    0  0.00000000000E+00  0.00000000000E+00  0.45593999997E+02  0.45594000000E+02  0.51100000000E-03 0. -1.
         11   -1    0    0    0    0 -0.00000000000E+00 -0.00000000000E+00 -0.45593999997E+02  0.45594000000E+02  0.51100000000E-03 0.  1.
    9900012    2    1    2    0    0 -0.15766048011E+02  0.19490553003E+02  0.19704568006E+02  0.59301954046E+02  0.50000018272E+02 0.  0.
        -12    1    1    2    0    0  0.15766048011E+02 -0.19490553003E+02 -0.19704568006E+02  0.31886045954E+02  0.00000000000E+00 0.  1.
         11    1    3    3    0    0  0.82525198724E+01  0.58877216291E+01  0.12107551426E+02  0.15791204895E+02  0.51100000000E-03 0. -1.
        -11    1    3    3    0    0 -0.55597031286E+01 -0.92690454453E+01 -0.45252332608E+01  0.11717646465E+02  0.51100000000E-03 0.  1.
         12    1    3    3    0    0 -0.18458864755E+02  0.22871876819E+02  0.12122249841E+02  0.31793102687E+02  0.00000000000E+00 0. -1.
</event>
<event>
 7    1  0.3802554E-013  0.5930194E+02  0.7816164E-02  0.1266605E+00
        -11   -1    0    0    0    0  0.00000000000E+00  0.00000000000E+00  0.45593999997E+02  0.45594000000E+02  0.51100000000E-03 0.  1.
         11   -1    0    0    0    0 -0.00000000000E+00 -0.00000000000E+00 -0.45593999997E+02  0.45594000000E+02  0.51100000000E-03 0. -1.
    9900012    2    1    2    0    0 -0.24648872927E+02 -0.17675935089E+02  0.98343753073E+01  0.59301944184E+02  0.50000000285E+02 0.  0.
        -12    1    1    2    0    0  0.24648872927E+02  0.17675935089E+02 -0.98343753073E+01  0.31886055816E+02  0.00000000000E+00 0.  1.
         11    1    3    3    0    0 -0.22758185678E+02 -0.29182298339E+02  0.33832425423E+01  0.37161645309E+02  0.51100000000E-03 0. -1.
        -11    1    3    3    0    0 -0.85836325144E+01  0.10807484056E+02  0.17066533578E+01  0.13906585660E+02  0.51100000000E-03 0.  1.
        -12    1    3    3    0    0  0.66929452662E+01  0.69887919359E+00  0.47444794072E+01  0.82337132152E+01  0.00000000000E+00 0.  1.
</event>
<event>
 7    1  0.3802554E-013  0.5930193E+02  0.7816164E-02  0.1266605E+00
        -11   -1    0    0    0    0  0.00000000000E+00  0.00000000000E+00  0.45593999997E+02  0.45594000000E+02  0.51100000000E-03 0.  1.
         11   -1    0    0    0    0 -0.00000000000E+00 -0.00000000000E+00 -0.45593999997E+02  0.45594000000E+02  0.51100000000E-03 0. -1.
    9900012    2    1    2    0    0  0.16377859224E+01  0.37928284484E+01 -0.31617294388E+02  0.59301934160E+02  0.49999982004E+02 0.  0.
        -12    1    1    2    0    0 -0.16377859224E+01 -0.37928284484E+01  0.31617294388E+02  0.31886065840E+02  0.00000000000E+00 0.  1.
         11    1    3    3    0    0  0.51660115480E+00  0.86090368318E+01  0.67353241478E+01  0.10942896489E+02  0.51100000000E-03 0. -1.
        -11    1    3    3    0    0  0.94699931198E+01  0.90470117238E+01 -0.14552155226E+02  0.19577906242E+02  0.51100000000E-03 0.  1.
         12    1    3    3    0    0 -0.83488083522E+01 -0.13863220107E+02 -0.23800463309E+02  0.28781131430E+02  0.00000000000E+00 0. -1.
</event>
<event>
 7    1  0.3802554E-013  0.5930195E+02  0.7816164E-02  0.1266605E+00
        -11   -1    0    0    0    0  0.00000000000E+00  0.00000000000E+00  0.45593999997E+02  0.45594000000E+02  0.51100000000E-03 0.  1.
         11   -1    0    0    0    0 -0.00000000000E+00 -0.00000000000E+00 -0.45593999997E+02  0.45594000000E+02  0.51100000000E-03 0. -1.
    9900012    2    1    2    0    0 -0.23528431020E+02 -0.21398381302E+02 -0.22895889881E+01  0.59301952795E+02  0.50000015990E+02 0.  0.
        -12    1    1    2    0    0  0.23528431020E+02  0.21398381302E+02  0.22895889881E+01  0.31886047205E+02  0.00000000000E+00 0.  1.
         11    1    3    3    0    0 -0.16240114903E+02 -0.24589450513E+02 -0.13284315005E+02  0.32324223642E+02  0.51100000000E-03 0. -1.
        -11    1    3    3    0    0  0.70797084603E+01  0.20572887239E+00 -0.20177962803E+01  0.73645161649E+01  0.51100000000E-03 0.  1.
         12    1    3    3    0    0 -0.14368024577E+02  0.29853403391E+01  0.13012522297E+02  0.19613212989E+02  0.00000000000E+00 0. -1.
</event>
<event>
 7    1  0.3802554E-013  0.5930196E+02  0.7816164E-02  0.1266605E+00
        -11   -1    0    0    0    0  0.00000000000E+00  0.00000000000E+00  0.45593999997E+02  0.45594000000E+02  0.51100000000E-03 0. -1.
         11   -1    0    0    0    0 -0.00000000000E+00 -0.00000000000E+00 -0.45593999997E+02  0.45594000000E+02  0.51100000000E-03 0.  1.
    9900012    2    1    2    0    0  0.27080512565E+02  0.12707193359E+02  0.11040487327E+02  0.59301964118E+02  0.50000036639E+02 0.  0.
        -12    1    1    2    0    0 -0.27080512565E+02 -0.12707193359E+02 -0.11040487327E+02  0.31886035882E+02  0.00000000000E+00 0.  1.
         11    1    3    3    0    0 -0.67555626796E+01  0.65631702894E+01  0.11725686901E+02  0.15040098568E+02  0.51100000000E-03 0. -1.
        -11    1    3    3    0    0  0.17126126607E+02 -0.98451645555E+01  0.51402144205E+01  0.20412086670E+02  0.51100000000E-03 0.  1.
         12    1    3    3    0    0  0.16709948638E+02  0.15989187625E+02 -0.58254139941E+01  0.23849778880E+02  0.00000000000E+00 0. -1.
</event>
<event>
 7    1  0.3802554E-013  0.5930196E+02  0.7816164E-02  0.1266605E+00
        -11   -1    0    0    0    0  0.00000000000E+00  0.00000000000E+00  0.45593999997E+02  0.45594000000E+02  0.51100000000E-03 0. -1.
         11   -1    0    0    0    0 -0.00000000000E+00 -0.00000000000E+00 -0.45593999997E+02  0.45594000000E+02  0.51100000000E-03 0.  1.
    9900012    2    1    2    0    0  0.94682788930E+01 -0.28238304352E+02 -0.11387238564E+02  0.59301963244E+02  0.50000035047E+02 0.  0.
        -12    1    1    2    0    0 -0.94682788930E+01  0.28238304352E+02  0.11387238564E+02  0.31886036756E+02  0.00000000000E+00 0.  1.
         11    1    3    3    0    0 -0.90434042538E+01  0.12536830273E+01  0.77293886777E+01  0.11962371472E+02  0.51100000000E-03 0. -1.
        -11    1    3    3    0    0  0.12563772459E+02 -0.36965628673E+00 -0.11824247579E+01  0.12624704065E+02  0.51100000000E-03 0.  1.
        -12    1    3    3    0    0  0.59479106878E+01 -0.29122331092E+02 -0.17934202484E+02  0.34714887707E+02  0.00000000000E+00 0.  1.
</event>
<event>
 7    1  0.3802554E-013  0.5930196E+02  0.7816164E-02  0.1266605E+00
        -11   -1    0    0    0    0  0.00000000000E+00  0.00000000000E+00  0.45593999997E+02  0.45594000000E+02  0.51100000000E-03 0.  1.
         11   -1    0    0    0    0 -0.00000000000E+00 -0.00000000000E+00 -0.45593999997E+02  0.45594000000E+02  0.51100000000E-03 0. -1.
    9900012    2    1    2    0    0 -0.21418983723E+01 -0.36867709560E+01 -0.31599677377E+02  0.59301958868E+02  0.50000027065E+02 0.  0.
        -12    1    1    2    0    0  0.21418983723E+01  0.36867709560E+01  0.31599677377E+02  0.31886041132E+02  0.00000000000E+00 0.  1.
         11    1    3    3    0    0 -0.27622633819E+01  0.79127748280E+01  0.20050928979E+01  0.86175693940E+01  0.51100000000E-03 0. -1.
        -11    1    3    3    0    0  0.32110991777E+01 -0.18131596239E+02 -0.22486735590E+01  0.18550538352E+02  0.51100000000E-03 0.  1.
         12    1    3    3    0    0 -0.25907341680E+01  0.65320504553E+01 -0.31356096716E+02  0.32133851122E+02  0.00000000000E+00 0. -1.
</event>
<event>
 7    1  0.3802554E-013  0.5930194E+02  0.7816164E-02  0.1266605E+00
        -11   -1    0    0    0    0  0.00000000000E+00  0.00000000000E+00  0.45593999997E+02  0.45594000000E+02  0.51100000000E-03 0. -1.
         11   -1    0    0    0    0 -0.00000000000E+00 -0.00000000000E+00 -0.45593999997E+02  0.45594000000E+02  0.51100000000E-03 0.  1.
    9900012    2    1    2    0    0 -0.26899724232E+02  0.98503308103E+01  0.14003443596E+02  0.59301943277E+02  0.49999998630E+02 0.  0.
        -12    1    1    2    0    0  0.26899724232E+02 -0.98503308103E+01 -0.14003443596E+02  0.31886056723E+02  0.00000000000E+00 0.  1.
         11    1    3    3    0    0 -0.19368801405E+02  0.14004742555E+01  0.19701903036E+02  0.27663636411E+02  0.51100000000E-03 0. -1.
        -11    1    3    3    0    0 -0.83675036642E+01 -0.50054995634E+01  0.78556890386E+01  0.12521261677E+02  0.51100000000E-03 0.  1.
         12    1    3    3    0    0  0.83658083783E+00  0.13455356118E+02 -0.13554148478E+02  0.19117045188E+02  0.00000000000E+00 0. -1.
</event>
<event>
 7    1  0.3802554E-013  0.5930195E+02  0.7816164E-02  0.1266605E+00
        -11   -1    0    0    0    0  0.00000000000E+00  0.00000000000E+00  0.45593999997E+02  0.45594000000E+02  0.51100000000E-03 0.  1.
         11   -1    0    0    0    0 -0.00000000000E+00 -0.00000000000E+00 -0.45593999997E+02  0.45594000000E+02  0.51100000000E-03 0. -1.
    9900012    2    1    2    0    0  0.12553412774E+02  0.70163725806E+01 -0.28458782017E+02  0.59301953987E+02  0.50000018163E+02 0.  0.
        -12    1    1    2    0    0 -0.12553412774E+02 -0.70163725806E+01  0.28458782017E+02  0.31886046013E+02  0.00000000000E+00 0.  1.
         11    1    3    3    0    0  0.12386295078E+02 -0.57014473717E+01 -0.18754536634E+02  0.23187484825E+02  0.51100000000E-03 0. -1.
        -11    1    3    3    0    0  0.90011721178E+01  0.13795563192E+01 -0.17526014853E+02  0.19750581562E+02  0.51100000000E-03 0.  1.
        -12    1    3    3    0    0 -0.88340544212E+01  0.11338263633E+02  0.78217694707E+01  0.16363887600E+02  0.00000000000E+00 0.  1.
</event>
<event>
 7    1  0.3802554E-013  0.5930166E+02  0.7816164E-02  0.1266606E+00
        -11   -1    0    0    0    0  0.00000000000E+00  0.00000000000E+00  0.45593999997E+02  0.45594000000E+02  0.51100000000E-03 0. -1.
         11   -1    0    0    0    0 -0.00000000000E+00 -0.00000000000E+00 -0.45593999997E+02  0.45594000000E+02  0.51100000000E-03 0.  1.
    9900012    2    1    2    0    0  0.17670370875E+02  0.31622153831E+01  0.26353316689E+02  0.59301656317E+02  0.49999475281E+02 0.  0.
        -12    1    1    2    0    0 -0.17670370875E+02 -0.31622153831E+01 -0.26353316689E+02  0.31886343683E+02  0.00000000000E+00 0.  1.
         11    1    3    3    0    0 -0.20080814130E+01 -0.31766395335E+01 -0.62680764237E+01  0.73083658914E+01  0.51100000000E-03 0.  1.
        -11    1    3    3    0    0  0.23162969244E+02 -0.75109018821E+01  0.12647410895E+02  0.27438910217E+02  0.51100000000E-03 0. -1.
         12    1    3    3    0    0 -0.34845169556E+01  0.13849756799E+02  0.19973982217E+02  0.24554380208E+02  0.00000000000E+00 0. -1.
</event>
<event>
 7    1  0.3802554E-013  0.5930191E+02  0.7816164E-02  0.1266605E+00
        -11   -1    0    0    0    0  0.00000000000E+00  0.00000000000E+00  0.45593999997E+02  0.45594000000E+02  0.51100000000E-03 0. -1.
         11   -1    0    0    0    0 -0.00000000000E+00 -0.00000000000E+00 -0.45593999997E+02  0.45594000000E+02  0.51100000000E-03 0.  1.
    9900012    2    1    2    0    0 -0.25996771843E+02 -0.17660808479E+02  0.53838899584E+01  0.59301912541E+02  0.49999942576E+02 0.  0.
        -12    1    1    2    0    0  0.25996771843E+02  0.17660808479E+02 -0.53838899584E+01  0.31886087459E+02  0.00000000000E+00 0.  1.
         11    1    3    3    0    0 -0.71180692752E+00 -0.78337984772E+01  0.13933719744E+02  0.16000737916E+02  0.51100000000E-03 0. -1.
        -11    1    3    3    0    0 -0.46319849450E+01  0.11718509274E+02 -0.23263194786E+01  0.12813684354E+02  0.51100000000E-03 0.  1.
         12    1    3    3    0    0 -0.20652979970E+02 -0.21545519276E+02 -0.62235103071E+01  0.30487490271E+02  0.00000000000E+00 0. -1.
</event>
<event>
 7    1  0.3802554E-013  0.5930193E+02  0.7816164E-02  0.1266605E+00
        -11   -1    0    0    0    0  0.00000000000E+00  0.00000000000E+00  0.45593999997E+02  0.45594000000E+02  0.51100000000E-03 0. -1.
         11   -1    0    0    0    0 -0.00000000000E+00 -0.00000000000E+00 -0.45593999997E+02  0.45594000000E+02  0.51100000000E-03 0.  1.
    9900012    2    1    2    0    0 -0.76327681321E+01  0.29640013510E+02 -0.89404471612E+01  0.59301934929E+02  0.49999983407E+02 0.  0.
        -12    1    1    2    0    0  0.76327681321E+01 -0.29640013510E+02  0.89404471612E+01  0.31886065071E+02  0.00000000000E+00 0.  1.
         11    1    3    3    0    0  0.99062759503E+01  0.19481127659E+01  0.81312311527E+00  0.10128702583E+02  0.51100000000E-03 0. -1.
        -11    1    3    3    0    0 -0.78240184414E+00 -0.10759512352E+01 -0.15355447924E+02  0.15412968725E+02  0.51100000000E-03 0.  1.
         12    1    3    3    0    0 -0.16756642238E+02  0.28767851980E+02  0.56018776476E+01  0.33760263622E+02  0.00000000000E+00 0. -1.
</event>
<event>
 7    1  0.3802554E-013  0.5930193E+02  0.7816164E-02  0.1266605E+00
        -11   -1    0    0    0    0  0.00000000000E+00  0.00000000000E+00  0.45593999997E+02  0.45594000000E+02  0.51100000000E-03 0. -1.
         11   -1    0    0    0    0 -0.00000000000E+00 -0.00000000000E+00 -0.45593999997E+02  0.45594000000E+02  0.51100000000E-03 0.  1.
    9900012    2    1    2    0    0 -0.11849434492E+02 -0.14381602006E+02  0.25874345298E+02  0.59301932217E+02  0.49999978461E+02 0.  0.
        -12    1    1    2    0    0  0.11849434492E+02  0.14381602006E+02 -0.25874345298E+02  0.31886067783E+02  0.00000000000E+00 0.  1.
         11    1    3    3    0    0  0.86664363158E+01 -0.36895904352E+01  0.49040610677E+01  0.10619322540E+02  0.51100000000E-03 0. -1.
        -11    1    3    3    0    0  0.84890726753E+01  0.60595101734E+01  0.45421302291E+01  0.11375981967E+02  0.51100000000E-03 0.  1.
         12    1    3    3    0    0 -0.29004943484E+02 -0.16751521744E+02  0.16428154001E+02  0.37306627710E+02  0.00000000000E+00 0. -1.
</event>
<event>
 7    1  0.3802554E-013  0.5930192E+02  0.7816164E-02  0.1266605E+00
        -11   -1    0    0    0    0  0.00000000000E+00  0.00000000000E+00  0.45593999997E+02  0.45594000000E+02  0.51100000000E-03 0. -1.
         11   -1    0    0    0    0 -0.00000000000E+00 -0.00000000000E+00 -0.45593999997E+02  0.45594000000E+02  0.51100000000E-03 0.  1.
    9900012    2    1    2    0    0  0.26114786307E+02 -0.12017802006E+02  0.13795373922E+02  0.59301921995E+02  0.49999959817E+02 0.  0.
        -12    1    1    2    0    0 -0.26114786307E+02  0.12017802006E+02 -0.13795373922E+02  0.31886078005E+02  0.00000000000E+00 0.  1.
         11    1    3    3    0    0 -0.28410345589E+01  0.30341510160E+01 -0.13378378655E+01  0.43666188485E+01  0.51100000000E-03 0. -1.
        -11    1    3    3    0    0  0.19774972080E+02 -0.19935051506E+02 -0.83150157836E+01  0.29284727881E+02  0.51100000000E-03 0.  1.
         12    1    3    3    0    0  0.91808487861E+01  0.48830984848E+01  0.23448227571E+02  0.25650575265E+02  0.00000000000E+00 0. -1.
</event>
<event>
 7    1  0.3802554E-013  0.5930194E+02  0.7816164E-02  0.1266605E+00
        -11   -1    0    0    0    0  0.00000000000E+00  0.00000000000E+00  0.45593999997E+02  0.45594000000E+02  0.51100000000E-03 0.  1.
         11   -1    0    0    0    0 -0.00000000000E+00 -0.00000000000E+00 -0.45593999997E+02  0.45594000000E+02  0.51100000000E-03 0. -1.
    9900012    2    1    2    0    0  0.18533638102E+02  0.25062708940E+02 -0.67145787984E+01  0.59301942088E+02  0.49999996462E+02 0.  0.
        -12    1    1    2    0    0 -0.18533638102E+02 -0.25062708940E+02  0.67145787984E+01  0.31886057912E+02  0.00000000000E+00 0.  1.
         11    1    3    3    0    0  0.58865768924E+00  0.58703320488E+01 -0.62241981025E+01  0.85760106413E+01  0.51100000000E-03 0. -1.
        -11    1    3    3    0    0 -0.63848987423E+01 -0.10374336332E+02 -0.22833677777E+01  0.12393851498E+02  0.51100000000E-03 0.  1.
         12    1    3    3    0    0  0.24329879155E+02  0.29566713223E+02  0.17929870819E+01  0.38332079949E+02  0.00000000000E+00 0. -1.
</event>
<event>
 7    1  0.3802554E-013  0.5930193E+02  0.7816164E-02  0.1266605E+00
        -11   -1    0    0    0    0  0.00000000000E+00  0.00000000000E+00  0.45593999997E+02  0.45594000000E+02  0.51100000000E-03 0.  1.
         11   -1    0    0    0    0 -0.00000000000E+00 -0.00000000000E+00 -0.45593999997E+02  0.45594000000E+02  0.51100000000E-03 0. -1.
    9900012    2    1    2    0    0 -0.32690597223E+01 -0.23456720144E+02 -0.21349875250E+02  0.59301927106E+02  0.49999969139E+02 0.  0.
        -12    1    1    2    0    0  0.32690597223E+01  0.23456720144E+02  0.21349875250E+02  0.31886072894E+02  0.00000000000E+00 0.  1.
         11    1    3    3    0    0 -0.54759004044E+01  0.21599344815E+01  0.82595852066E+01  0.10142561326E+02  0.51100000000E-03 0.  1.
        -11    1    3    3    0    0  0.58400744190E+01 -0.12999063979E+02  0.25006243909E+01  0.14468422725E+02  0.51100000000E-03 0. -1.
        -12    1    3    3    0    0 -0.36332337370E+01 -0.12617590646E+02 -0.32110084848E+02  0.34690943055E+02  0.00000000000E+00 0.  1.
</event>
<event>
 7    1  0.3802554E-013  0.5930205E+02  0.7816164E-02  0.1266604E+00
        -11   -1    0    0    0    0  0.00000000000E+00  0.00000000000E+00  0.45593999997E+02  0.45594000000E+02  0.51100000000E-03 0. -1.
         11   -1    0    0    0    0 -0.00000000000E+00 -0.00000000000E+00 -0.45593999997E+02  0.45594000000E+02  0.51100000000E-03 0.  1.
    9900012    2    1    2    0    0 -0.30612649326E+02 -0.74779975841E+01 -0.48640755158E+01  0.59302047337E+02  0.50000188411E+02 0.  0.
        -12    1    1    2    0    0  0.30612649326E+02  0.74779975841E+01  0.48640755158E+01  0.31885952663E+02  0.00000000000E+00 0.  1.
         11    1    3    3    0    0 -0.98999364094E+01 -0.72096724454E+01  0.92425859731E+00  0.12281790256E+02  0.51100000000E-03 0. -1.
        -11    1    3    3    0    0 -0.14780338591E+02 -0.20371560879E+02  0.37904973711E+00  0.25171463614E+02  0.51100000000E-03 0.  1.
        -12    1    3    3    0    0 -0.59323743254E+01  0.20103235741E+02 -0.61673838502E+01  0.21848793467E+02  0.00000000000E+00 0.  1.
</event>
<event>
 7    1  0.3802554E-013  0.5930193E+02  0.7816164E-02  0.1266605E+00
        -11   -1    0    0    0    0  0.00000000000E+00  0.00000000000E+00  0.45593999997E+02  0.45594000000E+02  0.51100000000E-03 0. -1.
         11   -1    0    0    0    0 -0.00000000000E+00 -0.00000000000E+00 -0.45593999997E+02  0.45594000000E+02  0.51100000000E-03 0.  1.
    9900012    2    1    2    0    0 -0.25092709187E+02 -0.11717583271E+02 -0.15804293374E+02  0.59301929356E+02  0.49999973243E+02 0.  0.
        -12    1    1    2    0    0  0.25092709187E+02  0.11717583271E+02  0.15804293374E+02  0.31886070644E+02  0.00000000000E+00 0.  1.
         11    1    3    3    0    0 -0.20115667770E+02  0.80755765731E+01  0.21339084026E+01  0.21780922665E+02  0.51100000000E-03 0.  1.
        -11    1    3    3    0    0 -0.15326507355E+02 -0.11449174328E+02 -0.72328309572E+01  0.20452365741E+02  0.51100000000E-03 0. -1.
        -12    1    3    3    0    0  0.10349465938E+02 -0.83439855162E+01 -0.10705370819E+02  0.17068640950E+02  0.00000000000E+00 0.  1.
</event>
<event>
 7    1  0.3802554E-013  0.5930195E+02  0.7816164E-02  0.1266605E+00
        -11   -1    0    0    0    0  0.00000000000E+00  0.00000000000E+00  0.45593999997E+02  0.45594000000E+02  0.51100000000E-03 0. -1.
         11   -1    0    0    0    0 -0.00000000000E+00 -0.00000000000E+00 -0.45593999997E+02  0.45594000000E+02  0.51100000000E-03 0.  1.
    9900012    2    1    2    0    0  0.15248066573E+01 -0.18405826894E+02  0.25992702908E+02  0.59301951272E+02  0.50000013212E+02 0.  0.
        -12    1    1    2    0    0 -0.15248066573E+01  0.18405826894E+02 -0.25992702908E+02  0.31886048728E+02  0.00000000000E+00 0.  1.
         11    1    3    3    0    0  0.26100659010E+01  0.44581116680E+00 -0.42764868807E+00  0.26821773367E+01  0.51100000000E-03 0. -1.
        -11    1    3    3    0    0  0.18346490487E+02 -0.12500635373E+02 -0.12279314395E+01  0.22234374599E+02  0.51100000000E-03 0.  1.
         12    1    3    3    0    0 -0.19431749731E+02 -0.63510026882E+01  0.27648283036E+02  0.34385399337E+02  0.00000000000E+00 0. -1.
</event>
<event>
 7    1  0.3802554E-013  0.5930196E+02  0.7816164E-02  0.1266605E+00
        -11   -1    0    0    0    0  0.00000000000E+00  0.00000000000E+00  0.45593999997E+02  0.45594000000E+02  0.51100000000E-03 0. -1.
         11   -1    0    0    0    0 -0.00000000000E+00 -0.00000000000E+00 -0.45593999997E+02  0.45594000000E+02  0.51100000000E-03 0.  1.
    9900012    2    1    2    0    0 -0.78145896493E+00  0.14346089032E+02  0.28465740756E+02  0.59301963159E+02  0.50000034891E+02 0.  0.
        -12    1    1    2    0    0  0.78145896493E+00 -0.14346089032E+02 -0.28465740756E+02  0.31886036841E+02  0.00000000000E+00 0.  1.
         11    1    3    3    0    0 -0.84014067683E+01  0.24020941400E+01  0.86925951468E+01  0.12325376367E+02  0.51100000000E-03 0. -1.
        -11    1    3    3    0    0  0.50676132564E+01 -0.13790603825E+02  0.45908004674E+00  0.14699394978E+02  0.51100000000E-03 0.  1.
         12    1    3    3    0    0  0.25523345470E+01  0.25734598718E+02  0.19314065563E+02  0.32277191813E+02  0.00000000000E+00 0. -1.
</event>
<event>
 7    1  0.3802554E-013  0.5930197E+02  0.7816164E-02  0.1266605E+00
        -11   -1    0    0    0    0  0.00000000000E+00  0.00000000000E+00  0.45593999997E+02  0.45594000000E+02  0.51100000000E-03 0.  1.
         11   -1    0    0    0    0 -0.00000000000E+00 -0.00000000000E+00 -0.45593999997E+02  0.45594000000E+02  0.51100000000E-03 0. -1.
    9900012    2    1    2    0    0 -0.89947462258E-02 -0.30885026343E+02 -0.79267767489E+01  0.59301972923E+02  0.50000052699E+02 0.  0.
        -12    1    1    2    0    0  0.89947462258E-02  0.30885026343E+02  0.79267767489E+01  0.31886027077E+02  0.00000000000E+00 0.  1.
         11    1    3    3    0    0  0.11300090310E+02 -0.11632917985E+02 -0.12351136597E+02  0.20385470251E+02  0.51100000000E-03 0. -1.
        -11    1    3    3    0    0  0.48139017578E+01  0.24625092284E+00  0.11646843020E+02  0.12604889617E+02  0.51100000000E-03 0.  1.
         12    1    3    3    0    0 -0.16122986814E+02 -0.19498359281E+02 -0.72224831718E+01  0.26311613056E+02  0.00000000000E+00 0. -1.
</event>
<event>
 7    1  0.3802554E-013  0.5930192E+02  0.7816164E-02  0.1266605E+00
        -11   -1    0    0    0    0  0.00000000000E+00  0.00000000000E+00  0.45593999997E+02  0.45594000000E+02  0.51100000000E-03 0.  1.
         11   -1    0    0    0    0 -0.00000000000E+00 -0.00000000000E+00 -0.45593999997E+02  0.45594000000E+02  0.51100000000E-03 0. -1.
    9900012    2    1    2    0    0 -0.28595643745E+00  0.20539385311E+02 -0.24387988954E+02  0.59301919569E+02  0.49999955394E+02 0.  0.
        -12    1    1    2    0    0  0.28595643745E+00 -0.20539385311E+02  0.24387988954E+02  0.31886080431E+02  0.00000000000E+00 0.  1.
         11    1    3    3    0    0  0.76528116050E+01  0.82878967002E+00 -0.15202740299E+02  0.17040414626E+02  0.51100000000E-03 0. -1.
        -11    1    3    3    0    0 -0.12449074372E+02 -0.13394446988E+01 -0.15406476071E+02  0.19852784943E+02  0.51100000000E-03 0.  1.
        -12    1    3    3    0    0  0.45103063297E+01  0.21050040339E+02  0.62212274154E+01  0.22408720000E+02  0.00000000000E+00 0.  1.
</event>
<event>
 7    1  0.3802554E-013  0.5930201E+02  0.7816164E-02  0.1266605E+00
        -11   -1    0    0    0    0  0.00000000000E+00  0.00000000000E+00  0.45593999997E+02  0.45594000000E+02  0.51100000000E-03 0.  1.
         11   -1    0    0    0    0 -0.00000000000E+00 -0.00000000000E+00 -0.45593999997E+02  0.45594000000E+02  0.51100000000E-03 0. -1.
    9900012    2    1    2    0    0 -0.26125070242E+02 -0.83085478212E+01 -0.16283882080E+02  0.59302014401E+02  0.50000128343E+02 0.  0.
        -12    1    1    2    0    0  0.26125070242E+02  0.83085478212E+01  0.16283882080E+02  0.31885985599E+02  0.00000000000E+00 0.  1.
         11    1    3    3    0    0  0.81756976274E+01  0.56179733768E+01  0.19670231771E+01  0.10113003362E+02  0.51100000000E-03 0. -1.
        -11    1    3    3    0    0 -0.16236927689E+02 -0.11867114820E+02  0.39480057348E+01  0.20495194180E+02  0.51100000000E-03 0.  1.
         12    1    3    3    0    0 -0.18063840180E+02 -0.20594063779E+01 -0.22198910992E+02  0.28693816859E+02  0.00000000000E+00 0. -1.
</event>
<event>
 7    1  0.3802554E-013  0.5930194E+02  0.7816164E-02  0.1266605E+00
        -11   -1    0    0    0    0  0.00000000000E+00  0.00000000000E+00  0.45593999997E+02  0.45594000000E+02  0.51100000000E-03 0.  1.
         11   -1    0    0    0    0 -0.00000000000E+00 -0.00000000000E+00 -0.45593999997E+02  0.45594000000E+02  0.51100000000E-03 0. -1.
    9900012    2    1    2    0    0 -0.19402751251E+01  0.11173901367E+02 -0.29801004934E+02  0.59301942947E+02  0.49999998028E+02 0.  0.
        -12    1    1    2    0    0  0.19402751251E+01 -0.11173901367E+02  0.29801004934E+02  0.31886057053E+02  0.00000000000E+00 0.  1.
         11    1    3    3    0    0 -0.67683391497E+01 -0.10923832633E+02  0.69242823584E+01  0.14597473092E+02  0.51100000000E-03 0.  1.
        -11    1    3    3    0    0 -0.29280040453E+01  0.13584641570E+02 -0.18343960281E+02  0.23013399865E+02  0.51100000000E-03 0. -1.
        -12    1    3    3    0    0  0.77560680698E+01  0.85130924301E+01 -0.18381327011E+02  0.21691069990E+02  0.00000000000E+00 0.  1.
</event>
<event>
 7    1  0.3802554E-013  0.5930193E+02  0.7816164E-02  0.1266605E+00
        -11   -1    0    0    0    0  0.00000000000E+00  0.00000000000E+00  0.45593999997E+02  0.45594000000E+02  0.51100000000E-03 0.  1.
         11   -1    0    0    0    0 -0.00000000000E+00 -0.00000000000E+00 -0.45593999997E+02  0.45594000000E+02  0.51100000000E-03 0. -1.
    9900012    2    1    2    0    0 -0.15614693331E+02 -0.24030940144E+02 -0.13979162967E+02  0.59301925778E+02  0.49999966717E+02 0.  0.
        -12    1    1    2    0    0  0.15614693331E+02  0.24030940144E+02  0.13979162967E+02  0.31886074222E+02  0.00000000000E+00 0.  1.
         11    1    3    3    0    0 -0.83671323181E+01 -0.23880527651E+02  0.10938451500E+02  0.27566977085E+02  0.51100000000E-03 0. -1.
        -11    1    3    3    0    0  0.44654016384E+01 -0.47836045862E+01 -0.12147303653E+02  0.13797813991E+02  0.51100000000E-03 0.  1.
        -12    1    3    3    0    0 -0.11712962652E+02  0.46331920932E+01 -0.12770310814E+02  0.17937134703E+02  0.00000000000E+00 0.  1.
</event>
<event>
 7    1  0.3802554E-013  0.5930196E+02  0.7816164E-02  0.1266605E+00
        -11   -1    0    0    0    0  0.00000000000E+00  0.00000000000E+00  0.45593999997E+02  0.45594000000E+02  0.51100000000E-03 0.  1.
         11   -1    0    0    0    0 -0.00000000000E+00 -0.00000000000E+00 -0.45593999997E+02  0.45594000000E+02  0.51100000000E-03 0. -1.
    9900012    2    1    2    0    0 -0.14477033354E+02  0.88638833305E+01 -0.26991975059E+02  0.59301958540E+02  0.50000026467E+02 0.  0.
        -12    1    1    2    0    0  0.14477033354E+02 -0.88638833305E+01  0.26991975059E+02  0.31886041460E+02  0.00000000000E+00 0.  1.
         11    1    3    3    0    0  0.48168589256E+01  0.12891610327E+02  0.19261768246E+01  0.13896255041E+02  0.51100000000E-03 0. -1.
        -11    1    3    3    0    0 -0.75060731840E+01  0.12363641892E+02 -0.15287568824E+02  0.21045439798E+02  0.51100000000E-03 0.  1.
        -12    1    3    3    0    0 -0.11787819095E+02 -0.16391368889E+02 -0.13630583059E+02  0.24360263701E+02  0.00000000000E+00 0.  1.
</event>
<event>
 7    1  0.3802554E-013  0.5930192E+02  0.7816164E-02  0.1266605E+00
        -11   -1    0    0    0    0  0.00000000000E+00  0.00000000000E+00  0.45593999997E+02  0.45594000000E+02  0.51100000000E-03 0. -1.
         11   -1    0    0    0    0 -0.00000000000E+00 -0.00000000000E+00 -0.45593999997E+02  0.45594000000E+02  0.51100000000E-03 0.  1.
    9900012    2    1    2    0    0 -0.20555731219E+02 -0.18141452095E+01  0.24308284632E+02  0.59301922936E+02  0.49999961534E+02 0.  0.
        -12    1    1    2    0    0  0.20555731219E+02  0.18141452095E+01 -0.24308284632E+02  0.31886077064E+02  0.00000000000E+00 0.  1.
         11    1    3    3    0    0 -0.50701449284E+01  0.72425727915E+01 -0.11381957229E+02  0.14412153928E+02  0.51100000000E-03 0.  1.
        -11    1    3    3    0    0  0.27008956814E+01 -0.59558717331E+01  0.26670580855E+01  0.70626089143E+01  0.51100000000E-03 0. -1.
        -12    1    3    3    0    0 -0.18186481972E+02 -0.31008462678E+01  0.33023183775E+02  0.37827160093E+02  0.00000000000E+00 0.  1.
</event>
<event>
 7    1  0.3802554E-013  0.5930195E+02  0.7816164E-02  0.1266605E+00
        -11   -1    0    0    0    0  0.00000000000E+00  0.00000000000E+00  0.45593999997E+02  0.45594000000E+02  0.51100000000E-03 0. -1.
         11   -1    0    0    0    0 -0.00000000000E+00 -0.00000000000E+00 -0.45593999997E+02  0.45594000000E+02  0.51100000000E-03 0.  1.
    9900012    2    1    2    0    0 -0.23403982115E+02 -0.21378827384E+02  0.34524414863E+01  0.59301953030E+02  0.50000016419E+02 0.  0.
        -12    1    1    2    0    0  0.23403982115E+02  0.21378827384E+02 -0.34524414863E+01  0.31886046970E+02  0.00000000000E+00 0.  1.
         11    1    3    3    0    0 -0.91744960650E+01  0.99509061931E+01  0.60347296415E+00  0.13548287419E+02  0.51100000000E-03 0. -1.
        -11    1    3    3    0    0 -0.19047637470E+02 -0.96177809558E+01 -0.54374161125E+01  0.22019984059E+02  0.51100000000E-03 0.  1.
         12    1    3    3    0    0  0.48181514203E+01 -0.21711952621E+02  0.82863846347E+01  0.23733681552E+02  0.00000000000E+00 0. -1.
</event>
<event>
 7    1  0.3802554E-013  0.5930193E+02  0.7816164E-02  0.1266605E+00
        -11   -1    0    0    0    0  0.00000000000E+00  0.00000000000E+00  0.45593999997E+02  0.45594000000E+02  0.51100000000E-03 0. -1.
         11   -1    0    0    0    0 -0.00000000000E+00 -0.00000000000E+00 -0.45593999997E+02  0.45594000000E+02  0.51100000000E-03 0.  1.
    9900012    2    1    2    0    0 -0.94139944479E+01  0.77526733526E+01  0.29461742359E+02  0.59301929398E+02  0.49999973319E+02 0.  0.
        -12    1    1    2    0    0  0.94139944479E+01 -0.77526733526E+01 -0.29461742359E+02  0.31886070602E+02  0.00000000000E+00 0.  1.
         11    1    3    3    0    0 -0.16325781726E+02  0.16815790854E+01  0.17888776241E+02  0.24276885568E+02  0.51100000000E-03 0. -1.
        -11    1    3    3    0    0 -0.32708010252E+01  0.76524496445E+01  0.20032753359E+02  0.21692610086E+02  0.51100000000E-03 0.  1.
        -12    1    3    3    0    0  0.10182588304E+02 -0.15813553774E+01 -0.84597872412E+01  0.13332433745E+02  0.00000000000E+00 0.  1.
</event>
<event>
 7    1  0.3802554E-013  0.5930187E+02  0.7816164E-02  0.1266605E+00
        -11   -1    0    0    0    0  0.00000000000E+00  0.00000000000E+00  0.45593999997E+02  0.45594000000E+02  0.51100000000E-03 0.  1.
         11   -1    0    0    0    0 -0.00000000000E+00 -0.00000000000E+00 -0.45593999997E+02  0.45594000000E+02  0.51100000000E-03 0. -1.
    9900012    2    1    2    0    0  0.24663837903E+02  0.97254752105E+01 -0.17715399070E+02  0.59301872415E+02  0.49999869395E+02 0.  0.
        -12    1    1    2    0    0 -0.24663837903E+02 -0.97254752105E+01  0.17715399070E+02  0.31886127585E+02  0.00000000000E+00 0.  1.
         11    1    3    3    0    0  0.17281334333E+02  0.24702194047E+01 -0.25467996801E+02  0.30876615125E+02  0.51100000000E-03 0.  1.
        -11    1    3    3    0    0  0.10970701809E+01 -0.62187893099E+01 -0.56010193197E+01  0.84408720606E+01  0.51100000000E-03 0. -1.
        -12    1    3    3    0    0  0.62854333885E+01  0.13474045116E+02  0.13353617050E+02  0.19984385229E+02  0.00000000000E+00 0.  1.
</event>
<event>
 7    1  0.3802554E-013  0.5930194E+02  0.7816164E-02  0.1266605E+00
        -11   -1    0    0    0    0  0.00000000000E+00  0.00000000000E+00  0.45593999997E+02  0.45594000000E+02  0.51100000000E-03 0.  1.
         11   -1    0    0    0    0 -0.00000000000E+00 -0.00000000000E+00 -0.45593999997E+02  0.45594000000E+02  0.51100000000E-03 0. -1.
    9900012    2    1    2    0    0  0.44329286090E+01  0.28031469995E+02 -0.14536392349E+02  0.59301939273E+02  0.49999991328E+02 0.  0.
        -12    1    1    2    0    0 -0.44329286090E+01 -0.28031469995E+02  0.14536392349E+02  0.31886060727E+02  0.00000000000E+00 0.  1.
         11    1    3    3    0    0  0.12134850729E+01  0.13701379327E+02 -0.12206652339E+02  0.18390288282E+02  0.51100000000E-03 0. -1.
        -11    1    3    3    0    0  0.17396936088E+02  0.11554943086E+02 -0.11459473602E+02  0.23822040854E+02  0.51100000000E-03 0.  1.
        -12    1    3    3    0    0 -0.14177492552E+02  0.27751475822E+01  0.91297335925E+01  0.17089610137E+02  0.00000000000E+00 0.  1.
</event>
<event>
 7    1  0.3802554E-013  0.5930195E+02  0.7816164E-02  0.1266605E+00
        -11   -1    0    0    0    0  0.00000000000E+00  0.00000000000E+00  0.45593999997E+02  0.45594000000E+02  0.51100000000E-03 0.  1.
         11   -1    0    0    0    0 -0.00000000000E+00 -0.00000000000E+00 -0.45593999997E+02  0.45594000000E+02  0.51100000000E-03 0. -1.
    9900012    2    1    2    0    0 -0.23292649267E+02 -0.89132692678E+01 -0.19867726518E+02  0.59301946059E+02  0.50000003705E+02 0.  0.
        -12    1    1    2    0    0  0.23292649267E+02  0.89132692678E+01  0.19867726518E+02  0.31886053941E+02  0.00000000000E+00 0.  1.
         11    1    3    3    0    0  0.57178274474E+01 -0.40927901093E+01 -0.20795445354E+01  0.73327339603E+01  0.51100000000E-03 0. -1.
        -11    1    3    3    0    0  0.83212079751E+01  0.55719948941E+01 -0.25881393259E+01  0.10343504952E+02  0.51100000000E-03 0.  1.
         12    1    3    3    0    0 -0.37331684690E+02 -0.10392474053E+02 -0.15200042656E+02  0.41625707147E+02  0.00000000000E+00 0. -1.
</event>
<event>
 7    1  0.3802554E-013  0.5930194E+02  0.7816164E-02  0.1266605E+00
        -11   -1    0    0    0    0  0.00000000000E+00  0.00000000000E+00  0.45593999997E+02  0.45594000000E+02  0.51100000000E-03 0. -1.
         11   -1    0    0    0    0 -0.00000000000E+00 -0.00000000000E+00 -0.45593999997E+02  0.45594000000E+02  0.51100000000E-03 0.  1.
    9900012    2    1    2    0    0 -0.25059276813E+02  0.16362778213E+02  0.11000578104E+02  0.59301943740E+02  0.49999999475E+02 0.  0.
        -12    1    1    2    0    0  0.25059276813E+02 -0.16362778213E+02 -0.11000578104E+02  0.31886056260E+02  0.00000000000E+00 0.  1.
         11    1    3    3    0    0  0.47022866278E+01  0.77951441031E+01  0.91043499012E+01  0.12874974117E+02  0.51100000000E-03 0. -1.
        -11    1    3    3    0    0  0.20251542559E+00 -0.28636354619E+00  0.13196713147E+02  0.13201373214E+02  0.51100000000E-03 0.  1.
        -12    1    3    3    0    0 -0.29964078866E+02  0.88539976560E+01 -0.11300484945E+02  0.33225596409E+02  0.00000000000E+00 0.  1.
</event>
<event>
 7    1  0.3802554E-013  0.5930194E+02  0.7816164E-02  0.1266605E+00
        -11   -1    0    0    0    0  0.00000000000E+00  0.00000000000E+00  0.45593999997E+02  0.45594000000E+02  0.51100000000E-03 0. -1.
         11   -1    0    0    0    0 -0.00000000000E+00 -0.00000000000E+00 -0.45593999997E+02  0.45594000000E+02  0.51100000000E-03 0.  1.
    9900012    2    1    2    0    0 -0.23142458569E+02 -0.71738846947E+01  0.20728790479E+02  0.59301940900E+02  0.49999994295E+02 0.  0.
        -12    1    1    2    0    0  0.23142458569E+02  0.71738846947E+01 -0.20728790479E+02  0.31886059100E+02  0.00000000000E+00 0.  1.
         11    1    3    3    0    0  0.84975164956E+01 -0.25211713271E+01  0.12437041537E+02  0.15272330991E+02  0.51100000000E-03 0. -1.
        -11    1    3    3    0    0 -0.57160690724E+01  0.87109605449E+01 -0.54842158163E+01  0.11774162503E+02  0.51100000000E-03 0.  1.
        -12    1    3    3    0    0 -0.25923905992E+02 -0.13363673912E+02  0.13775964758E+02  0.32255447406E+02  0.00000000000E+00 0.  1.
</event>
<event>
 7    1  0.3802554E-013  0.5930192E+02  0.7816164E-02  0.1266605E+00
        -11   -1    0    0    0    0  0.00000000000E+00  0.00000000000E+00  0.45593999997E+02  0.45594000000E+02  0.51100000000E-03 0. -1.
         11   -1    0    0    0    0 -0.00000000000E+00 -0.00000000000E+00 -0.45593999997E+02  0.45594000000E+02  0.51100000000E-03 0.  1.
    9900012    2    1    2    0    0  0.15493823542E+02  0.24306804469E+02  0.13632427264E+02  0.59301915504E+02  0.49999947979E+02 0.  0.
        -12    1    1    2    0    0 -0.15493823542E+02 -0.24306804469E+02 -0.13632427264E+02  0.31886084496E+02  0.00000000000E+00 0.  1.
         11    1    3    3    0    0  0.70810778759E+00  0.92680408077E+01  0.57053370438E+01  0.10906368236E+02  0.51100000000E-03 0. -1.
        -11    1    3    3    0    0  0.28424847445E+02  0.18105430105E+02  0.67119923860E+01  0.34363198245E+02  0.51100000000E-03 0.  1.
        -12    1    3    3    0    0 -0.13639131691E+02 -0.30666664441E+01  0.12150978338E+01  0.14032349023E+02  0.00000000000E+00 0.  1.
</event>
<event>
 7    1  0.3802554E-013  0.5930194E+02  0.7816164E-02  0.1266605E+00
        -11   -1    0    0    0    0  0.00000000000E+00  0.00000000000E+00  0.45593999997E+02  0.45594000000E+02  0.51100000000E-03 0.  1.
         11   -1    0    0    0    0 -0.00000000000E+00 -0.00000000000E+00 -0.45593999997E+02  0.45594000000E+02  0.51100000000E-03 0. -1.
    9900012    2    1    2    0    0 -0.20720715813E+02 -0.22784968488E+02  0.82594115470E+01  0.59301941418E+02  0.49999995240E+02 0.  0.
        -12    1    1    2    0    0  0.20720715813E+02  0.22784968488E+02 -0.82594115470E+01  0.31886058582E+02  0.00000000000E+00 0.  1.
         11    1    3    3    0    0 -0.45153405920E+01 -0.40552073503E+00 -0.50621094160E+01  0.67954175537E+01  0.51100000000E-03 0. -1.
        -11    1    3    3    0    0 -0.13746247740E+02 -0.30488794352E+02 -0.35441962191E+01  0.33631640386E+02  0.51100000000E-03 0.  1.
        -12    1    3    3    0    0 -0.24591274808E+01  0.81093465994E+01  0.16865717182E+02  0.18874883478E+02  0.00000000000E+00 0.  1.
</event>
<event>
 7    1  0.3802554E-013  0.5930194E+02  0.7816164E-02  0.1266605E+00
        -11   -1    0    0    0    0  0.00000000000E+00  0.00000000000E+00  0.45593999997E+02  0.45594000000E+02  0.51100000000E-03 0.  1.
         11   -1    0    0    0    0 -0.00000000000E+00 -0.00000000000E+00 -0.45593999997E+02  0.45594000000E+02  0.51100000000E-03 0. -1.
    9900012    2    1    2    0    0 -0.58675869894E+01  0.29011822535E+02  0.11857758760E+02  0.59301939305E+02  0.49999991386E+02 0.  0.
        -12    1    1    2    0    0  0.58675869894E+01 -0.29011822535E+02 -0.11857758760E+02  0.31886060695E+02  0.00000000000E+00 0.  1.
         11    1    3    3    0    0 -0.47215579397E+01  0.91036406586E+01 -0.15773340073E+01  0.10375806737E+02  0.51100000000E-03 0. -1.
        -11    1    3    3    0    0 -0.20043026439E+02  0.16565209295E+02  0.92647273784E+00  0.26018981914E+02  0.51100000000E-03 0.  1.
         12    1    3    3    0    0  0.18896997390E+02  0.33429725810E+01  0.12508620029E+02  0.22907150653E+02  0.00000000000E+00 0. -1.
</event>
<event>
 7    1  0.3802554E-013  0.5930192E+02  0.7816164E-02  0.1266605E+00
        -11   -1    0    0    0    0  0.00000000000E+00  0.00000000000E+00  0.45593999997E+02  0.45594000000E+02  0.51100000000E-03 0.  1.
         11   -1    0    0    0    0 -0.00000000000E+00 -0.00000000000E+00 -0.45593999997E+02  0.45594000000E+02  0.51100000000E-03 0. -1.
    9900012    2    1    2    0    0 -0.25336160393E+02  0.10409130866E+02 -0.16323336451E+02  0.59301916174E+02  0.49999949202E+02 0.  0.
        -12    1    1    2    0    0  0.25336160393E+02 -0.10409130866E+02  0.16323336451E+02  0.31886083826E+02  0.00000000000E+00 0.  1.
         11    1    3    3    0    0 -0.90349819398E+01 -0.26938166720E+00 -0.22686080874E+02  0.24420518644E+02  0.51100000000E-03 0.  1.
        -11    1    3    3    0    0 -0.13882593849E+02 -0.74526891738E+01  0.86079168094E+00  0.15780049128E+02  0.51100000000E-03 0. -1.
        -12    1    3    3    0    0 -0.24185846039E+01  0.18131201707E+02  0.55019527420E+01  0.19101348403E+02  0.00000000000E+00 0.  1.
</event>
<event>
 7    1  0.3802554E-013  0.5930185E+02  0.7816164E-02  0.1266605E+00
        -11   -1    0    0    0    0  0.00000000000E+00  0.00000000000E+00  0.45593999997E+02  0.45594000000E+02  0.51100000000E-03 0.  1.
         11   -1    0    0    0    0 -0.00000000000E+00 -0.00000000000E+00 -0.45593999997E+02  0.45594000000E+02  0.51100000000E-03 0. -1.
    9900012    2    1    2    0    0 -0.23983407851E+02  0.20628333257E+02 -0.39993517474E+01  0.59301846273E+02  0.49999821719E+02 0.  0.
        -12    1    1    2    0    0  0.23983407851E+02 -0.20628333257E+02  0.39993517474E+01  0.31886153727E+02  0.00000000000E+00 0.  1.
         11    1    3    3    0    0 -0.74586821262E+01 -0.10768890151E+02  0.53132412333E+01  0.14136175820E+02  0.51100000000E-03 0. -1.
        -11    1    3    3    0    0 -0.12423990337E+02  0.85444347889E+01 -0.14992160823E+02  0.21263296738E+02  0.51100000000E-03 0.  1.
        -12    1    3    3    0    0 -0.41007353877E+01  0.22852788618E+02  0.56795678424E+01  0.23902373716E+02  0.00000000000E+00 0.  1.
</event>
<event>
 7    1  0.3802554E-013  0.5930194E+02  0.7816164E-02  0.1266605E+00
        -11   -1    0    0    0    0  0.00000000000E+00  0.00000000000E+00  0.45593999997E+02  0.45594000000E+02  0.51100000000E-03 0. -1.
         11   -1    0    0    0    0 -0.00000000000E+00 -0.00000000000E+00 -0.45593999997E+02  0.45594000000E+02  0.51100000000E-03 0.  1.
    9900012    2    1    2    0    0 -0.30258236557E+02  0.87297971594E+01  0.49950292903E+01  0.59301944182E+02  0.50000000282E+02 0.  0.
        -12    1    1    2    0    0  0.30258236557E+02 -0.87297971594E+01 -0.49950292903E+01  0.31886055818E+02  0.00000000000E+00 0.  1.
         11    1    3    3    0    0 -0.20566105754E+01  0.11478507564E+02 -0.27908025055E+00  0.11664633256E+02  0.51100000000E-03 0. -1.
        -11    1    3    3    0    0 -0.14161310261E+02  0.17514647199E+02  0.51173452994E+00  0.22529257584E+02  0.51100000000E-03 0.  1.
        -12    1    3    3    0    0 -0.14040315721E+02 -0.20263357603E+02  0.47623750109E+01  0.25108053342E+02  0.00000000000E+00 0.  1.
</event>
<event>
 7    1  0.3802554E-013  0.5930196E+02  0.7816164E-02  0.1266605E+00
        -11   -1    0    0    0    0  0.00000000000E+00  0.00000000000E+00  0.45593999997E+02  0.45594000000E+02  0.51100000000E-03 0. -1.
         11   -1    0    0    0    0 -0.00000000000E+00 -0.00000000000E+00 -0.45593999997E+02  0.45594000000E+02  0.51100000000E-03 0.  1.
    9900012    2    1    2    0    0  0.17405852027E+01 -0.56068849861E+01  0.31340912561E+02  0.59301959226E+02  0.50000027717E+02 0.  0.
        -12    1    1    2    0    0 -0.17405852027E+01  0.56068849861E+01 -0.31340912561E+02  0.31886040774E+02  0.00000000000E+00 0.  1.
         11    1    3    3    0    0  0.64359791773E+01 -0.14448404390E+02  0.76894148866E+01  0.17587078181E+02  0.51100000000E-03 0. -1.
        -11    1    3    3    0    0  0.90523339850E+01 -0.68803630707E+01  0.18424033845E+01  0.11518619581E+02  0.51100000000E-03 0.  1.
        -12    1    3    3    0    0 -0.13747727960E+02  0.15721882475E+02  0.21809094290E+02  0.30196261463E+02  0.00000000000E+00 0.  1.
</event>
<event>
 7    1  0.3802554E-013  0.5930197E+02  0.7816164E-02  0.1266605E+00
        -11   -1    0    0    0    0  0.00000000000E+00  0.00000000000E+00  0.45593999997E+02  0.45594000000E+02  0.51100000000E-03 0.  1.
         11   -1    0    0    0    0 -0.00000000000E+00 -0.00000000000E+00 -0.45593999997E+02  0.45594000000E+02  0.51100000000E-03 0. -1.
    9900012    2    1    2    0    0  0.67463715276E+01  0.28831540547E+02 -0.11829953091E+02  0.59301967803E+02  0.50000043361E+02 0.  0.
        -12    1    1    2    0    0 -0.67463715276E+01 -0.28831540547E+02  0.11829953091E+02  0.31886032197E+02  0.00000000000E+00 0.  1.
         11    1    3    3    0    0  0.16225688187E+02  0.20848515644E+02 -0.40864802109E+01  0.26732618324E+02  0.51100000000E-03 0. -1.
        -11    1    3    3    0    0  0.12688060367E+01  0.74044767908E+01  0.95800030708E+01  0.12174259912E+02  0.51100000000E-03 0.  1.
         12    1    3    3    0    0 -0.10748122696E+02  0.57854811242E+00 -0.17323475951E+02  0.20395089567E+02  0.00000000000E+00 0. -1.
</event>
<event>
 7    1  0.3802554E-013  0.5930178E+02  0.7816164E-02  0.1266605E+00
        -11   -1    0    0    0    0  0.00000000000E+00  0.00000000000E+00  0.45593999997E+02  0.45594000000E+02  0.51100000000E-03 0. -1.
         11   -1    0    0    0    0 -0.00000000000E+00 -0.00000000000E+00 -0.45593999997E+02  0.45594000000E+02  0.51100000000E-03 0.  1.
    9900012    2    1    2    0    0 -0.14129349879E+02  0.28319038783E+02  0.38890463706E+01  0.59301777783E+02  0.49999696809E+02 0.  0.
        -12    1    1    2    0    0  0.14129349879E+02 -0.28319038783E+02 -0.38890463706E+01  0.31886222217E+02  0.00000000000E+00 0.  1.
         11    1    3    3    0    0 -0.21291969573E+02 -0.70170549057E+00  0.32578273441E+01  0.21551190180E+02  0.51100000000E-03 0. -1.
        -11    1    3    3    0    0 -0.69144021167E+01  0.14087820237E+02  0.55528692267E+01  0.16646621056E+02  0.51100000000E-03 0.  1.
        -12    1    3    3    0    0  0.14077021811E+02  0.14932924037E+02 -0.49216502002E+01  0.21103966548E+02  0.00000000000E+00 0.  1.
</event>
<event>
 7    1  0.3802554E-013  0.5930193E+02  0.7816164E-02  0.1266605E+00
        -11   -1    0    0    0    0  0.00000000000E+00  0.00000000000E+00  0.45593999997E+02  0.45594000000E+02  0.51100000000E-03 0. -1.
         11   -1    0    0    0    0 -0.00000000000E+00 -0.00000000000E+00 -0.45593999997E+02  0.45594000000E+02  0.51100000000E-03 0.  1.
    9900012    2    1    2    0    0 -0.17360212342E+02  0.49490108746E+01  0.26284064087E+02  0.59301926142E+02  0.49999967380E+02 0.  0.
        -12    1    1    2    0    0  0.17360212342E+02 -0.49490108746E+01 -0.26284064087E+02  0.31886073858E+02  0.00000000000E+00 0.  1.
         11    1    3    3    0    0 -0.88636331958E+01 -0.10271138415E+02  0.20033714020E+02  0.24195246960E+02  0.51100000000E-03 0. -1.
        -11    1    3    3    0    0  0.24525922278E+01 -0.31655094946E+01 -0.83095458271E+01  0.92241103154E+01  0.51100000000E-03 0.  1.
         12    1    3    3    0    0 -0.10949171374E+02  0.18385658784E+02  0.14559895894E+02  0.25882568866E+02  0.00000000000E+00 0. -1.
</event>
<event>
 7    1  0.3802554E-013  0.5930194E+02  0.7816164E-02  0.1266605E+00
        -11   -1    0    0    0    0  0.00000000000E+00  0.00000000000E+00  0.45593999997E+02  0.45594000000E+02  0.51100000000E-03 0. -1.
         11   -1    0    0    0    0 -0.00000000000E+00 -0.00000000000E+00 -0.45593999997E+02  0.45594000000E+02  0.51100000000E-03 0.  1.
    9900012    2    1    2    0    0 -0.12637085091E+02  0.18988884076E+02  0.22281090024E+02  0.59301943319E+02  0.49999998707E+02 0.  0.
        -12    1    1    2    0    0  0.12637085091E+02 -0.18988884076E+02 -0.22281090024E+02  0.31886056681E+02  0.00000000000E+00 0.  1.
         11    1    3    3    0    0 -0.94293498237E+00  0.19419509360E+02  0.26173285235E+02  0.32604406610E+02  0.51100000000E-03 0. -1.
        -11    1    3    3    0    0 -0.99178807968E+01 -0.34397833654E+01  0.86971795165E+01  0.13632219222E+02  0.51100000000E-03 0.  1.
        -12    1    3    3    0    0 -0.17762693116E+01  0.30091580815E+01 -0.12589374727E+02  0.13065317487E+02  0.00000000000E+00 0.  1.
</event>
<event>
 7    1  0.3802554E-013  0.5930192E+02  0.7816164E-02  0.1266605E+00
        -11   -1    0    0    0    0  0.00000000000E+00  0.00000000000E+00  0.45593999997E+02  0.45594000000E+02  0.51100000000E-03 0.  1.
         11   -1    0    0    0    0 -0.00000000000E+00 -0.00000000000E+00 -0.45593999997E+02  0.45594000000E+02  0.51100000000E-03 0. -1.
    9900012    2    1    2    0    0 -0.14164669535E+02  0.54233280252E+01 -0.28047664399E+02  0.59301924228E+02  0.49999963890E+02 0.  0.
        -12    1    1    2    0    0  0.14164669535E+02 -0.54233280252E+01  0.28047664399E+02  0.31886075772E+02  0.00000000000E+00 0.  1.
         11    1    3    3    0    0  0.11153401602E+02 -0.93093428679E+01 -0.94663355592E+01  0.17339946399E+02  0.51100000000E-03 0.  1.
        -11    1    3    3    0    0  0.40422758462E+01  0.12590660784E+01  0.77261027783E+00  0.43037388756E+01  0.51100000000E-03 0. -1.
         12    1    3    3    0    0 -0.29360346984E+02  0.13473604815E+02 -0.19353939118E+02  0.37658238953E+02  0.00000000000E+00 0. -1.
</event>
<event>
 7    1  0.3802554E-013  0.5930194E+02  0.7816164E-02  0.1266605E+00
        -11   -1    0    0    0    0  0.00000000000E+00  0.00000000000E+00  0.45593999997E+02  0.45594000000E+02  0.51100000000E-03 0.  1.
         11   -1    0    0    0    0 -0.00000000000E+00 -0.00000000000E+00 -0.45593999997E+02  0.45594000000E+02  0.51100000000E-03 0. -1.
    9900012    2    1    2    0    0  0.74456607886E+01  0.49176445034E+01 -0.30612088342E+02  0.59301936513E+02  0.49999986295E+02 0.  0.
        -12    1    1    2    0    0 -0.74456607886E+01 -0.49176445034E+01  0.30612088342E+02  0.31886063487E+02  0.00000000000E+00 0.  1.
         11    1    3    3    0    0  0.23259259609E+02 -0.35148074154E+01 -0.61061628526E+01  0.24302926856E+02  0.51100000000E-03 0.  1.
        -11    1    3    3    0    0  0.37072669283E+01  0.17446243999E+01 -0.23542897077E+01  0.47254865001E+01  0.51100000000E-03 0. -1.
        -12    1    3    3    0    0 -0.19520865749E+02  0.66878275189E+01 -0.22151635781E+02  0.30273523157E+02  0.00000000000E+00 0.  1.
</event>
<event>
 7    1  0.3802554E-013  0.5930202E+02  0.7816164E-02  0.1266604E+00
        -11   -1    0    0    0    0  0.00000000000E+00  0.00000000000E+00  0.45593999997E+02  0.45594000000E+02  0.51100000000E-03 0.  1.
         11   -1    0    0    0    0 -0.00000000000E+00 -0.00000000000E+00 -0.45593999997E+02  0.45594000000E+02  0.51100000000E-03 0. -1.
    9900012    2    1    2    0    0  0.57279824652E+01 -0.31366863261E+02 -0.16070936220E+00  0.59302019986E+02  0.50000138529E+02 0.  0.
        -12    1    1    2    0    0 -0.57279824652E+01  0.31366863261E+02  0.16070936220E+00  0.31885980014E+02  0.00000000000E+00 0.  1.
         11    1    3    3    0    0  0.87361161909E+01 -0.70061090524E+01  0.21384509738E+01  0.11400800980E+02  0.51100000000E-03 0. -1.
        -11    1    3    3    0    0  0.12629446299E+02  0.53292840466E+01  0.27096310469E+01  0.13973055605E+02  0.51100000000E-03 0.  1.
         12    1    3    3    0    0 -0.15637580025E+02 -0.29690038255E+02 -0.50087913829E+01  0.33928163401E+02  0.00000000000E+00 0. -1.
</event>
<event>
 7    1  0.3802554E-013  0.5930215E+02  0.7816164E-02  0.1266604E+00
        -11   -1    0    0    0    0  0.00000000000E+00  0.00000000000E+00  0.45593999997E+02  0.45594000000E+02  0.51100000000E-03 0.  1.
         11   -1    0    0    0    0 -0.00000000000E+00 -0.00000000000E+00 -0.45593999997E+02  0.45594000000E+02  0.51100000000E-03 0. -1.
    9900012    2    1    2    0    0 -0.76501207879E+00  0.18478513206E+01 -0.31823069059E+02  0.59302148556E+02  0.50000373008E+02 0.  0.
        -12    1    1    2    0    0  0.76501207879E+00 -0.18478513206E+01  0.31823069059E+02  0.31885851444E+02  0.00000000000E+00 0.  1.
         11    1    3    3    0    0  0.82067061974E+01 -0.66786172672E+01 -0.23885362185E+02  0.26124021171E+02  0.51100000000E-03 0. -1.
        -11    1    3    3    0    0 -0.78842434695E+01 -0.10279556863E+02 -0.62160636313E+00  0.12969848847E+02  0.51100000000E-03 0.  1.
        -12    1    3    3    0    0 -0.10874748067E+01  0.18806025451E+02 -0.73161005115E+01  0.20208278537E+02  0.00000000000E+00 0.  1.
</event>
<event>
 7    1  0.3802554E-013  0.5930192E+02  0.7816164E-02  0.1266605E+00
        -11   -1    0    0    0    0  0.00000000000E+00  0.00000000000E+00  0.45593999997E+02  0.45594000000E+02  0.51100000000E-03 0. -1.
         11   -1    0    0    0    0 -0.00000000000E+00 -0.00000000000E+00 -0.45593999997E+02  0.45594000000E+02  0.51100000000E-03 0.  1.
    9900012    2    1    2    0    0  0.68198773137E+01  0.26795960108E+02  0.15880424287E+02  0.59301920275E+02  0.49999956681E+02 0.  0.
        -12    1    1    2    0    0 -0.68198773137E+01 -0.26795960108E+02 -0.15880424287E+02  0.31886079725E+02  0.00000000000E+00 0.  1.
         11    1    3    3    0    0  0.18361952917E+02  0.74517893750E+01  0.84752248839E+01  0.21552724118E+02  0.51100000000E-03 0. -1.
        -11    1    3    3    0    0  0.85448764025E+01  0.73882672677E+00 -0.19860998794E+01  0.88037134584E+01  0.51100000000E-03 0.  1.
        -12    1    3    3    0    0 -0.20086952006E+02  0.18605344006E+02  0.93912992820E+01  0.28945482699E+02  0.00000000000E+00 0.  1.
</event>
<event>
 7    1  0.3802554E-013  0.5930195E+02  0.7816164E-02  0.1266605E+00
        -11   -1    0    0    0    0  0.00000000000E+00  0.00000000000E+00  0.45593999997E+02  0.45594000000E+02  0.51100000000E-03 0.  1.
         11   -1    0    0    0    0 -0.00000000000E+00 -0.00000000000E+00 -0.45593999997E+02  0.45594000000E+02  0.51100000000E-03 0. -1.
    9900012    2    1    2    0    0 -0.19272457245E+02 -0.12409048233E+02 -0.22165467803E+02  0.59301952123E+02  0.50000014763E+02 0.  0.
        -12    1    1    2    0    0  0.19272457245E+02  0.12409048233E+02  0.22165467803E+02  0.31886047877E+02  0.00000000000E+00 0.  1.
         11    1    3    3    0    0  0.14595536819E+01 -0.52619633188E+01 -0.22797349146E+01  0.59174104523E+01  0.51100000000E-03 0. -1.
        -11    1    3    3    0    0 -0.79557405434E-02 -0.51237495891E+01  0.13274305531E+02  0.14228846079E+02  0.51100000000E-03 0.  1.
         12    1    3    3    0    0 -0.20724055186E+02 -0.20233353250E+01 -0.33160038420E+02  0.39155695591E+02  0.00000000000E+00 0. -1.
</event>
<event>
 7    1  0.3802554E-013  0.5930195E+02  0.7816164E-02  0.1266605E+00
        -11   -1    0    0    0    0  0.00000000000E+00  0.00000000000E+00  0.45593999997E+02  0.45594000000E+02  0.51100000000E-03 0.  1.
         11   -1    0    0    0    0 -0.00000000000E+00 -0.00000000000E+00 -0.45593999997E+02  0.45594000000E+02  0.51100000000E-03 0. -1.
    9900012    2    1    2    0    0  0.10294492121E+02 -0.30068522318E+02  0.25744660684E+01  0.59301945400E+02  0.50000002502E+02 0.  0.
        -12    1    1    2    0    0 -0.10294492121E+02  0.30068522318E+02 -0.25744660684E+01  0.31886054600E+02  0.00000000000E+00 0.  1.
         11    1    3    3    0    0  0.14856898806E+02 -0.13191581788E+02  0.26070123780E-01  0.19868214618E+02  0.51100000000E-03 0. -1.
        -11    1    3    3    0    0  0.12683507603E+02  0.23522221865E+01 -0.24348331486E+01  0.13127556020E+02  0.51100000000E-03 0.  1.
         12    1    3    3    0    0 -0.17245914288E+02 -0.19229162717E+02  0.49832290932E+01  0.26306174762E+02  0.00000000000E+00 0. -1.
</event>
<event>
 7    1  0.3802554E-013  0.5930202E+02  0.7816164E-02  0.1266605E+00
        -11   -1    0    0    0    0  0.00000000000E+00  0.00000000000E+00  0.45593999997E+02  0.45594000000E+02  0.51100000000E-03 0. -1.
         11   -1    0    0    0    0 -0.00000000000E+00 -0.00000000000E+00 -0.45593999997E+02  0.45594000000E+02  0.51100000000E-03 0.  1.
    9900012    2    1    2    0    0 -0.28636997915E+02  0.12255492758E+02  0.68147719670E+01  0.59302017668E+02  0.50000134301E+02 0.  0.
        -12    1    1    2    0    0  0.28636997915E+02 -0.12255492758E+02 -0.68147719670E+01  0.31885982332E+02  0.00000000000E+00 0.  1.
         11    1    3    3    0    0  0.64407312767E-02  0.99853322863E+01 -0.13219012567E+01  0.10072453800E+02  0.51100000000E-03 0. -1.
        -11    1    3    3    0    0 -0.26640573315E+02  0.17982489766E+02  0.18719024145E+01  0.32196181507E+02  0.51100000000E-03 0.  1.
         12    1    3    3    0    0 -0.20028653312E+01 -0.15712329294E+02  0.62647708092E+01  0.17033382361E+02  0.00000000000E+00 0. -1.
</event>
<event>
 7    1  0.3802554E-013  0.5930195E+02  0.7816164E-02  0.1266605E+00
        -11   -1    0    0    0    0  0.00000000000E+00  0.00000000000E+00  0.45593999997E+02  0.45594000000E+02  0.51100000000E-03 0. -1.
         11   -1    0    0    0    0 -0.00000000000E+00 -0.00000000000E+00 -0.45593999997E+02  0.45594000000E+02  0.51100000000E-03 0.  1.
    9900012    2    1    2    0    0 -0.68828907593E+01 -0.15022532587E+02  0.27270307475E+02  0.59301947558E+02  0.50000006439E+02 0.  0.
        -12    1    1    2    0    0  0.68828907593E+01  0.15022532587E+02 -0.27270307475E+02  0.31886052442E+02  0.00000000000E+00 0.  1.
         11    1    3    3    0    0  0.74099112915E+00  0.98431719560E+01  0.28998046343E+02  0.30632071330E+02  0.51100000000E-03 0. -1.
        -11    1    3    3    0    0  0.24086748333E+00 -0.14828942259E+01  0.31794654450E+01  0.35165314170E+01  0.51100000000E-03 0.  1.
        -12    1    3    3    0    0 -0.78647493718E+01 -0.23382810318E+02 -0.49072043127E+01  0.25153344811E+02  0.00000000000E+00 0.  1.
</event>
<event>
 7    1  0.3802554E-013  0.5930193E+02  0.7816164E-02  0.1266605E+00
        -11   -1    0    0    0    0  0.00000000000E+00  0.00000000000E+00  0.45593999997E+02  0.45594000000E+02  0.51100000000E-03 0.  1.
         11   -1    0    0    0    0 -0.00000000000E+00 -0.00000000000E+00 -0.45593999997E+02  0.45594000000E+02  0.51100000000E-03 0. -1.
    9900012    2    1    2    0    0  0.13912204088E+02  0.27135658307E+02 -0.93181532917E+01  0.59301931646E+02  0.49999977418E+02 0.  0.
        -12    1    1    2    0    0 -0.13912204088E+02 -0.27135658307E+02  0.93181532917E+01  0.31886068354E+02  0.00000000000E+00 0.  1.
         11    1    3    3    0    0  0.39275754270E+01 -0.63153419552E+01 -0.20445381469E+02  0.21755988059E+02  0.51100000000E-03 0. -1.
        -11    1    3    3    0    0 -0.25922573326E+00 -0.35023697383E+00  0.49816213102E+00  0.66183811353E+00  0.51100000000E-03 0.  1.
        -12    1    3    3    0    0  0.10243854394E+02  0.33801237236E+02  0.10629066046E+02  0.36884105473E+02  0.00000000000E+00 0.  1.
</event>
<event>
 7    1  0.3802554E-013  0.5930194E+02  0.7816164E-02  0.1266605E+00
        -11   -1    0    0    0    0  0.00000000000E+00  0.00000000000E+00  0.45593999997E+02  0.45594000000E+02  0.51100000000E-03 0.  1.
         11   -1    0    0    0    0 -0.00000000000E+00 -0.00000000000E+00 -0.45593999997E+02  0.45594000000E+02  0.51100000000E-03 0. -1.
    9900012    2    1    2    0    0 -0.21957786099E+02  0.45652858654E+01 -0.22665714425E+02  0.59301940102E+02  0.49999992841E+02 0.  0.
        -12    1    1    2    0    0  0.21957786099E+02 -0.45652858654E+01  0.22665714425E+02  0.31886059898E+02  0.00000000000E+00 0.  1.
         11    1    3    3    0    0 -0.26819533149E+02  0.17043530939E+01 -0.30140423459E+01  0.27042126938E+02  0.51100000000E-03 0. -1.
        -11    1    3    3    0    0 -0.44816135200E+01 -0.29242754657E+01 -0.20548507428E+02  0.21233873987E+02  0.51100000000E-03 0.  1.
        -12    1    3    3    0    0  0.93433605700E+01  0.57852082371E+01  0.89683534855E+00  0.11025939177E+02  0.00000000000E+00 0.  1.
</event>
<event>
 7    1  0.3802554E-013  0.5930193E+02  0.7816164E-02  0.1266605E+00
        -11   -1    0    0    0    0  0.00000000000E+00  0.00000000000E+00  0.45593999997E+02  0.45594000000E+02  0.51100000000E-03 0.  1.
         11   -1    0    0    0    0 -0.00000000000E+00 -0.00000000000E+00 -0.45593999997E+02  0.45594000000E+02  0.51100000000E-03 0. -1.
    9900012    2    1    2    0    0 -0.25761565539E+02  0.59379240165E+01 -0.17827061883E+02  0.59301931945E+02  0.49999977964E+02 0.  0.
        -12    1    1    2    0    0  0.25761565539E+02 -0.59379240165E+01  0.17827061883E+02  0.31886068055E+02  0.00000000000E+00 0.  1.
         11    1    3    3    0    0 -0.54442411277E+01 -0.81078316862E+01  0.65207556688E+01  0.11742953243E+02  0.51100000000E-03 0. -1.
        -11    1    3    3    0    0 -0.21209283179E+02  0.23227309217E+02 -0.16923110666E+02  0.35717408379E+02  0.51100000000E-03 0.  1.
         12    1    3    3    0    0  0.89195876779E+00 -0.91815535143E+01 -0.74247068854E+01  0.11841570323E+02  0.00000000000E+00 0. -1.
</event>
<event>
 7    1  0.3802554E-013  0.5930188E+02  0.7816164E-02  0.1266605E+00
        -11   -1    0    0    0    0  0.00000000000E+00  0.00000000000E+00  0.45593999997E+02  0.45594000000E+02  0.51100000000E-03 0.  1.
         11   -1    0    0    0    0 -0.00000000000E+00 -0.00000000000E+00 -0.45593999997E+02  0.45594000000E+02  0.51100000000E-03 0. -1.
    9900012    2    1    2    0    0 -0.37917801229E+01  0.14057848663E+02 -0.28367658715E+02  0.59301878152E+02  0.49999879859E+02 0.  0.
        -12    1    1    2    0    0  0.37917801229E+01 -0.14057848663E+02  0.28367658715E+02  0.31886121848E+02  0.00000000000E+00 0.  1.
         11    1    3    3    0    0 -0.61778697331E+01 -0.36043613435E+01  0.17852817680E+01  0.73718875728E+01  0.51100000000E-03 0. -1.
        -11    1    3    3    0    0 -0.17567112947E+02  0.58441521010E+01 -0.91900968472E+01  0.20669190874E+02  0.51100000000E-03 0.  1.
         12    1    3    3    0    0  0.19953202557E+02  0.11818057905E+02 -0.20962843635E+02  0.31260799705E+02  0.00000000000E+00 0. -1.
</event>
<event>
 7    1  0.3802554E-013  0.5930183E+02  0.7816164E-02  0.1266605E+00
        -11   -1    0    0    0    0  0.00000000000E+00  0.00000000000E+00  0.45593999997E+02  0.45594000000E+02  0.51100000000E-03 0.  1.
         11   -1    0    0    0    0 -0.00000000000E+00 -0.00000000000E+00 -0.45593999997E+02  0.45594000000E+02  0.51100000000E-03 0. -1.
    9900012    2    1    2    0    0 -0.23319925233E+02  0.61363028139E+01 -0.20862760655E+02  0.59301828903E+02  0.49999790040E+02 0.  0.
        -12    1    1    2    0    0  0.23319925233E+02 -0.61363028139E+01  0.20862760655E+02  0.31886171097E+02  0.00000000000E+00 0.  1.
         11    1    3    3    0    0  0.51841624432E+01 -0.23344017507E+01  0.41980361193E+01  0.70674238086E+01  0.51100000000E-03 0. -1.
        -11    1    3    3    0    0 -0.16603434930E+02 -0.12379709398E+02 -0.59479909473E+01  0.21547850306E+02  0.51100000000E-03 0.  1.
         12    1    3    3    0    0 -0.11900652746E+02  0.20850413963E+02 -0.19112805827E+02  0.30686554788E+02  0.00000000000E+00 0. -1.
</event>
<event>
 7    1  0.3802554E-013  0.5930195E+02  0.7816164E-02  0.1266605E+00
        -11   -1    0    0    0    0  0.00000000000E+00  0.00000000000E+00  0.45593999997E+02  0.45594000000E+02  0.51100000000E-03 0.  1.
         11   -1    0    0    0    0 -0.00000000000E+00 -0.00000000000E+00 -0.45593999997E+02  0.45594000000E+02  0.51100000000E-03 0. -1.
    9900012    2    1    2    0    0  0.17387669800E+02 -0.15343881386E+02  0.21885031276E+02  0.59301947390E+02  0.50000006133E+02 0.  0.
        -12    1    1    2    0    0 -0.17387669800E+02  0.15343881386E+02 -0.21885031276E+02  0.31886052610E+02  0.00000000000E+00 0.  1.
         11    1    3    3    0    0  0.81211174229E+01 -0.81011429986E+01 -0.18919155145E-01  0.11470894659E+02  0.51100000000E-03 0. -1.
        -11    1    3    3    0    0  0.16449248681E+02 -0.53930175425E+01 -0.64877156253E+01  0.18486559298E+02  0.51100000000E-03 0.  1.
        -12    1    3    3    0    0 -0.71826963038E+01 -0.18497208451E+01  0.28391666057E+02  0.29344493434E+02  0.00000000000E+00 0.  1.
</event>
<event>
 7    1  0.3802554E-013  0.5930193E+02  0.7816164E-02  0.1266605E+00
        -11   -1    0    0    0    0  0.00000000000E+00  0.00000000000E+00  0.45593999997E+02  0.45594000000E+02  0.51100000000E-03 0. -1.
         11   -1    0    0    0    0 -0.00000000000E+00 -0.00000000000E+00 -0.45593999997E+02  0.45594000000E+02  0.51100000000E-03 0.  1.
    9900012    2    1    2    0    0  0.26726915194E+02  0.11923493933E+01  0.17348543445E+02  0.59301926981E+02  0.49999968911E+02 0.  0.
        -12    1    1    2    0    0 -0.26726915194E+02 -0.11923493933E+01 -0.17348543445E+02  0.31886073019E+02  0.00000000000E+00 0.  1.
         11    1    3    3    0    0  0.12753858672E+02 -0.10004038953E+01 -0.43762465833E+00  0.12800516965E+02  0.51100000000E-03 0. -1.
        -11    1    3    3    0    0  0.22501251216E+02  0.20711740424E+01 -0.41420628363E+01  0.22972869934E+02  0.51100000000E-03 0.  1.
         12    1    3    3    0    0 -0.85281946935E+01  0.12157924613E+00  0.21928230940E+02  0.23528540082E+02  0.00000000000E+00 0. -1.
</event>
<event>
 7    1  0.3802554E-013  0.5930193E+02  0.7816164E-02  0.1266605E+00
        -11   -1    0    0    0    0  0.00000000000E+00  0.00000000000E+00  0.45593999997E+02  0.45594000000E+02  0.51100000000E-03 0.  1.
         11   -1    0    0    0    0 -0.00000000000E+00 -0.00000000000E+00 -0.45593999997E+02  0.45594000000E+02  0.51100000000E-03 0. -1.
    9900012    2    1    2    0    0  0.94611843424E+01  0.27971763914E+02 -0.12032774015E+02  0.59301933511E+02  0.49999980821E+02 0.  0.
        -12    1    1    2    0    0 -0.94611843424E+01 -0.27971763914E+02  0.12032774015E+02  0.31886066489E+02  0.00000000000E+00 0.  1.
         11    1    3    3    0    0 -0.52186407447E+01  0.10846627168E+01  0.84802771842E+01  0.10016277044E+02  0.51100000000E-03 0. -1.
        -11    1    3    3    0    0  0.11353553850E+02  0.19842237350E+02  0.43145693202E+01  0.23264416536E+02  0.51100000000E-03 0.  1.
         12    1    3    3    0    0  0.33262712371E+01  0.70448638474E+01 -0.24827620519E+02  0.26021239932E+02  0.00000000000E+00 0. -1.
</event>
<event>
 7    1  0.3802554E-013  0.5930194E+02  0.7816164E-02  0.1266605E+00
        -11   -1    0    0    0    0  0.00000000000E+00  0.00000000000E+00  0.45593999997E+02  0.45594000000E+02  0.51100000000E-03 0.  1.
         11   -1    0    0    0    0 -0.00000000000E+00 -0.00000000000E+00 -0.45593999997E+02  0.45594000000E+02  0.51100000000E-03 0. -1.
    9900012    2    1    2    0    0  0.87348070947E+01  0.11362747544E+02 -0.28483532709E+02  0.59301944704E+02  0.50000001234E+02 0.  0.
        -12    1    1    2    0    0 -0.87348070947E+01 -0.11362747544E+02  0.28483532709E+02  0.31886055296E+02  0.00000000000E+00 0.  1.
         11    1    3    3    0    0 -0.70780224272E+01  0.95739026926E+00 -0.82895530690E+01  0.10942197583E+02  0.51100000000E-03 0. -1.
        -11    1    3    3    0    0 -0.65896013128E+01  0.10331620245E+02 -0.22721222485E+02  0.25815095852E+02  0.51100000000E-03 0.  1.
         12    1    3    3    0    0  0.22402430835E+02  0.73737030210E-01  0.25272428454E+01  0.22544651269E+02  0.00000000000E+00 0. -1.
</event>
<event>
 7    1  0.3802554E-013  0.5930194E+02  0.7816164E-02  0.1266605E+00
        -11   -1    0    0    0    0  0.00000000000E+00  0.00000000000E+00  0.45593999997E+02  0.45594000000E+02  0.51100000000E-03 0.  1.
         11   -1    0    0    0    0 -0.00000000000E+00 -0.00000000000E+00 -0.45593999997E+02  0.45594000000E+02  0.51100000000E-03 0. -1.
    9900012    2    1    2    0    0 -0.18066500566E+02  0.26175239128E+02  0.22757754986E+01  0.59301941287E+02  0.49999995002E+02 0.  0.
        -12    1    1    2    0    0  0.18066500566E+02 -0.26175239128E+02 -0.22757754986E+01  0.31886058713E+02  0.00000000000E+00 0.  1.
         11    1    3    3    0    0 -0.40713006971E+01  0.12408692388E+02 -0.15892299258E+02  0.20569791251E+02  0.51100000000E-03 0. -1.
        -11    1    3    3    0    0 -0.16059017641E+02  0.20117912036E+02  0.87527094254E+01  0.27188827757E+02  0.51100000000E-03 0.  1.
         12    1    3    3    0    0  0.20638177725E+01 -0.63513652958E+01  0.94153653311E+01  0.11543322279E+02  0.00000000000E+00 0. -1.
</event>
<event>
 7    1  0.3802554E-013  0.5930196E+02  0.7816164E-02  0.1266605E+00
        -11   -1    0    0    0    0  0.00000000000E+00  0.00000000000E+00  0.45593999997E+02  0.45594000000E+02  0.51100000000E-03 0.  1.
         11   -1    0    0    0    0 -0.00000000000E+00 -0.00000000000E+00 -0.45593999997E+02  0.45594000000E+02  0.51100000000E-03 0. -1.
    9900012    2    1    2    0    0 -0.13224845118E+02 -0.12746196562E+02 -0.26064485053E+02  0.59301961735E+02  0.50000032293E+02 0.  0.
        -12    1    1    2    0    0  0.13224845118E+02  0.12746196562E+02  0.26064485053E+02  0.31886038265E+02  0.00000000000E+00 0.  1.
         11    1    3    3    0    0  0.11089142527E+02 -0.19731843051E+02 -0.78769854682E+00  0.22648072356E+02  0.51100000000E-03 0. -1.
        -11    1    3    3    0    0  0.27955526240E+00 -0.46387340885E+00 -0.16840875813E+01  0.17690338965E+01  0.51100000000E-03 0.  1.
        -12    1    3    3    0    0 -0.24593542907E+02  0.74495198986E+01 -0.23592698925E+02  0.34884855482E+02  0.00000000000E+00 0.  1.
</event>
<event>
 7    1  0.3802554E-013  0.5930193E+02  0.7816164E-02  0.1266605E+00
        -11   -1    0    0    0    0  0.00000000000E+00  0.00000000000E+00  0.45593999997E+02  0.45594000000E+02  0.51100000000E-03 0. -1.
         11   -1    0    0    0    0 -0.00000000000E+00 -0.00000000000E+00 -0.45593999997E+02  0.45594000000E+02  0.51100000000E-03 0.  1.
    9900012    2    1    2    0    0 -0.23526117190E+02  0.18100072308E+02 -0.11646055339E+02  0.59301930744E+02  0.49999975775E+02 0.  0.
        -12    1    1    2    0    0  0.23526117190E+02 -0.18100072308E+02  0.11646055339E+02  0.31886069256E+02  0.00000000000E+00 0.  1.
         11    1    3    3    0    0 -0.45844383912E+01  0.15299758090E+02 -0.16225629184E+02  0.22767756052E+02  0.51100000000E-03 0. -1.
        -11    1    3    3    0    0 -0.73285128835E+01  0.10943094530E+02 -0.97389253552E+01  0.16380020949E+02  0.51100000000E-03 0.  1.
         12    1    3    3    0    0 -0.11613165915E+02 -0.81427803112E+01  0.14318499200E+02  0.20154153743E+02  0.00000000000E+00 0. -1.
</event>
<event>
 7    1  0.3802554E-013  0.5930192E+02  0.7816164E-02  0.1266605E+00
        -11   -1    0    0    0    0  0.00000000000E+00  0.00000000000E+00  0.45593999997E+02  0.45594000000E+02  0.51100000000E-03 0. -1.
         11   -1    0    0    0    0 -0.00000000000E+00 -0.00000000000E+00 -0.45593999997E+02  0.45594000000E+02  0.51100000000E-03 0.  1.
    9900012    2    1    2    0    0  0.24612157609E+02  0.19234076695E+02 -0.64042487142E+01  0.59301915103E+02  0.49999947248E+02 0.  0.
        -12    1    1    2    0    0 -0.24612157609E+02 -0.19234076695E+02  0.64042487142E+01  0.31886084897E+02  0.00000000000E+00 0.  1.
         11    1    3    3    0    0  0.10164768889E+02  0.13201791788E+02 -0.13105693237E+02  0.21198326077E+02  0.51100000000E-03 0. -1.
        -11    1    3    3    0    0  0.18889580524E+02  0.14296067919E+02 -0.38322453973E+01  0.23997498106E+02  0.51100000000E-03 0.  1.
         12    1    3    3    0    0 -0.44421918043E+01 -0.82637830122E+01  0.10533689920E+02  0.14106090919E+02  0.00000000000E+00 0. -1.
</event>
<event>
 7    1  0.3802554E-013  0.5930196E+02  0.7816164E-02  0.1266605E+00
        -11   -1    0    0    0    0  0.00000000000E+00  0.00000000000E+00  0.45593999997E+02  0.45594000000E+02  0.51100000000E-03 0. -1.
         11   -1    0    0    0    0 -0.00000000000E+00 -0.00000000000E+00 -0.45593999997E+02  0.45594000000E+02  0.51100000000E-03 0.  1.
    9900012    2    1    2    0    0  0.19165371201E+02 -0.19720635656E+02  0.16140164045E+02  0.59301955728E+02  0.50000021338E+02 0.  0.
        -12    1    1    2    0    0 -0.19165371201E+02  0.19720635656E+02 -0.16140164045E+02  0.31886044272E+02  0.00000000000E+00 0.  1.
         11    1    3    3    0    0  0.14021304132E+02 -0.58206140227E+01  0.30567052848E+01  0.15486121678E+02  0.51100000000E-03 0. -1.
        -11    1    3    3    0    0  0.15373554848E+02 -0.20138036851E+02  0.17774625867E+02  0.30948732476E+02  0.51100000000E-03 0.  1.
        -12    1    3    3    0    0 -0.10229487779E+02  0.62380152180E+01 -0.46911671070E+01  0.12867101574E+02  0.00000000000E+00 0.  1.
</event>
<event>
 7    1  0.3802554E-013  0.5930196E+02  0.7816164E-02  0.1266605E+00
        -11   -1    0    0    0    0  0.00000000000E+00  0.00000000000E+00  0.45593999997E+02  0.45594000000E+02  0.51100000000E-03 0.  1.
         11   -1    0    0    0    0 -0.00000000000E+00 -0.00000000000E+00 -0.45593999997E+02  0.45594000000E+02  0.51100000000E-03 0. -1.
    9900012    2    1    2    0    0  0.26961566438E+02  0.73459090170E+01 -0.15356785737E+02  0.59301963679E+02  0.50000035840E+02 0.  0.
        -12    1    1    2    0    0 -0.26961566438E+02 -0.73459090170E+01  0.15356785737E+02  0.31886036321E+02  0.00000000000E+00 0.  1.
         11    1    3    3    0    0  0.15391064986E+02 -0.10237266451E+02 -0.20822352278E+02  0.27843434782E+02  0.51100000000E-03 0. -1.
        -11    1    3    3    0    0 -0.48528796536E+01 -0.58489852490E+00 -0.27720450954E+01  0.56193221557E+01  0.51100000000E-03 0.  1.
         12    1    3    3    0    0  0.16423381105E+02  0.18168073993E+02  0.82376116368E+01  0.25839206741E+02  0.00000000000E+00 0. -1.
</event>
<event>
 7    1  0.3802554E-013  0.5930192E+02  0.7816164E-02  0.1266605E+00
        -11   -1    0    0    0    0  0.00000000000E+00  0.00000000000E+00  0.45593999997E+02  0.45594000000E+02  0.51100000000E-03 0.  1.
         11   -1    0    0    0    0 -0.00000000000E+00 -0.00000000000E+00 -0.45593999997E+02  0.45594000000E+02  0.51100000000E-03 0. -1.
    9900012    2    1    2    0    0  0.14695495693E+02 -0.18134670403E+01 -0.28239616783E+02  0.59301918202E+02  0.49999952901E+02 0.  0.
        -12    1    1    2    0    0 -0.14695495693E+02  0.18134670403E+01  0.28239616783E+02  0.31886081798E+02  0.00000000000E+00 0.  1.
         11    1    3    3    0    0  0.55789723014E+01  0.19992696267E+01 -0.81708619017E+00  0.59824444070E+01  0.51100000000E-03 0. -1.
        -11    1    3    3    0    0  0.15020781929E+02  0.13770108306E+02 -0.19943276703E+00  0.20378408824E+02  0.51100000000E-03 0.  1.
        -12    1    3    3    0    0 -0.59042585380E+01 -0.17582844973E+02 -0.27223097826E+02  0.32941064971E+02  0.00000000000E+00 0.  1.
</event>
<event>
 7    1  0.3802554E-013  0.5930194E+02  0.7816164E-02  0.1266605E+00
        -11   -1    0    0    0    0  0.00000000000E+00  0.00000000000E+00  0.45593999997E+02  0.45594000000E+02  0.51100000000E-03 0. -1.
         11   -1    0    0    0    0 -0.00000000000E+00 -0.00000000000E+00 -0.45593999997E+02  0.45594000000E+02  0.51100000000E-03 0.  1.
    9900012    2    1    2    0    0  0.14949343668E+02 -0.17997482820E+01  0.28106912991E+02  0.59301944617E+02  0.50000001076E+02 0.  0.
        -12    1    1    2    0    0 -0.14949343668E+02  0.17997482820E+01 -0.28106912991E+02  0.31886055383E+02  0.00000000000E+00 0.  1.
         11    1    3    3    0    0  0.17388421842E+02  0.34520896023E+01  0.50132240111E+01  0.18422989769E+02  0.51100000000E-03 0.  1.
        -11    1    3    3    0    0 -0.14667882616E+02 -0.10679364113E+01  0.23753139745E+02  0.27937410700E+02  0.51100000000E-03 0. -1.
         12    1    3    3    0    0  0.12228804443E+02 -0.41839014731E+01 -0.65945076545E+00  0.12941544148E+02  0.00000000000E+00 0. -1.
</event>
<event>
 7    1  0.3802554E-013  0.5930166E+02  0.7816164E-02  0.1266606E+00
        -11   -1    0    0    0    0  0.00000000000E+00  0.00000000000E+00  0.45593999997E+02  0.45594000000E+02  0.51100000000E-03 0.  1.
         11   -1    0    0    0    0 -0.00000000000E+00 -0.00000000000E+00 -0.45593999997E+02  0.45594000000E+02  0.51100000000E-03 0. -1.
    9900012    2    1    2    0    0 -0.18431322879E+02  0.22038156921E+02 -0.13832748901E+02  0.59301655498E+02  0.49999473788E+02 0.  0.
        -12    1    1    2    0    0  0.18431322879E+02 -0.22038156921E+02  0.13832748901E+02  0.31886344502E+02  0.00000000000E+00 0.  1.
         11    1    3    3    0    0 -0.14741456944E+02 -0.44452861232E+01 -0.67534801245E+01  0.16813108446E+02  0.51100000000E-03 0. -1.
        -11    1    3    3    0    0  0.11618413887E+01 -0.65830483458E+01 -0.61062146261E+01  0.90538532270E+01  0.51100000000E-03 0.  1.
        -12    1    3    3    0    0 -0.48517073239E+01  0.33066491390E+02 -0.97305415032E+00  0.33434693825E+02  0.00000000000E+00 0.  1.
</event>
<event>
 7    1  0.3802554E-013  0.5930198E+02  0.7816164E-02  0.1266605E+00
        -11   -1    0    0    0    0  0.00000000000E+00  0.00000000000E+00  0.45593999997E+02  0.45594000000E+02  0.51100000000E-03 0. -1.
         11   -1    0    0    0    0 -0.00000000000E+00 -0.00000000000E+00 -0.45593999997E+02  0.45594000000E+02  0.51100000000E-03 0.  1.
    9900012    2    1    2    0    0  0.13298657275E+02 -0.52545025762E+01  0.28500070410E+02  0.59301982751E+02  0.50000070622E+02 0.  0.
        -12    1    1    2    0    0 -0.13298657275E+02  0.52545025762E+01 -0.28500070410E+02  0.31886017249E+02  0.00000000000E+00 0.  1.
         11    1    3    3    0    0  0.17544329557E+02  0.72557641684E+01 -0.24502711192E+01  0.19142973700E+02  0.51100000000E-03 0. -1.
        -11    1    3    3    0    0 -0.96656546703E+00 -0.11088486311E+02  0.24006586112E+01  0.11386480558E+02  0.51100000000E-03 0.  1.
        -12    1    3    3    0    0 -0.32791068154E+01 -0.14217804333E+01  0.28549682918E+02  0.28772528492E+02  0.00000000000E+00 0.  1.
</event>
<event>
 7    1  0.3802554E-013  0.5930188E+02  0.7816164E-02  0.1266605E+00
        -11   -1    0    0    0    0  0.00000000000E+00  0.00000000000E+00  0.45593999997E+02  0.45594000000E+02  0.51100000000E-03 0.  1.
         11   -1    0    0    0    0 -0.00000000000E+00 -0.00000000000E+00 -0.45593999997E+02  0.45594000000E+02  0.51100000000E-03 0. -1.
    9900012    2    1    2    0    0 -0.15523591456E+02  0.18843766688E+02 -0.20509874068E+02  0.59301884385E+02  0.49999891227E+02 0.  0.
        -12    1    1    2    0    0  0.15523591456E+02 -0.18843766688E+02  0.20509874068E+02  0.31886115615E+02  0.00000000000E+00 0.  1.
         11    1    3    3    0    0 -0.62020629089E+01  0.26021514792E+02 -0.37356744685E+01  0.27009999637E+02  0.51100000000E-03 0. -1.
        -11    1    3    3    0    0  0.70673015251E+01 -0.46247968976E+01  0.34805050864E+00  0.84532027426E+01  0.51100000000E-03 0.  1.
         12    1    3    3    0    0 -0.16388830072E+02 -0.25529512066E+01 -0.17122250108E+02  0.23838682006E+02  0.00000000000E+00 0. -1.
</event>
<event>
 7    1  0.3802554E-013  0.5930193E+02  0.7816164E-02  0.1266605E+00
        -11   -1    0    0    0    0  0.00000000000E+00  0.00000000000E+00  0.45593999997E+02  0.45594000000E+02  0.51100000000E-03 0.  1.
         11   -1    0    0    0    0 -0.00000000000E+00 -0.00000000000E+00 -0.45593999997E+02  0.45594000000E+02  0.51100000000E-03 0. -1.
    9900012    2    1    2    0    0 -0.13120011468E+02  0.42024265656E+01 -0.28756330724E+02  0.59301927073E+02  0.49999969079E+02 0.  0.
        -12    1    1    2    0    0  0.13120011468E+02 -0.42024265656E+01  0.28756330724E+02  0.31886072927E+02  0.00000000000E+00 0.  1.
         11    1    3    3    0    0 -0.64967268145E+01  0.22753466762E+00 -0.91148655943E+01  0.11195535110E+02  0.51100000000E-03 0. -1.
        -11    1    3    3    0    0  0.16793562958E+01  0.16578250749E+01 -0.32522084771E+02  0.32607585309E+02  0.51100000000E-03 0.  1.
        -12    1    3    3    0    0 -0.83026409488E+01  0.23170668230E+01  0.12880619641E+02  0.15498806655E+02  0.00000000000E+00 0.  1.
</event>
<event>
 7    1  0.3802554E-013  0.5930222E+02  0.7816164E-02  0.1266604E+00
        -11   -1    0    0    0    0  0.00000000000E+00  0.00000000000E+00  0.45593999997E+02  0.45594000000E+02  0.51100000000E-03 0.  1.
         11   -1    0    0    0    0 -0.00000000000E+00 -0.00000000000E+00 -0.45593999997E+02  0.45594000000E+02  0.51100000000E-03 0. -1.
    9900012    2    1    2    0    0  0.18307069676E+02  0.19194484276E+02 -0.17695369652E+02  0.59302217371E+02  0.50000498511E+02 0.  0.
        -12    1    1    2    0    0 -0.18307069676E+02 -0.19194484276E+02  0.17695369652E+02  0.31885782629E+02  0.00000000000E+00 0.  1.
         11    1    3    3    0    0  0.10262792899E+02  0.31001753220E+01 -0.30342829333E+02  0.32181101556E+02  0.51100000000E-03 0. -1.
        -11    1    3    3    0    0  0.30511070084E+01  0.16532650598E+02  0.42487433239E+01  0.17340403971E+02  0.51100000000E-03 0.  1.
        -12    1    3    3    0    0  0.49931697686E+01 -0.43834164408E+00  0.83987163579E+01  0.97807118450E+01  0.00000000000E+00 0.  1.
</event>
<event>
 7    1  0.3802554E-013  0.5930205E+02  0.7816164E-02  0.1266604E+00
        -11   -1    0    0    0    0  0.00000000000E+00  0.00000000000E+00  0.45593999997E+02  0.45594000000E+02  0.51100000000E-03 0.  1.
         11   -1    0    0    0    0 -0.00000000000E+00 -0.00000000000E+00 -0.45593999997E+02  0.45594000000E+02  0.51100000000E-03 0. -1.
    9900012    2    1    2    0    0  0.15730386231E+02 -0.54456304768E+01 -0.27195847862E+02  0.59302045676E+02  0.50000185381E+02 0.  0.
        -12    1    1    2    0    0 -0.15730386231E+02  0.54456304768E+01  0.27195847862E+02  0.31885954324E+02  0.00000000000E+00 0.  1.
         11    1    3    3    0    0  0.18001823808E+02  0.78185957228E+01 -0.16659905714E+02  0.25743903320E+02  0.51100000000E-03 0. -1.
        -11    1    3    3    0    0 -0.99606992925E+00 -0.52054005020E+01 -0.20215430085E+02  0.20898611520E+02  0.51100000000E-03 0.  1.
         12    1    3    3    0    0 -0.12753676478E+01 -0.80588256976E+01  0.96794879371E+01  0.12659530836E+02  0.00000000000E+00 0. -1.
</event>
<event>
 7    1  0.3802554E-013  0.5930196E+02  0.7816164E-02  0.1266605E+00
        -11   -1    0    0    0    0  0.00000000000E+00  0.00000000000E+00  0.45593999997E+02  0.45594000000E+02  0.51100000000E-03 0.  1.
         11   -1    0    0    0    0 -0.00000000000E+00 -0.00000000000E+00 -0.45593999997E+02  0.45594000000E+02  0.51100000000E-03 0. -1.
    9900012    2    1    2    0    0 -0.31423269164E+02  0.22823327690E+01 -0.49080224941E+01  0.59301959596E+02  0.50000028393E+02 0.  0.
        -12    1    1    2    0    0  0.31423269164E+02 -0.22823327690E+01  0.49080224941E+01  0.31886040404E+02  0.00000000000E+00 0.  1.
         11    1    3    3    0    0 -0.99821936350E+01  0.89552820354E+00 -0.82643073900E+00  0.10056298949E+02  0.51100000000E-03 0. -1.
        -11    1    3    3    0    0 -0.33117724396E+02  0.99226446660E+01 -0.37833539873E+01  0.34778676139E+02  0.51100000000E-03 0.  1.
         12    1    3    3    0    0  0.11676648867E+02 -0.85358401005E+01 -0.29823776776E+00  0.14466984508E+02  0.00000000000E+00 0. -1.
</event>
<event>
 7    1  0.3802554E-013  0.5930194E+02  0.7816164E-02  0.1266605E+00
        -11   -1    0    0    0    0  0.00000000000E+00  0.00000000000E+00  0.45593999997E+02  0.45594000000E+02  0.51100000000E-03 0.  1.
         11   -1    0    0    0    0 -0.00000000000E+00 -0.00000000000E+00 -0.45593999997E+02  0.45594000000E+02  0.51100000000E-03 0. -1.
    9900012    2    1    2    0    0 -0.90379595305E+01  0.19419519641E+02 -0.23620297831E+02  0.59301938387E+02  0.49999989713E+02 0.  0.
        -12    1    1    2    0    0  0.90379595305E+01 -0.19419519641E+02  0.23620297831E+02  0.31886061613E+02  0.00000000000E+00 0.  1.
         11    1    3    3    0    0 -0.15169567181E+02 -0.10318972447E+02 -0.66725392622E+01  0.19522288321E+02  0.51100000000E-03 0. -1.
        -11    1    3    3    0    0 -0.36834865316E+01 -0.67644673056E+00 -0.34319952890E+01  0.50797879023E+01  0.51100000000E-03 0.  1.
        -12    1    3    3    0    0  0.98150941819E+01  0.30414938819E+02 -0.13515763280E+02  0.34699862164E+02  0.00000000000E+00 0.  1.
</event>
<event>
 7    1  0.3802554E-013  0.5930192E+02  0.7816164E-02  0.1266605E+00
        -11   -1    0    0    0    0  0.00000000000E+00  0.00000000000E+00  0.45593999997E+02  0.45594000000E+02  0.51100000000E-03 0. -1.
         11   -1    0    0    0    0 -0.00000000000E+00 -0.00000000000E+00 -0.45593999997E+02  0.45594000000E+02  0.51100000000E-03 0.  1.
    9900012    2    1    2    0    0  0.26112857124E+02 -0.17911495028E+02 -0.37441941556E+01  0.59301922299E+02  0.49999960372E+02 0.  0.
        -12    1    1    2    0    0 -0.26112857124E+02  0.17911495028E+02  0.37441941556E+01  0.31886077701E+02  0.00000000000E+00 0.  1.
         11    1    3    3    0    0  0.84087660650E+01 -0.20776526403E+02  0.16940017198E+02  0.28095116641E+02  0.51100000000E-03 0. -1.
        -11    1    3    3    0    0  0.23794331114E+01  0.33503138056E+00  0.23918628599E+01  0.33904212363E+01  0.51100000000E-03 0.  1.
        -12    1    3    3    0    0  0.15324657947E+02  0.25299999949E+01 -0.23076074214E+02  0.27816384422E+02  0.00000000000E+00 0.  1.
</event>
<event>
 7    1  0.3802554E-013  0.5930194E+02  0.7816164E-02  0.1266605E+00
        -11   -1    0    0    0    0  0.00000000000E+00  0.00000000000E+00  0.45593999997E+02  0.45594000000E+02  0.51100000000E-03 0.  1.
         11   -1    0    0    0    0 -0.00000000000E+00 -0.00000000000E+00 -0.45593999997E+02  0.45594000000E+02  0.51100000000E-03 0. -1.
    9900012    2    1    2    0    0  0.29366416092E+02 -0.62747372182E+01  0.10722038121E+02  0.59301939994E+02  0.49999992643E+02 0.  0.
        -12    1    1    2    0    0 -0.29366416092E+02  0.62747372182E+01 -0.10722038121E+02  0.31886060006E+02  0.00000000000E+00 0.  1.
         11    1    3    3    0    0 -0.10692690859E+02 -0.49226802955E+01  0.33132043749E+01  0.12228807897E+02  0.51100000000E-03 0. -1.
        -11    1    3    3    0    0 -0.15735055357E+01 -0.32532085434E+01  0.37956132038E+01  0.52407981598E+01  0.51100000000E-03 0.  1.
         12    1    3    3    0    0  0.41632612487E+02  0.19011516208E+01  0.36132205421E+01  0.41832333937E+02  0.00000000000E+00 0. -1.
</event>
<event>
 7    1  0.3802554E-013  0.5930192E+02  0.7816164E-02  0.1266605E+00
        -11   -1    0    0    0    0  0.00000000000E+00  0.00000000000E+00  0.45593999997E+02  0.45594000000E+02  0.51100000000E-03 0.  1.
         11   -1    0    0    0    0 -0.00000000000E+00 -0.00000000000E+00 -0.45593999997E+02  0.45594000000E+02  0.51100000000E-03 0. -1.
    9900012    2    1    2    0    0  0.23114987226E+02  0.36284331539E+01 -0.21662263079E+02  0.59301924617E+02  0.49999964600E+02 0.  0.
        -12    1    1    2    0    0 -0.23114987226E+02 -0.36284331539E+01  0.21662263079E+02  0.31886075383E+02  0.00000000000E+00 0.  1.
         11    1    3    3    0    0  0.17885998802E+01  0.75050838963E+00  0.61693018074E+01  0.64670424018E+01  0.51100000000E-03 0. -1.
        -11    1    3    3    0    0  0.98013126646E+01 -0.13227923360E+02  0.24574410767E+01  0.16645801371E+02  0.51100000000E-03 0.  1.
         12    1    3    3    0    0  0.11525074681E+02  0.16105848124E+02 -0.30289005963E+02  0.36189080845E+02  0.00000000000E+00 0. -1.
</event>
<event>
 7    1  0.3802554E-013  0.5930198E+02  0.7816164E-02  0.1266605E+00
        -11   -1    0    0    0    0  0.00000000000E+00  0.00000000000E+00  0.45593999997E+02  0.45594000000E+02  0.51100000000E-03 0.  1.
         11   -1    0    0    0    0 -0.00000000000E+00 -0.00000000000E+00 -0.45593999997E+02  0.45594000000E+02  0.51100000000E-03 0. -1.
    9900012    2    1    2    0    0 -0.17139193896E+02  0.43253183284E+01  0.26537859385E+02  0.59301979132E+02  0.50000064023E+02 0.  0.
        -12    1    1    2    0    0  0.17139193896E+02 -0.43253183284E+01 -0.26537859385E+02  0.31886020868E+02  0.00000000000E+00 0.  1.
         11    1    3    3    0    0 -0.42292034698E+00  0.12681360742E+02  0.70185685678E+01  0.14500209546E+02  0.51100000000E-03 0. -1.
        -11    1    3    3    0    0  0.76399362579E+00  0.10261569089E+02 -0.30371045815E+01  0.10728815915E+02  0.51100000000E-03 0.  1.
        -12    1    3    3    0    0 -0.17480267175E+02 -0.18617611502E+02  0.22556395398E+02  0.34072953672E+02  0.00000000000E+00 0.  1.
</event>
<event>
 7    1  0.3802554E-013  0.5930194E+02  0.7816164E-02  0.1266605E+00
        -11   -1    0    0    0    0  0.00000000000E+00  0.00000000000E+00  0.45593999997E+02  0.45594000000E+02  0.51100000000E-03 0. -1.
         11   -1    0    0    0    0 -0.00000000000E+00 -0.00000000000E+00 -0.45593999997E+02  0.45594000000E+02  0.51100000000E-03 0.  1.
    9900012    2    1    2    0    0  0.28612199504E+02  0.11890162137E+02 -0.75290674294E+01  0.59301940782E+02  0.49999994081E+02 0.  0.
        -12    1    1    2    0    0 -0.28612199504E+02 -0.11890162137E+02  0.75290674294E+01  0.31886059218E+02  0.00000000000E+00 0.  1.
         11    1    3    3    0    0  0.42061623816E+01 -0.13922719407E+02 -0.90974973324E+01  0.17155126803E+02  0.51100000000E-03 0.  1.
        -11    1    3    3    0    0  0.87093693717E+01  0.17894209713E+02 -0.87738794916E+01  0.21749409595E+02  0.51100000000E-03 0. -1.
        -12    1    3    3    0    0  0.15696667750E+02  0.79186718302E+01  0.10342309395E+02  0.20397404385E+02  0.00000000000E+00 0.  1.
</event>
<event>
 7    1  0.3802554E-013  0.5930196E+02  0.7816164E-02  0.1266605E+00
        -11   -1    0    0    0    0  0.00000000000E+00  0.00000000000E+00  0.45593999997E+02  0.45594000000E+02  0.51100000000E-03 0.  1.
         11   -1    0    0    0    0 -0.00000000000E+00 -0.00000000000E+00 -0.45593999997E+02  0.45594000000E+02  0.51100000000E-03 0. -1.
    9900012    2    1    2    0    0  0.80334797128E+00 -0.15110151768E+02 -0.28067015710E+02  0.59301961907E+02  0.50000032608E+02 0.  0.
        -12    1    1    2    0    0 -0.80334797128E+00  0.15110151768E+02  0.28067015710E+02  0.31886038093E+02  0.00000000000E+00 0.  1.
         11    1    3    3    0    0  0.20930522610E+01 -0.63195837643E+01 -0.25349846942E+02  0.26209401881E+02  0.51100000000E-03 0. -1.
        -11    1    3    3    0    0 -0.13927709394E+02 -0.57768624389E+01 -0.10100672310E+02  0.18148741278E+02  0.51100000000E-03 0.  1.
        -12    1    3    3    0    0  0.12638005104E+02 -0.30137055646E+01  0.73835035421E+01  0.14943818749E+02  0.00000000000E+00 0.  1.
</event>
<event>
 7    1  0.3802554E-013  0.5930196E+02  0.7816164E-02  0.1266605E+00
        -11   -1    0    0    0    0  0.00000000000E+00  0.00000000000E+00  0.45593999997E+02  0.45594000000E+02  0.51100000000E-03 0. -1.
         11   -1    0    0    0    0 -0.00000000000E+00 -0.00000000000E+00 -0.45593999997E+02  0.45594000000E+02  0.51100000000E-03 0.  1.
    9900012    2    1    2    0    0 -0.55815374833E+01 -0.76894722513E+00  0.31384302613E+02  0.59301964013E+02  0.50000036447E+02 0.  0.
        -12    1    1    2    0    0  0.55815374833E+01  0.76894722513E+00 -0.31384302613E+02  0.31886035987E+02  0.00000000000E+00 0.  1.
         11    1    3    3    0    0 -0.13761828420E+02 -0.24573712429E+00 -0.21929560863E+01  0.13937624075E+02  0.51100000000E-03 0. -1.
        -11    1    3    3    0    0  0.63154771763E+01 -0.14681544003E+02  0.14876245092E+02  0.21834277056E+02  0.51100000000E-03 0.  1.
         12    1    3    3    0    0  0.18648137608E+01  0.14158333902E+02  0.18701013607E+02  0.23530062881E+02  0.00000000000E+00 0. -1.
</event>
<event>
 7    1  0.3802554E-013  0.5930197E+02  0.7816164E-02  0.1266605E+00
        -11   -1    0    0    0    0  0.00000000000E+00  0.00000000000E+00  0.45593999997E+02  0.45594000000E+02  0.51100000000E-03 0. -1.
         11   -1    0    0    0    0 -0.00000000000E+00 -0.00000000000E+00 -0.45593999997E+02  0.45594000000E+02  0.51100000000E-03 0.  1.
    9900012    2    1    2    0    0  0.22673855579E+02 -0.19583500340E+02 -0.10913378047E+02  0.59301968061E+02  0.50000043831E+02 0.  0.
        -12    1    1    2    0    0 -0.22673855579E+02  0.19583500340E+02  0.10913378047E+02  0.31886031939E+02  0.00000000000E+00 0.  1.
         11    1    3    3    0    0 -0.60585393141E-02 -0.93254781773E+01 -0.13249286975E+02  0.16202104355E+02  0.51100000000E-03 0. -1.
        -11    1    3    3    0    0 -0.49605531503E+01 -0.93134019266E+01  0.98560096432E+01  0.14439095171E+02  0.51100000000E-03 0.  1.
         12    1    3    3    0    0  0.27640467269E+02 -0.94462023652E+00 -0.75201007156E+01  0.28660768535E+02  0.00000000000E+00 0. -1.
</event>
<event>
 7    1  0.3802554E-013  0.5930194E+02  0.7816164E-02  0.1266605E+00
        -11   -1    0    0    0    0  0.00000000000E+00  0.00000000000E+00  0.45593999997E+02  0.45594000000E+02  0.51100000000E-03 0. -1.
         11   -1    0    0    0    0 -0.00000000000E+00 -0.00000000000E+00 -0.45593999997E+02  0.45594000000E+02  0.51100000000E-03 0.  1.
    9900012    2    1    2    0    0  0.21974312369E+02  0.21398265321E+02 -0.87157784054E+01  0.59301937903E+02  0.49999988830E+02 0.  0.
        -12    1    1    2    0    0 -0.21974312369E+02 -0.21398265321E+02  0.87157784054E+01  0.31886062097E+02  0.00000000000E+00 0.  1.
         11    1    3    3    0    0 -0.13534771766E+02 -0.16072515360E+01 -0.84461073243E+00  0.13656012295E+02  0.51100000000E-03 0. -1.
        -11    1    3    3    0    0 -0.68341863651E+00  0.29837656533E+00 -0.24697210601E+01  0.25798472791E+01  0.51100000000E-03 0.  1.
         12    1    3    3    0    0  0.36192502771E+02  0.22707140292E+02 -0.54014466129E+01  0.43066078329E+02  0.00000000000E+00 0. -1.
</event>
<event>
 7    1  0.4130228E-013  0.5930194E+02  0.7816164E-02  0.1266605E+00
        -11   -1    0    0    0    0  0.00000000000E+00  0.00000000000E+00  0.45593999997E+02  0.45594000000E+02  0.51100000000E-03 0. -1.
         11   -1    0    0    0    0 -0.00000000000E+00 -0.00000000000E+00 -0.45593999997E+02  0.45594000000E+02  0.51100000000E-03 0.  1.
    9900012    2    1    2    0    0 -0.40627449022E+01 -0.92826951690E+01  0.30233203857E+02  0.59301938136E+02  0.49999989254E+02 0.  0.
        -12    1    1    2    0    0  0.40627449022E+01  0.92826951690E+01 -0.30233203857E+02  0.31886061864E+02  0.00000000000E+00 0.  1.
         11    1    3    3    0    0  0.53422623809E+01 -0.43600758055E+01  0.19826165265E+02  0.20991113781E+02  0.51100000000E-03 0. -1.
        -11    1    3    3    0    0 -0.75176748662E+01  0.12257731923E+02  0.14635446687E+02  0.20517400598E+02  0.51100000000E-03 0.  1.
        -12    1    3    3    0    0 -0.18873324170E+01 -0.17180351287E+02 -0.42284080946E+01  0.17793423757E+02  0.00000000000E+00 0.  1.
</event>
<event>
 7    1  0.3802554E-013  0.5930193E+02  0.7816164E-02  0.1266605E+00
        -11   -1    0    0    0    0  0.00000000000E+00  0.00000000000E+00  0.45593999997E+02  0.45594000000E+02  0.51100000000E-03 0. -1.
         11   -1    0    0    0    0 -0.00000000000E+00 -0.00000000000E+00 -0.45593999997E+02  0.45594000000E+02  0.51100000000E-03 0.  1.
    9900012    2    1    2    0    0 -0.10453974538E+02 -0.21951168949E+02 -0.20629641158E+02  0.59301929433E+02  0.49999973383E+02 0.  0.
        -12    1    1    2    0    0  0.10453974538E+02  0.21951168949E+02  0.20629641158E+02  0.31886070567E+02  0.00000000000E+00 0.  1.
         11    1    3    3    0    0  0.23079432915E+01  0.14269220502E+01 -0.16559227120E+02  0.16780068887E+02  0.51100000000E-03 0. -1.
        -11    1    3    3    0    0 -0.97542738448E+01 -0.12910749225E+02 -0.18413167876E+02  0.24512814103E+02  0.51100000000E-03 0.  1.
         12    1    3    3    0    0 -0.30076439848E+01 -0.10467341774E+02  0.14342753837E+02  0.18009046443E+02  0.00000000000E+00 0. -1.
</event>
<event>
 7    1  0.3802554E-013  0.5930194E+02  0.7816164E-02  0.1266605E+00
        -11   -1    0    0    0    0  0.00000000000E+00  0.00000000000E+00  0.45593999997E+02  0.45594000000E+02  0.51100000000E-03 0. -1.
         11   -1    0    0    0    0 -0.00000000000E+00 -0.00000000000E+00 -0.45593999997E+02  0.45594000000E+02  0.51100000000E-03 0.  1.
    9900012    2    1    2    0    0 -0.75063004307E+00  0.22436759135E+02  0.22643964350E+02  0.59301941488E+02  0.49999995369E+02 0.  0.
        -12    1    1    2    0    0  0.75063004307E+00 -0.22436759135E+02 -0.22643964350E+02  0.31886058512E+02  0.00000000000E+00 0.  1.
         11    1    3    3    0    0  0.82528837232E+00  0.62818545720E+01 -0.31909020314E+01  0.70939871579E+01  0.51100000000E-03 0. -1.
        -11    1    3    3    0    0  0.18641457103E+02  0.53110006677E+00  0.51865990178E+01  0.19356828248E+02  0.51100000000E-03 0.  1.
         12    1    3    3    0    0 -0.20217375518E+02  0.15623804496E+02  0.20648267363E+02  0.32851126082E+02  0.00000000000E+00 0. -1.
</event>
<event>
 7    1  0.3802554E-013  0.5930194E+02  0.7816164E-02  0.1266605E+00
        -11   -1    0    0    0    0  0.00000000000E+00  0.00000000000E+00  0.45593999997E+02  0.45594000000E+02  0.51100000000E-03 0.  1.
         11   -1    0    0    0    0 -0.00000000000E+00 -0.00000000000E+00 -0.45593999997E+02  0.45594000000E+02  0.51100000000E-03 0. -1.
    9900012    2    1    2    0    0  0.88514318354E+01  0.21639335095E+02 -0.21682062780E+02  0.59301944815E+02  0.50000001435E+02 0.  0.
        -12    1    1    2    0    0 -0.88514318354E+01 -0.21639335095E+02  0.21682062780E+02  0.31886055185E+02  0.00000000000E+00 0.  1.
         11    1    3    3    0    0 -0.92666212063E+01  0.22896970125E+01  0.78376513913E+01  0.12350779756E+02  0.51100000000E-03 0.  1.
        -11    1    3    3    0    0 -0.36888687121E+01 -0.19044350368E+01  0.51117734513E+00  0.41828133742E+01  0.51100000000E-03 0. -1.
         12    1    3    3    0    0  0.21806921754E+02  0.21254073119E+02 -0.30030891516E+02  0.42768351684E+02  0.00000000000E+00 0. -1.
</event>
<event>
 7    1  0.3802554E-013  0.5930196E+02  0.7816164E-02  0.1266605E+00
        -11   -1    0    0    0    0  0.00000000000E+00  0.00000000000E+00  0.45593999997E+02  0.45594000000E+02  0.51100000000E-03 0.  1.
         11   -1    0    0    0    0 -0.00000000000E+00 -0.00000000000E+00 -0.45593999997E+02  0.45594000000E+02  0.51100000000E-03 0. -1.
    9900012    2    1    2    0    0 -0.19166885008E+02  0.12678499370E+02 -0.22104432142E+02  0.59301956854E+02  0.50000023392E+02 0.  0.
        -12    1    1    2    0    0  0.19166885008E+02 -0.12678499370E+02  0.22104432142E+02  0.31886043146E+02  0.00000000000E+00 0.  1.
         11    1    3    3    0    0 -0.60794905298E+01 -0.96611647246E+00 -0.13610963049E+02  0.14938269697E+02  0.51100000000E-03 0. -1.
        -11    1    3    3    0    0 -0.25704255952E+02  0.15005953937E+02 -0.10405556818E+02  0.31530351101E+02  0.51100000000E-03 0.  1.
        -12    1    3    3    0    0  0.12616861473E+02 -0.13613380952E+01  0.19120877258E+01  0.12833336056E+02  0.00000000000E+00 0.  1.
</event>
<event>
 7    1  0.3802554E-013  0.5930204E+02  0.7816164E-02  0.1266604E+00
        -11   -1    0    0    0    0  0.00000000000E+00  0.00000000000E+00  0.45593999997E+02  0.45594000000E+02  0.51100000000E-03 0.  1.
         11   -1    0    0    0    0 -0.00000000000E+00 -0.00000000000E+00 -0.45593999997E+02  0.45594000000E+02  0.51100000000E-03 0. -1.
    9900012    2    1    2    0    0 -0.26506219243E+02  0.13028985665E+01 -0.17675901362E+02  0.59302036125E+02  0.50000167964E+02 0.  0.
        -12    1    1    2    0    0  0.26506219243E+02 -0.13028985665E+01  0.17675901362E+02  0.31885963875E+02  0.00000000000E+00 0.  1.
         11    1    3    3    0    0  0.16649245969E+01 -0.48669226211E+01 -0.15735642770E+02  0.16555040422E+02  0.51100000000E-03 0. -1.
        -11    1    3    3    0    0 -0.12993614316E+02 -0.12913152220E+02 -0.99591923948E+00  0.18345990533E+02  0.51100000000E-03 0.  1.
        -12    1    3    3    0    0 -0.15177529524E+02  0.19082973407E+02 -0.94433935201E+00  0.24401005171E+02  0.00000000000E+00 0.  1.
</event>
<event>
 7    1  0.3802554E-013  0.5930194E+02  0.7816164E-02  0.1266605E+00
        -11   -1    0    0    0    0  0.00000000000E+00  0.00000000000E+00  0.45593999997E+02  0.45594000000E+02  0.51100000000E-03 0. -1.
         11   -1    0    0    0    0 -0.00000000000E+00 -0.00000000000E+00 -0.45593999997E+02  0.45594000000E+02  0.51100000000E-03 0.  1.
    9900012    2    1    2    0    0 -0.24685763531E+02  0.19937575733E+02  0.31348199839E+01  0.59301938099E+02  0.49999989187E+02 0.  0.
        -12    1    1    2    0    0  0.24685763531E+02 -0.19937575733E+02 -0.31348199839E+01  0.31886061901E+02  0.00000000000E+00 0.  1.
         11    1    3    3    0    0  0.38204066564E+00 -0.64361200161E+01  0.34610314205E+01  0.73176727644E+01  0.51100000000E-03 0. -1.
        -11    1    3    3    0    0 -0.33432797217E+01 -0.90778143420E+01  0.33647384378E+01  0.10242348244E+02  0.51100000000E-03 0.  1.
        -12    1    3    3    0    0 -0.21724524475E+02  0.35451510091E+02 -0.36909498744E+01  0.41741917091E+02  0.00000000000E+00 0.  1.
</event>
<event>
 7    1  0.3802554E-013  0.5930192E+02  0.7816164E-02  0.1266605E+00
        -11   -1    0    0    0    0  0.00000000000E+00  0.00000000000E+00  0.45593999997E+02  0.45594000000E+02  0.51100000000E-03 0. -1.
         11   -1    0    0    0    0 -0.00000000000E+00 -0.00000000000E+00 -0.45593999997E+02  0.45594000000E+02  0.51100000000E-03 0.  1.
    9900012    2    1    2    0    0 -0.13012340583E+02 -0.25659314436E+02 -0.13747756029E+02  0.59301918074E+02  0.49999952666E+02 0.  0.
        -12    1    1    2    0    0  0.13012340583E+02  0.25659314436E+02  0.13747756029E+02  0.31886081926E+02  0.00000000000E+00 0.  1.
         11    1    3    3    0    0 -0.49929470098E+01  0.41162669415E+01 -0.17293753012E+01  0.66980528939E+01  0.51100000000E-03 0. -1.
        -11    1    3    3    0    0 -0.76269334998E+01  0.87284801244E+01  0.17246172542E+01  0.11718821819E+02  0.51100000000E-03 0.  1.
         12    1    3    3    0    0 -0.39246007343E+00 -0.38504061502E+02 -0.13742997982E+02  0.40885043361E+02  0.00000000000E+00 0. -1.
</event>
<event>
 7    1  0.3802554E-013  0.5930194E+02  0.7816164E-02  0.1266605E+00
        -11   -1    0    0    0    0  0.00000000000E+00  0.00000000000E+00  0.45593999997E+02  0.45594000000E+02  0.51100000000E-03 0. -1.
         11   -1    0    0    0    0 -0.00000000000E+00 -0.00000000000E+00 -0.45593999997E+02  0.45594000000E+02  0.51100000000E-03 0.  1.
    9900012    2    1    2    0    0  0.48521019771E+01  0.26982584157E+02  0.16282442627E+02  0.59301942243E+02  0.49999996745E+02 0.  0.
        -12    1    1    2    0    0 -0.48521019771E+01 -0.26982584157E+02 -0.16282442627E+02  0.31886057757E+02  0.00000000000E+00 0.  1.
         11    1    3    3    0    0 -0.80686506027E+01 -0.12471075015E+01  0.80760480335E+01  0.11483943215E+02  0.51100000000E-03 0.  1.
        -11    1    3    3    0    0 -0.81987101806E+01  0.22028871537E+02 -0.19319877777E+01  0.23584372090E+02  0.51100000000E-03 0. -1.
         12    1    3    3    0    0  0.21119462760E+02  0.62008201217E+01  0.10138382371E+02  0.24233626938E+02  0.00000000000E+00 0. -1.
</event>
<event>
 7    1  0.3802554E-013  0.5930196E+02  0.7816164E-02  0.1266605E+00
        -11   -1    0    0    0    0  0.00000000000E+00  0.00000000000E+00  0.45593999997E+02  0.45594000000E+02  0.51100000000E-03 0.  1.
         11   -1    0    0    0    0 -0.00000000000E+00 -0.00000000000E+00 -0.45593999997E+02  0.45594000000E+02  0.51100000000E-03 0. -1.
    9900012    2    1    2    0    0 -0.24948181854E+02  0.80857213685E+01 -0.18136404598E+02  0.59301955410E+02  0.50000020758E+02 0.  0.
        -12    1    1    2    0    0  0.24948181854E+02 -0.80857213685E+01  0.18136404598E+02  0.31886044590E+02  0.00000000000E+00 0.  1.
         11    1    3    3    0    0 -0.80551469896E+01 -0.36672407438E+01  0.80097840738E+01  0.11936946380E+02  0.51100000000E-03 0. -1.
        -11    1    3    3    0    0 -0.85704540204E+01 -0.58080199384E+01  0.43284364096E+01  0.11221458895E+02  0.51100000000E-03 0.  1.
         12    1    3    3    0    0 -0.83225808443E+01  0.17560982051E+02 -0.30474625082E+02  0.36143550135E+02  0.00000000000E+00 0. -1.
</event>
<event>
 7    1  0.3802554E-013  0.5930194E+02  0.7816164E-02  0.1266605E+00
        -11   -1    0    0    0    0  0.00000000000E+00  0.00000000000E+00  0.45593999997E+02  0.45594000000E+02  0.51100000000E-03 0.  1.
         11   -1    0    0    0    0 -0.00000000000E+00 -0.00000000000E+00 -0.45593999997E+02  0.45594000000E+02  0.51100000000E-03 0. -1.
    9900012    2    1    2    0    0 -0.65623295414E+01  0.10261210879E+02 -0.29468014943E+02  0.59301944703E+02  0.50000001232E+02 0.  0.
        -12    1    1    2    0    0  0.65623295414E+01 -0.10261210879E+02  0.29468014943E+02  0.31886055297E+02  0.00000000000E+00 0.  1.
         11    1    3    3    0    0 -0.11894598955E+02  0.78007053776E+01 -0.36346661496E+01  0.14681392542E+02  0.51100000000E-03 0. -1.
        -11    1    3    3    0    0 -0.12098955076E+02  0.11536955964E+02 -0.11323517309E+02  0.20191783263E+02  0.51100000000E-03 0.  1.
         12    1    3    3    0    0  0.17431224489E+02 -0.90764504622E+01 -0.14509831484E+02  0.24428768898E+02  0.00000000000E+00 0. -1.
</event>
<event>
 7    1  0.3802554E-013  0.5930192E+02  0.7816164E-02  0.1266605E+00
        -11   -1    0    0    0    0  0.00000000000E+00  0.00000000000E+00  0.45593999997E+02  0.45594000000E+02  0.51100000000E-03 0.  1.
         11   -1    0    0    0    0 -0.00000000000E+00 -0.00000000000E+00 -0.45593999997E+02  0.45594000000E+02  0.51100000000E-03 0. -1.
    9900012    2    1    2    0    0 -0.78103001814E+01  0.50153394742E+01 -0.30505203097E+02  0.59301924121E+02  0.49999963695E+02 0.  0.
        -12    1    1    2    0    0  0.78103001814E+01 -0.50153394742E+01  0.30505203097E+02  0.31886075879E+02  0.00000000000E+00 0.  1.
         11    1    3    3    0    0  0.65403805859E+01 -0.12315167287E+02 -0.14855565549E+02  0.20374684085E+02  0.51100000000E-03 0. -1.
        -11    1    3    3    0    0 -0.13297127632E+02 -0.42902765392E+01 -0.68440988510E+01  0.15558334274E+02  0.51100000000E-03 0.  1.
         12    1    3    3    0    0 -0.10535531353E+01  0.21620783301E+02 -0.88055386969E+01  0.23368905762E+02  0.00000000000E+00 0. -1.
</event>
<event>
 7    1  0.3802554E-013  0.5930191E+02  0.7816164E-02  0.1266605E+00
        -11   -1    0    0    0    0  0.00000000000E+00  0.00000000000E+00  0.45593999997E+02  0.45594000000E+02  0.51100000000E-03 0.  1.
         11   -1    0    0    0    0 -0.00000000000E+00 -0.00000000000E+00 -0.45593999997E+02  0.45594000000E+02  0.51100000000E-03 0. -1.
    9900012    2    1    2    0    0  0.20359188652E+02 -0.24506629792E+02  0.12849416974E+01  0.59301913042E+02  0.49999943489E+02 0.  0.
        -12    1    1    2    0    0 -0.20359188652E+02  0.24506629792E+02 -0.12849416974E+01  0.31886086958E+02  0.00000000000E+00 0.  1.
         11    1    3    3    0    0  0.23223792712E+02 -0.21309839738E+02 -0.28122329272E+01  0.31644311841E+02  0.51100000000E-03 0. -1.
        -11    1    3    3    0    0  0.41972537376E+01 -0.75338906023E+01 -0.88038201211E+01  0.12324110334E+02  0.51100000000E-03 0.  1.
        -12    1    3    3    0    0 -0.70618577979E+01  0.43371005482E+01  0.12900994746E+02  0.15333490866E+02  0.00000000000E+00 0.  1.
</event>
<event>
 7    1  0.3802554E-013  0.5930197E+02  0.7816164E-02  0.1266605E+00
        -11   -1    0    0    0    0  0.00000000000E+00  0.00000000000E+00  0.45593999997E+02  0.45594000000E+02  0.51100000000E-03 0.  1.
         11   -1    0    0    0    0 -0.00000000000E+00 -0.00000000000E+00 -0.45593999997E+02  0.45594000000E+02  0.51100000000E-03 0. -1.
    9900012    2    1    2    0    0 -0.18245815527E+02 -0.25833807806E+02 -0.40526186887E+01  0.59301966565E+02  0.50000041102E+02 0.  0.
        -12    1    1    2    0    0  0.18245815527E+02  0.25833807806E+02  0.40526186887E+01  0.31886033435E+02  0.00000000000E+00 0.  1.
         11    1    3    3    0    0 -0.55488588473E+01 -0.19005545248E+02  0.10410537590E+02  0.22369172489E+02  0.51100000000E-03 0. -1.
        -11    1    3    3    0    0  0.55760444025E+01  0.82281301340E+01 -0.18656095109E+01  0.10113105151E+02  0.51100000000E-03 0.  1.
         12    1    3    3    0    0 -0.18273001082E+02 -0.15056392692E+02 -0.12597546768E+02  0.26819688925E+02  0.00000000000E+00 0. -1.
</event>
<event>
 7    1  0.3802554E-013  0.5930194E+02  0.7816164E-02  0.1266605E+00
        -11   -1    0    0    0    0  0.00000000000E+00  0.00000000000E+00  0.45593999997E+02  0.45594000000E+02  0.51100000000E-03 0. -1.
         11   -1    0    0    0    0 -0.00000000000E+00 -0.00000000000E+00 -0.45593999997E+02  0.45594000000E+02  0.51100000000E-03 0.  1.
    9900012    2    1    2    0    0  0.15015981950E+02  0.21363877300E+02  0.18298251964E+02  0.59301937337E+02  0.49999987797E+02 0.  0.
        -12    1    1    2    0    0 -0.15015981950E+02 -0.21363877300E+02 -0.18298251964E+02  0.31886062663E+02  0.00000000000E+00 0.  1.
         11    1    3    3    0    0  0.14391263324E+02  0.93013737878E+01  0.16525879349E+02  0.23806064415E+02  0.51100000000E-03 0. -1.
        -11    1    3    3    0    0  0.25821948325E+01 -0.10475031344E+02  0.62015141881E+01  0.12443986110E+02  0.51100000000E-03 0.  1.
         12    1    3    3    0    0 -0.19574762065E+01  0.22537534857E+02 -0.44291415732E+01  0.23051886812E+02  0.00000000000E+00 0. -1.
</event>
<event>
 7    1  0.3802554E-013  0.5930193E+02  0.7816164E-02  0.1266605E+00
        -11   -1    0    0    0    0  0.00000000000E+00  0.00000000000E+00  0.45593999997E+02  0.45594000000E+02  0.51100000000E-03 0.  1.
         11   -1    0    0    0    0 -0.00000000000E+00 -0.00000000000E+00 -0.45593999997E+02  0.45594000000E+02  0.51100000000E-03 0. -1.
    9900012    2    1    2    0    0  0.76595333755E+01  0.12735418541E+01 -0.30926218985E+02  0.59301931238E+02  0.49999976675E+02 0.  0.
        -12    1    1    2    0    0 -0.76595333755E+01 -0.12735418541E+01  0.30926218985E+02  0.31886068762E+02  0.00000000000E+00 0.  1.
         11    1    3    3    0    0  0.20502702549E+02 -0.36327905273E+01 -0.93400891980E+01  0.22820938748E+02  0.51100000000E-03 0. -1.
        -11    1    3    3    0    0  0.15092155274E+01 -0.80103464409E+01 -0.92794103070E+00  0.82039293286E+01  0.51100000000E-03 0.  1.
         12    1    3    3    0    0 -0.14352384701E+02  0.12916678822E+02 -0.20658188756E+02  0.28277063162E+02  0.00000000000E+00 0. -1.
</event>
<event>
 7    1  0.3802554E-013  0.5930195E+02  0.7816164E-02  0.1266605E+00
        -11   -1    0    0    0    0  0.00000000000E+00  0.00000000000E+00  0.45593999997E+02  0.45594000000E+02  0.51100000000E-03 0. -1.
         11   -1    0    0    0    0 -0.00000000000E+00 -0.00000000000E+00 -0.45593999997E+02  0.45594000000E+02  0.51100000000E-03 0.  1.
    9900012    2    1    2    0    0 -0.25059357504E+02  0.19109356827E+02 -0.48560441539E+01  0.59301951614E+02  0.50000013835E+02 0.  0.
        -12    1    1    2    0    0  0.25059357504E+02 -0.19109356827E+02  0.48560441539E+01  0.31886048386E+02  0.00000000000E+00 0.  1.
         11    1    3    3    0    0  0.52856410957E+01  0.11693137990E+02 -0.46772587916E+01  0.13658119487E+02  0.51100000000E-03 0. -1.
        -11    1    3    3    0    0 -0.23262534439E+02  0.61825666160E+01 -0.15562716479E+02  0.28663003732E+02  0.51100000000E-03 0.  1.
        -12    1    3    3    0    0 -0.70824641603E+01  0.12336522208E+01  0.15383931116E+02  0.16980828395E+02  0.00000000000E+00 0.  1.
</event>
<event>
 7    1  0.3802554E-013  0.5930192E+02  0.7816164E-02  0.1266605E+00
        -11   -1    0    0    0    0  0.00000000000E+00  0.00000000000E+00  0.45593999997E+02  0.45594000000E+02  0.51100000000E-03 0. -1.
         11   -1    0    0    0    0 -0.00000000000E+00 -0.00000000000E+00 -0.45593999997E+02  0.45594000000E+02  0.51100000000E-03 0.  1.
    9900012    2    1    2    0    0  0.88776689295E+01  0.30606931974E+02  0.10604941028E+01  0.59301922501E+02  0.49999960741E+02 0.  0.
        -12    1    1    2    0    0 -0.88776689295E+01 -0.30606931974E+02 -0.10604941028E+01  0.31886077499E+02  0.00000000000E+00 0.  1.
         11    1    3    3    0    0  0.15434581616E+02  0.24795454274E+02  0.32402287382E+01  0.29386050174E+02  0.51100000000E-03 0. -1.
        -11    1    3    3    0    0  0.85058494350E+01  0.59625137615E+01 -0.86538832948E+01  0.13520012622E+02  0.51100000000E-03 0.  1.
        -12    1    3    3    0    0 -0.15062762121E+02 -0.15103606074E+00  0.64741486593E+01  0.16395859705E+02  0.00000000000E+00 0.  1.
</event>
<event>
 7    1  0.3802554E-013  0.5930193E+02  0.7816164E-02  0.1266605E+00
        -11   -1    0    0    0    0  0.00000000000E+00  0.00000000000E+00  0.45593999997E+02  0.45594000000E+02  0.51100000000E-03 0.  1.
         11   -1    0    0    0    0 -0.00000000000E+00 -0.00000000000E+00 -0.45593999997E+02  0.45594000000E+02  0.51100000000E-03 0. -1.
    9900012    2    1    2    0    0 -0.14058074821E+01 -0.25605059030E+02 -0.18950630000E+02  0.59301925923E+02  0.49999966982E+02 0.  0.
        -12    1    1    2    0    0  0.14058074821E+01  0.25605059030E+02  0.18950630000E+02  0.31886074077E+02  0.00000000000E+00 0.  1.
         11    1    3    3    0    0 -0.59366254261E+01  0.22205965155E-01 -0.20050866868E+02  0.20911271529E+02  0.51100000000E-03 0. -1.
        -11    1    3    3    0    0  0.11846591186E+02 -0.31265136661E+01 -0.60624536569E+01  0.13670045905E+02  0.51100000000E-03 0.  1.
        -12    1    3    3    0    0 -0.73157732422E+01 -0.22500751329E+02  0.71626905247E+01  0.24720608489E+02  0.00000000000E+00 0.  1.
</event>
<event>
 7    1  0.3802554E-013  0.5930200E+02  0.7816164E-02  0.1266605E+00
        -11   -1    0    0    0    0  0.00000000000E+00  0.00000000000E+00  0.45593999997E+02  0.45594000000E+02  0.51100000000E-03 0. -1.
         11   -1    0    0    0    0 -0.00000000000E+00 -0.00000000000E+00 -0.45593999997E+02  0.45594000000E+02  0.51100000000E-03 0.  1.
    9900012    2    1    2    0    0  0.14168720679E+02  0.16531417318E+02  0.23295424249E+02  0.59301996878E+02  0.50000096385E+02 0.  0.
        -12    1    1    2    0    0 -0.14168720679E+02 -0.16531417318E+02 -0.23295424249E+02  0.31886003122E+02  0.00000000000E+00 0.  1.
         11    1    3    3    0    0  0.15150528335E+02  0.26762081711E+02  0.17147709254E+02  0.35210672520E+02  0.51100000000E-03 0. -1.
        -11    1    3    3    0    0  0.67907136625E+01  0.32056064075E+01  0.37199457318E+01  0.83801969544E+01  0.51100000000E-03 0.  1.
        -12    1    3    3    0    0 -0.77725213187E+01 -0.13436270801E+02  0.24277692628E+01  0.15711127404E+02  0.00000000000E+00 0.  1.
</event>
<event>
 7    1  0.3802554E-013  0.5930196E+02  0.7816164E-02  0.1266605E+00
        -11   -1    0    0    0    0  0.00000000000E+00  0.00000000000E+00  0.45593999997E+02  0.45594000000E+02  0.51100000000E-03 0.  1.
         11   -1    0    0    0    0 -0.00000000000E+00 -0.00000000000E+00 -0.45593999997E+02  0.45594000000E+02  0.51100000000E-03 0. -1.
    9900012    2    1    2    0    0  0.17523567698E+02  0.19037771892E+02 -0.18633505267E+02  0.59301957567E+02  0.50000024692E+02 0.  0.
        -12    1    1    2    0    0 -0.17523567698E+02 -0.19037771892E+02  0.18633505267E+02  0.31886042433E+02  0.00000000000E+00 0.  1.
         11    1    3    3    0    0  0.22162629407E+02 -0.81757606701E+01 -0.43277889737E+01  0.24015723233E+02  0.51100000000E-03 0. -1.
        -11    1    3    3    0    0  0.36887689816E+01  0.66715141329E+01 -0.10214917291E+02  0.12746005372E+02  0.51100000000E-03 0.  1.
        -12    1    3    3    0    0 -0.83278306902E+01  0.20542018430E+02 -0.40907990028E+01  0.22540228962E+02  0.00000000000E+00 0.  1.
</event>
<event>
 7    1  0.3802554E-013  0.5930178E+02  0.7816164E-02  0.1266605E+00
        -11   -1    0    0    0    0  0.00000000000E+00  0.00000000000E+00  0.45593999997E+02  0.45594000000E+02  0.51100000000E-03 0.  1.
         11   -1    0    0    0    0 -0.00000000000E+00 -0.00000000000E+00 -0.45593999997E+02  0.45594000000E+02  0.51100000000E-03 0. -1.
    9900012    2    1    2    0    0 -0.29086231942E+02  0.13006031762E+02 -0.12512261400E+01  0.59301775426E+02  0.49999692509E+02 0.  0.
        -12    1    1    2    0    0  0.29086231942E+02 -0.13006031762E+02  0.12512261400E+01  0.31886224574E+02  0.00000000000E+00 0.  1.
         11    1    3    3    0    0 -0.27791151088E+02  0.30730581055E+01 -0.11946947967E+02  0.30405942362E+02  0.51100000000E-03 0. -1.
        -11    1    3    3    0    0  0.38310863727E+01  0.82329441081E+01 -0.63069384201E+01  0.11056041967E+02  0.51100000000E-03 0.  1.
        -12    1    3    3    0    0 -0.51261672260E+01  0.17000295488E+01  0.17002660247E+02  0.17839791097E+02  0.00000000000E+00 0.  1.
</event>
<event>
 7    1  0.3802554E-013  0.5930194E+02  0.7816164E-02  0.1266605E+00
        -11   -1    0    0    0    0  0.00000000000E+00  0.00000000000E+00  0.45593999997E+02  0.45594000000E+02  0.51100000000E-03 0.  1.
         11   -1    0    0    0    0 -0.00000000000E+00 -0.00000000000E+00 -0.45593999997E+02  0.45594000000E+02  0.51100000000E-03 0. -1.
    9900012    2    1    2    0    0 -0.23777689308E+02 -0.20984138345E+02  0.33178206547E+01  0.59301944979E+02  0.50000001735E+02 0.  0.
        -12    1    1    2    0    0  0.23777689308E+02  0.20984138345E+02 -0.33178206547E+01  0.31886055021E+02  0.00000000000E+00 0.  1.
         11    1    3    3    0    0 -0.26341305971E+02  0.43538562462E+01  0.45481278025E+01  0.27083314628E+02  0.51100000000E-03 0. -1.
        -11    1    3    3    0    0 -0.39358133649E+01  0.17363142531E+01 -0.77721422330E+00  0.43714386921E+01  0.51100000000E-03 0.  1.
        -12    1    3    3    0    0  0.64994300282E+01 -0.27074308844E+02 -0.45309292453E+00  0.27847191659E+02  0.00000000000E+00 0.  1.
</event>
<event>
 7    1  0.3802554E-013  0.5930194E+02  0.7816164E-02  0.1266605E+00
        -11   -1    0    0    0    0  0.00000000000E+00  0.00000000000E+00  0.45593999997E+02  0.45594000000E+02  0.51100000000E-03 0. -1.
         11   -1    0    0    0    0 -0.00000000000E+00 -0.00000000000E+00 -0.45593999997E+02  0.45594000000E+02  0.51100000000E-03 0.  1.
    9900012    2    1    2    0    0 -0.27438074336E+02 -0.14461542098E+02 -0.73984132157E+01  0.59301942840E+02  0.49999997834E+02 0.  0.
        -12    1    1    2    0    0  0.27438074336E+02  0.14461542098E+02  0.73984132157E+01  0.31886057160E+02  0.00000000000E+00 0.  1.
         11    1    3    3    0    0  0.78442271026E+01 -0.27321101767E+01  0.28510680234E+01  0.87820791383E+01  0.51100000000E-03 0. -1.
        -11    1    3    3    0    0 -0.23369028941E+02  0.79123134512E+01 -0.12087776149E+02  0.27474179702E+02  0.51100000000E-03 0.  1.
         12    1    3    3    0    0 -0.11913272497E+02 -0.19641745372E+02  0.18382949102E+01  0.23045684000E+02  0.00000000000E+00 0. -1.
</event>
<event>
 7    1  0.3802554E-013  0.5930191E+02  0.7816164E-02  0.1266605E+00
        -11   -1    0    0    0    0  0.00000000000E+00  0.00000000000E+00  0.45593999997E+02  0.45594000000E+02  0.51100000000E-03 0. -1.
         11   -1    0    0    0    0 -0.00000000000E+00 -0.00000000000E+00 -0.45593999997E+02  0.45594000000E+02  0.51100000000E-03 0.  1.
    9900012    2    1    2    0    0 -0.14529776914E+02  0.13697051556E+02  0.24859581768E+02  0.59301914568E+02  0.49999946273E+02 0.  0.
        -12    1    1    2    0    0  0.14529776914E+02 -0.13697051556E+02 -0.24859581768E+02  0.31886085432E+02  0.00000000000E+00 0.  1.
         11    1    3    3    0    0 -0.61151876838E+01 -0.41375890649E+01  0.10487531827E+02  0.12825891305E+02  0.51100000000E-03 0. -1.
        -11    1    3    3    0    0  0.13264943891E+02  0.10170838153E+02  0.16368649664E+02  0.23395242620E+02  0.51100000000E-03 0.  1.
         12    1    3    3    0    0 -0.21679533122E+02  0.76638024677E+01 -0.19965997231E+01  0.23080780643E+02  0.00000000000E+00 0. -1.
</event>
<event>
 7    1  0.3802554E-013  0.5930193E+02  0.7816164E-02  0.1266605E+00
        -11   -1    0    0    0    0  0.00000000000E+00  0.00000000000E+00  0.45593999997E+02  0.45594000000E+02  0.51100000000E-03 0.  1.
         11   -1    0    0    0    0 -0.00000000000E+00 -0.00000000000E+00 -0.45593999997E+02  0.45594000000E+02  0.51100000000E-03 0. -1.
    9900012    2    1    2    0    0  0.10893250175E+01 -0.23814323893E+02 -0.21175756410E+02  0.59301932337E+02  0.49999978678E+02 0.  0.
        -12    1    1    2    0    0 -0.10893250175E+01  0.23814323893E+02  0.21175756410E+02  0.31886067663E+02  0.00000000000E+00 0.  1.
         11    1    3    3    0    0  0.11186475534E+02 -0.21934141466E+02 -0.77188451222E+01  0.25803572756E+02  0.51100000000E-03 0. -1.
        -11    1    3    3    0    0  0.77349741698E+01  0.36660448502E+01  0.25187082001E+01  0.89226454322E+01  0.51100000000E-03 0.  1.
         12    1    3    3    0    0 -0.17832124687E+02 -0.55462272779E+01 -0.15975619488E+02  0.24575714148E+02  0.00000000000E+00 0. -1.
</event>
<event>
 7    1  0.3802554E-013  0.5930194E+02  0.7816164E-02  0.1266605E+00
        -11   -1    0    0    0    0  0.00000000000E+00  0.00000000000E+00  0.45593999997E+02  0.45594000000E+02  0.51100000000E-03 0. -1.
         11   -1    0    0    0    0 -0.00000000000E+00 -0.00000000000E+00 -0.45593999997E+02  0.45594000000E+02  0.51100000000E-03 0.  1.
    9900012    2    1    2    0    0  0.16504453285E+02 -0.25773299062E+02  0.89476641722E+01  0.59301943220E+02  0.49999998528E+02 0.  0.
        -12    1    1    2    0    0 -0.16504453285E+02  0.25773299062E+02 -0.89476641722E+01  0.31886056780E+02  0.00000000000E+00 0.  1.
         11    1    3    3    0    0 -0.30734383760E+01 -0.85487334086E+01 -0.85602377731E+00  0.91246722303E+01  0.51100000000E-03 0.  1.
        -11    1    3    3    0    0  0.30439940800E+02 -0.18649208684E+02  0.33931447620E+00  0.35700113655E+02  0.51100000000E-03 0. -1.
         12    1    3    3    0    0 -0.10862049139E+02  0.14246430296E+01  0.94643734733E+01  0.14477157335E+02  0.00000000000E+00 0. -1.
</event>
<event>
 7    1  0.3802554E-013  0.5930194E+02  0.7816164E-02  0.1266605E+00
        -11   -1    0    0    0    0  0.00000000000E+00  0.00000000000E+00  0.45593999997E+02  0.45594000000E+02  0.51100000000E-03 0. -1.
         11   -1    0    0    0    0 -0.00000000000E+00 -0.00000000000E+00 -0.45593999997E+02  0.45594000000E+02  0.51100000000E-03 0.  1.
    9900012    2    1    2    0    0  0.21788671466E+02 -0.20804888776E+02 -0.10446595976E+02  0.59301937704E+02  0.49999988467E+02 0.  0.
        -12    1    1    2    0    0 -0.21788671466E+02  0.20804888776E+02  0.10446595976E+02  0.31886062296E+02  0.00000000000E+00 0.  1.
         11    1    3    3    0    0  0.61597140854E+01  0.12633893256E+02 -0.94821561879E+01  0.16954899665E+02  0.51100000000E-03 0. -1.
        -11    1    3    3    0    0  0.87524443056E+01 -0.64943314579E+00  0.68977825006E+00  0.88035696754E+01  0.51100000000E-03 0.  1.
        -12    1    3    3    0    0  0.68765130754E+01 -0.32789348887E+02 -0.16542180386E+01  0.33543468363E+02  0.00000000000E+00 0.  1.
</event>
<event>
 7    1  0.3802554E-013  0.5930192E+02  0.7816164E-02  0.1266605E+00
        -11   -1    0    0    0    0  0.00000000000E+00  0.00000000000E+00  0.45593999997E+02  0.45594000000E+02  0.51100000000E-03 0.  1.
         11   -1    0    0    0    0 -0.00000000000E+00 -0.00000000000E+00 -0.45593999997E+02  0.45594000000E+02  0.51100000000E-03 0. -1.
    9900012    2    1    2    0    0 -0.36819688675E+01  0.74378136763E+01 -0.30787076831E+02  0.59301920485E+02  0.49999957064E+02 0.  0.
        -12    1    1    2    0    0  0.36819688675E+01 -0.74378136763E+01  0.30787076831E+02  0.31886079515E+02  0.00000000000E+00 0.  1.
         11    1    3    3    0    0  0.14061526834E+02  0.13708041617E+02 -0.19813176824E+02  0.27896216912E+02  0.51100000000E-03 0. -1.
        -11    1    3    3    0    0  0.29807961671E+01 -0.47495332603E+00  0.41295760200E+01  0.51150879579E+01  0.51100000000E-03 0.  1.
        -12    1    3    3    0    0 -0.20724291869E+02 -0.57952746151E+01 -0.15103476027E+02  0.26290615615E+02  0.00000000000E+00 0.  1.
</event>
<event>
 7    1  0.3802554E-013  0.5930193E+02  0.7816164E-02  0.1266605E+00
        -11   -1    0    0    0    0  0.00000000000E+00  0.00000000000E+00  0.45593999997E+02  0.45594000000E+02  0.51100000000E-03 0.  1.
         11   -1    0    0    0    0 -0.00000000000E+00 -0.00000000000E+00 -0.45593999997E+02  0.45594000000E+02  0.51100000000E-03 0. -1.
    9900012    2    1    2    0    0 -0.29447297589E+02  0.69385084956E+01  0.10071501993E+02  0.59301931132E+02  0.49999976482E+02 0.  0.
        -12    1    1    2    0    0  0.29447297589E+02 -0.69385084956E+01 -0.10071501993E+02  0.31886068868E+02  0.00000000000E+00 0.  1.
         11    1    3    3    0    0 -0.34990138310E+02  0.17556952792E+02  0.12259712894E+02  0.41022639247E+02  0.51100000000E-03 0. -1.
        -11    1    3    3    0    0  0.24531118285E+01 -0.16123112255E+01  0.53717927382E+01  0.61215572051E+01  0.51100000000E-03 0.  1.
        -12    1    3    3    0    0  0.30897288926E+01 -0.90061330711E+01 -0.75600036395E+01  0.12157734680E+02  0.00000000000E+00 0.  1.
</event>
<event>
 7    1  0.3802554E-013  0.5930195E+02  0.7816164E-02  0.1266605E+00
        -11   -1    0    0    0    0  0.00000000000E+00  0.00000000000E+00  0.45593999997E+02  0.45594000000E+02  0.51100000000E-03 0. -1.
         11   -1    0    0    0    0 -0.00000000000E+00 -0.00000000000E+00 -0.45593999997E+02  0.45594000000E+02  0.51100000000E-03 0.  1.
    9900012    2    1    2    0    0  0.97428033062E+01 -0.30329330260E+02 -0.13892092659E+01  0.59301946737E+02  0.50000004941E+02 0.  0.
        -12    1    1    2    0    0 -0.97428033062E+01  0.30329330260E+02  0.13892092659E+01  0.31886053263E+02  0.00000000000E+00 0.  1.
         11    1    3    3    0    0 -0.28210262013E+01  0.73892588620E+00  0.76841449840E+00  0.30157356310E+01  0.51100000000E-03 0. -1.
        -11    1    3    3    0    0  0.17014619180E+02 -0.40613102326E+02  0.37818059774E+01  0.44195287115E+02  0.51100000000E-03 0.  1.
         12    1    3    3    0    0 -0.44507896729E+01  0.95448461798E+01 -0.59394297416E+01  0.12090923991E+02  0.00000000000E+00 0. -1.
</event>
<event>
 7    1  0.3802554E-013  0.5930194E+02  0.7816164E-02  0.1266605E+00
        -11   -1    0    0    0    0  0.00000000000E+00  0.00000000000E+00  0.45593999997E+02  0.45594000000E+02  0.51100000000E-03 0. -1.
         11   -1    0    0    0    0 -0.00000000000E+00 -0.00000000000E+00 -0.45593999997E+02  0.45594000000E+02  0.51100000000E-03 0.  1.
    9900012    2    1    2    0    0 -0.23424404441E+02 -0.18427447355E+02  0.11333444726E+02  0.59301944917E+02  0.50000001621E+02 0.  0.
        -12    1    1    2    0    0  0.23424404441E+02  0.18427447355E+02 -0.11333444726E+02  0.31886055083E+02  0.00000000000E+00 0.  1.
         11    1    3    3    0    0 -0.89562266517E+01 -0.27689423127E+01  0.83181538115E+01  0.12532865612E+02  0.51100000000E-03 0. -1.
        -11    1    3    3    0    0 -0.16269091943E+02  0.10613547300E+02  0.58410551262E+01  0.20284197400E+02  0.51100000000E-03 0.  1.
         12    1    3    3    0    0  0.18009141539E+01 -0.26272052342E+02 -0.28257642117E+01  0.26484881904E+02  0.00000000000E+00 0. -1.
</event>
<event>
 7    1  0.3802554E-013  0.5930195E+02  0.7816164E-02  0.1266605E+00
        -11   -1    0    0    0    0  0.00000000000E+00  0.00000000000E+00  0.45593999997E+02  0.45594000000E+02  0.51100000000E-03 0.  1.
         11   -1    0    0    0    0 -0.00000000000E+00 -0.00000000000E+00 -0.45593999997E+02  0.45594000000E+02  0.51100000000E-03 0. -1.
    9900012    2    1    2    0    0 -0.52817919141E+01  0.27423115395E+02 -0.15388156337E+02  0.59301953848E+02  0.50000017910E+02 0.  0.
        -12    1    1    2    0    0  0.52817919141E+01 -0.27423115395E+02  0.15388156337E+02  0.31886046152E+02  0.00000000000E+00 0.  1.
         11    1    3    3    0    0 -0.44601567774E+01 -0.15806403214E+01 -0.15431919418E+00  0.47344732526E+01  0.51100000000E-03 0. -1.
        -11    1    3    3    0    0  0.10419896643E+02  0.13386771342E+02  0.12315778970E+02  0.20963260836E+02  0.51100000000E-03 0.  1.
         12    1    3    3    0    0 -0.11241531779E+02  0.15616984374E+02 -0.27549616112E+02  0.33604219759E+02  0.00000000000E+00 0. -1.
</event>
<event>
 7    1  0.3802554E-013  0.5930162E+02  0.7816164E-02  0.1266606E+00
        -11   -1    0    0    0    0  0.00000000000E+00  0.00000000000E+00  0.45593999997E+02  0.45594000000E+02  0.51100000000E-03 0. -1.
         11   -1    0    0    0    0 -0.00000000000E+00 -0.00000000000E+00 -0.45593999997E+02  0.45594000000E+02  0.51100000000E-03 0.  1.
    9900012    2    1    2    0    0 -0.29709838331E+01  0.13745144557E+02  0.28617924412E+02  0.59301618244E+02  0.49999405846E+02 0.  0.
        -12    1    1    2    0    0  0.29709838331E+01 -0.13745144557E+02 -0.28617924412E+02  0.31886381756E+02  0.00000000000E+00 0.  1.
         11    1    3    3    0    0  0.11245214095E+02  0.10189911966E+01  0.16768378577E+02  0.20215630177E+02  0.51100000000E-03 0. -1.
        -11    1    3    3    0    0  0.18604680702E+01  0.13379885336E+02  0.17433442924E+02  0.22054650427E+02  0.51100000000E-03 0.  1.
        -12    1    3    3    0    0 -0.16076665998E+02 -0.65373197553E+00 -0.55838970891E+01  0.17031337640E+02  0.00000000000E+00 0.  1.
</event>
<event>
 7    1  0.3802554E-013  0.5930197E+02  0.7816164E-02  0.1266605E+00
        -11   -1    0    0    0    0  0.00000000000E+00  0.00000000000E+00  0.45593999997E+02  0.45594000000E+02  0.51100000000E-03 0.  1.
         11   -1    0    0    0    0 -0.00000000000E+00 -0.00000000000E+00 -0.45593999997E+02  0.45594000000E+02  0.51100000000E-03 0. -1.
    9900012    2    1    2    0    0 -0.26511302507E+02 -0.15012878288E+02 -0.94065620037E+01  0.59301967261E+02  0.50000042373E+02 0.  0.
        -12    1    1    2    0    0  0.26511302507E+02  0.15012878288E+02  0.94065620037E+01  0.31886032739E+02  0.00000000000E+00 0.  1.
         11    1    3    3    0    0 -0.13696019746E+02 -0.10094547845E+02 -0.26782967378E+01  0.17223650216E+02  0.51100000000E-03 0. -1.
        -11    1    3    3    0    0 -0.19475152434E+02 -0.15422464322E+02 -0.13120711200E+02  0.28094252628E+02  0.51100000000E-03 0.  1.
        -12    1    3    3    0    0  0.66598696735E+01  0.10504133879E+02  0.63924459341E+01  0.13984064417E+02  0.00000000000E+00 0.  1.
</event>
<event>
 7    1  0.3802554E-013  0.5930195E+02  0.7816164E-02  0.1266605E+00
        -11   -1    0    0    0    0  0.00000000000E+00  0.00000000000E+00  0.45593999997E+02  0.45594000000E+02  0.51100000000E-03 0.  1.
         11   -1    0    0    0    0 -0.00000000000E+00 -0.00000000000E+00 -0.45593999997E+02  0.45594000000E+02  0.51100000000E-03 0. -1.
    9900012    2    1    2    0    0 -0.12104426983E+02 -0.10414047361E+02 -0.27599824878E+02  0.59301954960E+02  0.50000019937E+02 0.  0.
        -12    1    1    2    0    0  0.12104426983E+02  0.10414047361E+02  0.27599824878E+02  0.31886045040E+02  0.00000000000E+00 0.  1.
         11    1    3    3    0    0 -0.11756983681E+02 -0.93861458067E+01 -0.60610099770E+01  0.16219193586E+02  0.51100000000E-03 0. -1.
        -11    1    3    3    0    0 -0.14771665993E+01 -0.17881920673E+02 -0.33369632815E+01  0.18250491289E+02  0.51100000000E-03 0.  1.
         12    1    3    3    0    0  0.11297232972E+01  0.16854019118E+02 -0.18201851619E+02  0.24832270084E+02  0.00000000000E+00 0. -1.
</event>
<event>
 7    1  0.3802554E-013  0.5930195E+02  0.7816164E-02  0.1266605E+00
        -11   -1    0    0    0    0  0.00000000000E+00  0.00000000000E+00  0.45593999997E+02  0.45594000000E+02  0.51100000000E-03 0.  1.
         11   -1    0    0    0    0 -0.00000000000E+00 -0.00000000000E+00 -0.45593999997E+02  0.45594000000E+02  0.51100000000E-03 0. -1.
    9900012    2    1    2    0    0 -0.19014860489E+02 -0.42871416851E+00 -0.25592414070E+02  0.59301947043E+02  0.50000005500E+02 0.  0.
        -12    1    1    2    0    0  0.19014860489E+02  0.42871416851E+00  0.25592414070E+02  0.31886052957E+02  0.00000000000E+00 0.  1.
         11    1    3    3    0    0 -0.95001595557E+01 -0.19564191234E+00  0.29692939936E+01  0.99553008203E+01  0.51100000000E-03 0. -1.
        -11    1    3    3    0    0 -0.35679948081E+01  0.19335755985E+02 -0.12049596762E+02  0.23060677112E+02  0.51100000000E-03 0.  1.
         12    1    3    3    0    0 -0.59467061249E+01 -0.19568828241E+02 -0.16512111302E+02  0.26285969111E+02  0.00000000000E+00 0. -1.
</event>
<event>
 7    1  0.3802554E-013  0.5930192E+02  0.7816164E-02  0.1266605E+00
        -11   -1    0    0    0    0  0.00000000000E+00  0.00000000000E+00  0.45593999997E+02  0.45594000000E+02  0.51100000000E-03 0. -1.
         11   -1    0    0    0    0 -0.00000000000E+00 -0.00000000000E+00 -0.45593999997E+02  0.45594000000E+02  0.51100000000E-03 0.  1.
    9900012    2    1    2    0    0 -0.24151073487E+02  0.11798980329E+02  0.17153183449E+02  0.59301921693E+02  0.49999959267E+02 0.  0.
        -12    1    1    2    0    0  0.24151073487E+02 -0.11798980329E+02 -0.17153183449E+02  0.31886078307E+02  0.00000000000E+00 0.  1.
         11    1    3    3    0    0 -0.27563419599E+01  0.20812202585E+02 -0.55827950468E+01  0.21723553997E+02  0.51100000000E-03 0. -1.
        -11    1    3    3    0    0  0.32277904345E+00  0.29286016943E+01 -0.11449540190E+01  0.31609831005E+01  0.51100000000E-03 0.  1.
         12    1    3    3    0    0 -0.21717510570E+02 -0.11941823950E+02  0.23880932515E+02  0.34417384596E+02  0.00000000000E+00 0. -1.
</event>
<event>
 7    1  0.3802554E-013  0.5930194E+02  0.7816164E-02  0.1266605E+00
        -11   -1    0    0    0    0  0.00000000000E+00  0.00000000000E+00  0.45593999997E+02  0.45594000000E+02  0.51100000000E-03 0.  1.
         11   -1    0    0    0    0 -0.00000000000E+00 -0.00000000000E+00 -0.45593999997E+02  0.45594000000E+02  0.51100000000E-03 0. -1.
    9900012    2    1    2    0    0  0.27360554643E+02  0.59482972113E+00 -0.16363590998E+02  0.59301939046E+02  0.49999990915E+02 0.  0.
        -12    1    1    2    0    0 -0.27360554643E+02 -0.59482972113E+00  0.16363590998E+02  0.31886060954E+02  0.00000000000E+00 0.  1.
         11    1    3    3    0    0  0.10629960400E+01  0.66640686284E+01 -0.11594385187E+02  0.13415272617E+02  0.51100000000E-03 0. -1.
        -11    1    3    3    0    0 -0.42681456287E+01  0.76911543824E+01 -0.84095337676E+01  0.12169272012E+02  0.51100000000E-03 0.  1.
        -12    1    3    3    0    0  0.30565704232E+02 -0.13760393290E+02  0.36403279565E+01  0.33717394418E+02  0.00000000000E+00 0.  1.
</event>
<event>
 7    1  0.3802554E-013  0.5930194E+02  0.7816164E-02  0.1266605E+00
        -11   -1    0    0    0    0  0.00000000000E+00  0.00000000000E+00  0.45593999997E+02  0.45594000000E+02  0.51100000000E-03 0.  1.
         11   -1    0    0    0    0 -0.00000000000E+00 -0.00000000000E+00 -0.45593999997E+02  0.45594000000E+02  0.51100000000E-03 0. -1.
    9900012    2    1    2    0    0  0.13425826519E+02  0.16594193063E+02 -0.23687567871E+02  0.59301938268E+02  0.49999989496E+02 0.  0.
        -12    1    1    2    0    0 -0.13425826519E+02 -0.16594193063E+02  0.23687567871E+02  0.31886061732E+02  0.00000000000E+00 0.  1.
         11    1    3    3    0    0 -0.35554262224E+01  0.50050827604E+01 -0.17596931290E+02  0.18637164488E+02  0.51100000000E-03 0. -1.
        -11    1    3    3    0    0 -0.80899342615E+01 -0.16848240916E+01 -0.89155090993E+01  0.12156149528E+02  0.51100000000E-03 0.  1.
        -12    1    3    3    0    0  0.25071187003E+02  0.13273934395E+02  0.28248725185E+01  0.28508624253E+02  0.00000000000E+00 0.  1.
</event>
<event>
 7    1  0.3802554E-013  0.5930200E+02  0.7816164E-02  0.1266605E+00
        -11   -1    0    0    0    0  0.00000000000E+00  0.00000000000E+00  0.45593999997E+02  0.45594000000E+02  0.51100000000E-03 0.  1.
         11   -1    0    0    0    0 -0.00000000000E+00 -0.00000000000E+00 -0.45593999997E+02  0.45594000000E+02  0.51100000000E-03 0. -1.
    9900012    2    1    2    0    0 -0.53477297171E+01 -0.22483442980E+02 -0.21968466137E+02  0.59302001101E+02  0.50000104088E+02 0.  0.
        -12    1    1    2    0    0  0.53477297171E+01  0.22483442980E+02  0.21968466137E+02  0.31885998899E+02  0.00000000000E+00 0.  1.
         11    1    3    3    0    0 -0.34181474067E+01  0.96480607800E+01 -0.18787303248E+02  0.21394662234E+02  0.51100000000E-03 0. -1.
        -11    1    3    3    0    0  0.27097135747E+01 -0.34562428544E+01  0.60065047353E+01  0.74408508735E+01  0.51100000000E-03 0.  1.
        -12    1    3    3    0    0 -0.46392958851E+01 -0.28675260905E+02 -0.91876676242E+01  0.30466487994E+02  0.00000000000E+00 0.  1.
</event>
<event>
 7    1  0.3802554E-013  0.5930193E+02  0.7816164E-02  0.1266605E+00
        -11   -1    0    0    0    0  0.00000000000E+00  0.00000000000E+00  0.45593999997E+02  0.45594000000E+02  0.51100000000E-03 0. -1.
         11   -1    0    0    0    0 -0.00000000000E+00 -0.00000000000E+00 -0.45593999997E+02  0.45594000000E+02  0.51100000000E-03 0.  1.
    9900012    2    1    2    0    0  0.23995470308E+02  0.19586177333E+02  0.75710276600E+01  0.59301930978E+02  0.49999976201E+02 0.  0.
        -12    1    1    2    0    0 -0.23995470308E+02 -0.19586177333E+02 -0.75710276600E+01  0.31886069022E+02  0.00000000000E+00 0.  1.
         11    1    3    3    0    0  0.21851072700E+02  0.86489544080E+01  0.15221426445E+02  0.27999385953E+02  0.51100000000E-03 0. -1.
        -11    1    3    3    0    0  0.19343565211E+01 -0.89083996500E+01 -0.69153996661E+01  0.11442205744E+02  0.51100000000E-03 0.  1.
        -12    1    3    3    0    0  0.21004108722E+00  0.19845622575E+02 -0.73499911890E+00  0.19860339281E+02  0.00000000000E+00 0.  1.
</event>
<event>
 7    1  0.3802554E-013  0.5930194E+02  0.7816164E-02  0.1266605E+00
        -11   -1    0    0    0    0  0.00000000000E+00  0.00000000000E+00  0.45593999997E+02  0.45594000000E+02  0.51100000000E-03 0.  1.
         11   -1    0    0    0    0 -0.00000000000E+00 -0.00000000000E+00 -0.45593999997E+02  0.45594000000E+02  0.51100000000E-03 0. -1.
    9900012    2    1    2    0    0  0.36519131307E+01 -0.22378933638E+02 -0.22418027424E+02  0.59301935742E+02  0.49999984888E+02 0.  0.
        -12    1    1    2    0    0 -0.36519131307E+01  0.22378933638E+02  0.22418027424E+02  0.31886064258E+02  0.00000000000E+00 0.  1.
         11    1    3    3    0    0 -0.99447247476E+01 -0.67896033237E+01 -0.15923288269E+02  0.19963651298E+02  0.51100000000E-03 0. -1.
        -11    1    3    3    0    0 -0.95066303840E+01 -0.54247207644E+01 -0.87278395584E+01  0.13999242846E+02  0.51100000000E-03 0.  1.
        -12    1    3    3    0    0  0.23103268262E+02 -0.10164609550E+02  0.22331004028E+01  0.25339041598E+02  0.00000000000E+00 0.  1.
</event>
<event>
 7    1  0.3802554E-013  0.5930192E+02  0.7816164E-02  0.1266605E+00
        -11   -1    0    0    0    0  0.00000000000E+00  0.00000000000E+00  0.45593999997E+02  0.45594000000E+02  0.51100000000E-03 0. -1.
         11   -1    0    0    0    0 -0.00000000000E+00 -0.00000000000E+00 -0.45593999997E+02  0.45594000000E+02  0.51100000000E-03 0.  1.
    9900012    2    1    2    0    0 -0.26299821839E+02 -0.17813454218E+02 -0.27788499790E+01  0.59301924871E+02  0.49999965063E+02 0.  0.
        -12    1    1    2    0    0  0.26299821839E+02  0.17813454218E+02  0.27788499790E+01  0.31886075129E+02  0.00000000000E+00 0.  1.
         11    1    3    3    0    0 -0.80198182084E+01  0.45003541568E+01  0.26287418346E+01  0.95645677124E+01  0.51100000000E-03 0. -1.
        -11    1    3    3    0    0 -0.22241889573E+02 -0.15960780260E+02  0.12673574095E+02  0.30167327341E+02  0.51100000000E-03 0.  1.
        -12    1    3    3    0    0  0.39618859430E+01 -0.63530281151E+01 -0.18081165909E+02  0.19570029818E+02  0.00000000000E+00 0.  1.
</event>
<event>
 7    1  0.3802554E-013  0.5930189E+02  0.7816164E-02  0.1266605E+00
        -11   -1    0    0    0    0  0.00000000000E+00  0.00000000000E+00  0.45593999997E+02  0.45594000000E+02  0.51100000000E-03 0. -1.
         11   -1    0    0    0    0 -0.00000000000E+00 -0.00000000000E+00 -0.45593999997E+02  0.45594000000E+02  0.51100000000E-03 0.  1.
    9900012    2    1    2    0    0 -0.52429166905E+01  0.17245715333E+02  0.26302490774E+02  0.59301891838E+02  0.49999904819E+02 0.  0.
        -12    1    1    2    0    0  0.52429166905E+01 -0.17245715333E+02 -0.26302490774E+02  0.31886108162E+02  0.00000000000E+00 0.  1.
         11    1    3    3    0    0 -0.29087060309E+01 -0.13338068150E+02  0.14002956275E+01  0.13723172405E+02  0.51100000000E-03 0. -1.
        -11    1    3    3    0    0  0.24950484785E+01 -0.10720983073E+01  0.98087814034E+01  0.10177762749E+02  0.51100000000E-03 0.  1.
        -12    1    3    3    0    0 -0.48292591381E+01  0.31655881791E+02  0.15093413743E+02  0.35400956685E+02  0.00000000000E+00 0.  1.
</event>
<event>
 7    1  0.3802554E-013  0.5930196E+02  0.7816164E-02  0.1266605E+00
        -11   -1    0    0    0    0  0.00000000000E+00  0.00000000000E+00  0.45593999997E+02  0.45594000000E+02  0.51100000000E-03 0. -1.
         11   -1    0    0    0    0 -0.00000000000E+00 -0.00000000000E+00 -0.45593999997E+02  0.45594000000E+02  0.51100000000E-03 0.  1.
    9900012    2    1    2    0    0  0.11059624904E+02  0.12464856993E+02  0.27185138041E+02  0.59301957706E+02  0.50000024945E+02 0.  0.
        -12    1    1    2    0    0 -0.11059624904E+02 -0.12464856993E+02 -0.27185138041E+02  0.31886042294E+02  0.00000000000E+00 0.  1.
         11    1    3    3    0    0 -0.55938348109E+01  0.65132372568E+01  0.82543298765E+01  0.11909962612E+02  0.51100000000E-03 0. -1.
        -11    1    3    3    0    0 -0.63509500386E+00 -0.91290742554E+01  0.22392840288E+02  0.24190548544E+02  0.51100000000E-03 0.  1.
        -12    1    3    3    0    0  0.17288554719E+02  0.15080693992E+02 -0.34620321235E+01  0.23201446549E+02  0.00000000000E+00 0.  1.
</event>
<event>
 7    1  0.3802554E-013  0.5930195E+02  0.7816164E-02  0.1266605E+00
        -11   -1    0    0    0    0  0.00000000000E+00  0.00000000000E+00  0.45593999997E+02  0.45594000000E+02  0.51100000000E-03 0. -1.
         11   -1    0    0    0    0 -0.00000000000E+00 -0.00000000000E+00 -0.45593999997E+02  0.45594000000E+02  0.51100000000E-03 0.  1.
    9900012    2    1    2    0    0  0.18117863030E+02 -0.24378712006E+02  0.97026532983E+01  0.59301952253E+02  0.50000015002E+02 0.  0.
        -12    1    1    2    0    0 -0.18117863030E+02  0.24378712006E+02 -0.97026532983E+01  0.31886047747E+02  0.00000000000E+00 0.  1.
         11    1    3    3    0    0  0.18312785576E+02 -0.71280147423E+01  0.52673240061E+01  0.20344812906E+02  0.51100000000E-03 0. -1.
        -11    1    3    3    0    0  0.43624542417E+01 -0.18717970599E+02  0.16907249007E+02  0.25597822165E+02  0.51100000000E-03 0.  1.
        -12    1    3    3    0    0 -0.45573767875E+01  0.14672733350E+01 -0.12471919715E+02  0.13359317183E+02  0.00000000000E+00 0.  1.
</event>
<event>
 7    1  0.3802554E-013  0.5930196E+02  0.7816164E-02  0.1266605E+00
        -11   -1    0    0    0    0  0.00000000000E+00  0.00000000000E+00  0.45593999997E+02  0.45594000000E+02  0.51100000000E-03 0.  1.
         11   -1    0    0    0    0 -0.00000000000E+00 -0.00000000000E+00 -0.45593999997E+02  0.45594000000E+02  0.51100000000E-03 0. -1.
    9900012    2    1    2    0    0  0.24987475668E+02  0.16723232285E+02 -0.10615048372E+02  0.59301957751E+02  0.50000025028E+02 0.  0.
        -12    1    1    2    0    0 -0.24987475668E+02 -0.16723232285E+02  0.10615048372E+02  0.31886042249E+02  0.00000000000E+00 0.  1.
         11    1    3    3    0    0 -0.53650155797E+01 -0.14396144850E+01  0.25137582925E+00  0.55604920739E+01  0.51100000000E-03 0. -1.
        -11    1    3    3    0    0  0.12527198490E+02  0.17434577888E+01  0.14103715224E+02  0.18944263787E+02  0.51100000000E-03 0.  1.
         12    1    3    3    0    0  0.17825292759E+02  0.16419388981E+02 -0.24970139426E+02  0.34797201890E+02  0.00000000000E+00 0. -1.
</event>
<event>
 7    1  0.3802554E-013  0.5930193E+02  0.7816164E-02  0.1266605E+00
        -11   -1    0    0    0    0  0.00000000000E+00  0.00000000000E+00  0.45593999997E+02  0.45594000000E+02  0.51100000000E-03 0. -1.
         11   -1    0    0    0    0 -0.00000000000E+00 -0.00000000000E+00 -0.45593999997E+02  0.45594000000E+02  0.51100000000E-03 0.  1.
    9900012    2    1    2    0    0 -0.19021714718E+02 -0.18329040687E+02  0.17858947804E+02  0.59301931256E+02  0.49999976707E+02 0.  0.
        -12    1    1    2    0    0  0.19021714718E+02  0.18329040687E+02 -0.17858947804E+02  0.31886068744E+02  0.00000000000E+00 0.  1.
         11    1    3    3    0    0  0.60887460367E+01 -0.13187653591E+02 -0.25347050679E+01  0.14744889473E+02  0.51100000000E-03 0. -1.
        -11    1    3    3    0    0 -0.93031558876E+00 -0.12194116593E+02  0.13035599936E+00  0.12230247729E+02  0.51100000000E-03 0.  1.
        -12    1    3    3    0    0 -0.24180145166E+02  0.70527294972E+01  0.20263296873E+02  0.32326794053E+02  0.00000000000E+00 0.  1.
</event>
<event>
 7    1  0.3802554E-013  0.5930190E+02  0.7816164E-02  0.1266605E+00
        -11   -1    0    0    0    0  0.00000000000E+00  0.00000000000E+00  0.45593999997E+02  0.45594000000E+02  0.51100000000E-03 0.  1.
         11   -1    0    0    0    0 -0.00000000000E+00 -0.00000000000E+00 -0.45593999997E+02  0.45594000000E+02  0.51100000000E-03 0. -1.
    9900012    2    1    2    0    0  0.25476010924E+02 -0.18212818759E+02 -0.59991029880E+01  0.59301903713E+02  0.49999926476E+02 0.  0.
        -12    1    1    2    0    0 -0.25476010924E+02  0.18212818759E+02  0.59991029880E+01  0.31886096287E+02  0.00000000000E+00 0.  1.
         11    1    3    3    0    0  0.10927758790E+00 -0.28545883315E+01 -0.89885454830E+01  0.94315728431E+01  0.51100000000E-03 0. -1.
        -11    1    3    3    0    0  0.43360007001E+01 -0.24654377894E+02 -0.50017832338E+01  0.25527575036E+02  0.51100000000E-03 0.  1.
        -12    1    3    3    0    0  0.21030732636E+02  0.92961474670E+01  0.79912257288E+01  0.24342755834E+02  0.00000000000E+00 0.  1.
</event>
<event>
 7    1  0.3802554E-013  0.5930195E+02  0.7816164E-02  0.1266605E+00
        -11   -1    0    0    0    0  0.00000000000E+00  0.00000000000E+00  0.45593999997E+02  0.45594000000E+02  0.51100000000E-03 0.  1.
         11   -1    0    0    0    0 -0.00000000000E+00 -0.00000000000E+00 -0.45593999997E+02  0.45594000000E+02  0.51100000000E-03 0. -1.
    9900012    2    1    2    0    0  0.35215753133E+01 -0.12460954075E+02 -0.29138350745E+02  0.59301947354E+02  0.50000006067E+02 0.  0.
        -12    1    1    2    0    0 -0.35215753133E+01  0.12460954075E+02  0.29138350745E+02  0.31886052646E+02  0.00000000000E+00 0.  1.
         11    1    3    3    0    0 -0.62873345710E+01  0.29598713738E+01 -0.14216001173E+02  0.15823593277E+02  0.51100000000E-03 0. -1.
        -11    1    3    3    0    0  0.15399938131E+01  0.87090138137E+01 -0.15632773966E+02  0.17961128157E+02  0.51100000000E-03 0.  1.
        -12    1    3    3    0    0  0.82689160712E+01 -0.24129839263E+02  0.71042439416E+00  0.25517225920E+02  0.00000000000E+00 0.  1.
</event>
<event>
 7    1  0.3802554E-013  0.5930195E+02  0.7816164E-02  0.1266605E+00
        -11   -1    0    0    0    0  0.00000000000E+00  0.00000000000E+00  0.45593999997E+02  0.45594000000E+02  0.51100000000E-03 0. -1.
         11   -1    0    0    0    0 -0.00000000000E+00 -0.00000000000E+00 -0.45593999997E+02  0.45594000000E+02  0.51100000000E-03 0.  1.
    9900012    2    1    2    0    0 -0.29099728025E+01  0.31187494472E+02  0.59659262764E+01  0.59301952432E+02  0.50000015328E+02 0.  0.
        -12    1    1    2    0    0  0.29099728025E+01 -0.31187494472E+02 -0.59659262764E+01  0.31886047568E+02  0.00000000000E+00 0.  1.
         11    1    3    3    0    0 -0.54891158814E+01  0.19583662365E+01  0.13631671591E+01  0.59853000293E+01  0.51100000000E-03 0. -1.
        -11    1    3    3    0    0 -0.10914353817E+02  0.26414141287E+02 -0.12632348065E+02  0.31247499053E+02  0.51100000000E-03 0.  1.
         12    1    3    3    0    0  0.13493496896E+02  0.28149869487E+01  0.17235107182E+02  0.22069153350E+02  0.00000000000E+00 0. -1.
</event>
<event>
 7    1  0.3802554E-013  0.5930194E+02  0.7816164E-02  0.1266605E+00
        -11   -1    0    0    0    0  0.00000000000E+00  0.00000000000E+00  0.45593999997E+02  0.45594000000E+02  0.51100000000E-03 0.  1.
         11   -1    0    0    0    0 -0.00000000000E+00 -0.00000000000E+00 -0.45593999997E+02  0.45594000000E+02  0.51100000000E-03 0. -1.
    9900012    2    1    2    0    0 -0.13628329035E+02 -0.33554327795E+01 -0.28630936477E+02  0.59301940272E+02  0.49999993150E+02 0.  0.
        -12    1    1    2    0    0  0.13628329035E+02  0.33554327795E+01  0.28630936477E+02  0.31886059728E+02  0.00000000000E+00 0.  1.
         11    1    3    3    0    0  0.10666454919E+02  0.75711042632E+01 -0.14191016803E+02  0.19299736746E+02  0.51100000000E-03 0. -1.
        -11    1    3    3    0    0  0.46960346529E+01  0.17900956628E+01 -0.46989317742E+01  0.68801994174E+01  0.51100000000E-03 0.  1.
         12    1    3    3    0    0 -0.28990818607E+02 -0.12716632706E+02 -0.97409878998E+01  0.33122004108E+02  0.00000000000E+00 0. -1.
</event>
<event>
 7    1  0.3802554E-013  0.5930197E+02  0.7816164E-02  0.1266605E+00
        -11   -1    0    0    0    0  0.00000000000E+00  0.00000000000E+00  0.45593999997E+02  0.45594000000E+02  0.51100000000E-03 0. -1.
         11   -1    0    0    0    0 -0.00000000000E+00 -0.00000000000E+00 -0.45593999997E+02  0.45594000000E+02  0.51100000000E-03 0.  1.
    9900012    2    1    2    0    0  0.19194517886E+02 -0.11645029655E+02  0.22642502569E+02  0.59301966143E+02  0.50000040333E+02 0.  0.
        -12    1    1    2    0    0 -0.19194517886E+02  0.11645029655E+02 -0.22642502569E+02  0.31886033857E+02  0.00000000000E+00 0.  1.
         11    1    3    3    0    0  0.61154896121E+01 -0.99068773221E+01  0.15238572760E+02  0.19177057425E+02  0.51100000000E-03 0. -1.
        -11    1    3    3    0    0  0.23425618153E+02  0.21692529809E+01  0.13873438872E+02  0.27311857328E+02  0.51100000000E-03 0.  1.
         12    1    3    3    0    0 -0.10346589879E+02 -0.39074053134E+01 -0.64695090624E+01  0.12813051390E+02  0.00000000000E+00 0. -1.
</event>
<event>
 7    1  0.3802554E-013  0.5930194E+02  0.7816164E-02  0.1266605E+00
        -11   -1    0    0    0    0  0.00000000000E+00  0.00000000000E+00  0.45593999997E+02  0.45594000000E+02  0.51100000000E-03 0.  1.
         11   -1    0    0    0    0 -0.00000000000E+00 -0.00000000000E+00 -0.45593999997E+02  0.45594000000E+02  0.51100000000E-03 0. -1.
    9900012    2    1    2    0    0  0.49173125193E+01  0.22331150997E+02 -0.22222979706E+02  0.59301935735E+02  0.49999984877E+02 0.  0.
        -12    1    1    2    0    0 -0.49173125193E+01 -0.22331150997E+02  0.22222979706E+02  0.31886064265E+02  0.00000000000E+00 0.  1.
         11    1    3    3    0    0  0.11750164060E+02  0.21439488951E+02 -0.22219851276E+02  0.33036946482E+02  0.51100000000E-03 0. -1.
        -11    1    3    3    0    0 -0.18555664872E+00  0.77744568572E+01 -0.98399152792E+01  0.12541951350E+02  0.51100000000E-03 0.  1.
        -12    1    3    3    0    0 -0.66472948916E+01 -0.68827948116E+01  0.98367868484E+01  0.13723037903E+02  0.00000000000E+00 0.  1.
</event>
<event>
 7    1  0.3802554E-013  0.5930196E+02  0.7816164E-02  0.1266605E+00
        -11   -1    0    0    0    0  0.00000000000E+00  0.00000000000E+00  0.45593999997E+02  0.45594000000E+02  0.51100000000E-03 0.  1.
         11   -1    0    0    0    0 -0.00000000000E+00 -0.00000000000E+00 -0.45593999997E+02  0.45594000000E+02  0.51100000000E-03 0. -1.
    9900012    2    1    2    0    0  0.13283619797E+02 -0.28885651461E+02 -0.24257773695E+01  0.59301955857E+02  0.50000021574E+02 0.  0.
        -12    1    1    2    0    0 -0.13283619797E+02  0.28885651461E+02  0.24257773695E+01  0.31886044143E+02  0.00000000000E+00 0.  1.
         11    1    3    3    0    0 -0.38498018898E+01 -0.10035767633E+02 -0.18328169104E+02  0.21247573733E+02  0.51100000000E-03 0. -1.
        -11    1    3    3    0    0  0.70179016231E+01 -0.18632900881E+02  0.86436470536E+00  0.19929452202E+02  0.51100000000E-03 0.  1.
         12    1    3    3    0    0  0.10115520064E+02 -0.21698294635E+00  0.15038027029E+02  0.18124929922E+02  0.00000000000E+00 0. -1.
</event>
<event>
 7    1  0.3802554E-013  0.5930196E+02  0.7816164E-02  0.1266605E+00
        -11   -1    0    0    0    0  0.00000000000E+00  0.00000000000E+00  0.45593999997E+02  0.45594000000E+02  0.51100000000E-03 0.  1.
         11   -1    0    0    0    0 -0.00000000000E+00 -0.00000000000E+00 -0.45593999997E+02  0.45594000000E+02  0.51100000000E-03 0. -1.
    9900012    2    1    2    0    0 -0.63180331130E+01 -0.28487662264E+02 -0.12855162553E+02  0.59301958415E+02  0.50000026239E+02 0.  0.
        -12    1    1    2    0    0  0.63180331130E+01  0.28487662264E+02  0.12855162553E+02  0.31886041585E+02  0.00000000000E+00 0.  1.
         11    1    3    3    0    0  0.12505817505E+01 -0.12757136799E+01  0.45230528964E+01  0.48630656866E+01  0.51100000000E-03 0. -1.
        -11    1    3    3    0    0  0.11884743982E+02 -0.17537354360E+02  0.64961141226E+01  0.22158642477E+02  0.51100000000E-03 0.  1.
        -12    1    3    3    0    0 -0.19453358846E+02 -0.96745942243E+01 -0.23874329572E+02  0.32280250252E+02  0.00000000000E+00 0.  1.
</event>
<event>
 7    1  0.3802554E-013  0.5930195E+02  0.7816164E-02  0.1266605E+00
        -11   -1    0    0    0    0  0.00000000000E+00  0.00000000000E+00  0.45593999997E+02  0.45594000000E+02  0.51100000000E-03 0.  1.
         11   -1    0    0    0    0 -0.00000000000E+00 -0.00000000000E+00 -0.45593999997E+02  0.45594000000E+02  0.51100000000E-03 0. -1.
    9900012    2    1    2    0    0  0.21505011165E+02  0.21650953993E+02  0.92461261357E+01  0.59301950347E+02  0.50000011524E+02 0.  0.
        -12    1    1    2    0    0 -0.21505011165E+02 -0.21650953993E+02 -0.92461261357E+01  0.31886049653E+02  0.00000000000E+00 0.  1.
         11    1    3    3    0    0  0.22582747305E+02  0.21441825712E+02  0.37840623596E+01  0.31369595054E+02  0.51100000000E-03 0. -1.
        -11    1    3    3    0    0  0.84388475318E+01 -0.79366005820E+01  0.92729017951E+01  0.14838816814E+02  0.51100000000E-03 0.  1.
        -12    1    3    3    0    0 -0.95165836718E+01  0.81457288629E+01 -0.38108380190E+01  0.13093538479E+02  0.00000000000E+00 0.  1.
</event>
<event>
 7    1  0.3802554E-013  0.5930200E+02  0.7816164E-02  0.1266605E+00
        -11   -1    0    0    0    0  0.00000000000E+00  0.00000000000E+00  0.45593999997E+02  0.45594000000E+02  0.51100000000E-03 0.  1.
         11   -1    0    0    0    0 -0.00000000000E+00 -0.00000000000E+00 -0.45593999997E+02  0.45594000000E+02  0.51100000000E-03 0. -1.
    9900012    2    1    2    0    0  0.99665651743E+01 -0.27136355124E+02 -0.13453724630E+02  0.59302001549E+02  0.50000104905E+02 0.  0.
        -12    1    1    2    0    0 -0.99665651743E+01  0.27136355124E+02  0.13453724630E+02  0.31885998451E+02  0.00000000000E+00 0.  1.
         11    1    3    3    0    0 -0.65718794088E+01 -0.31730809415E+01  0.13916613366E+01  0.74293178126E+01  0.51100000000E-03 0. -1.
        -11    1    3    3    0    0 -0.12722518336E+02 -0.10067197543E+02 -0.10160200226E+02  0.19142638482E+02  0.51100000000E-03 0.  1.
         12    1    3    3    0    0  0.29260962919E+02 -0.13896076640E+02 -0.46851857409E+01  0.32730045254E+02  0.00000000000E+00 0. -1.
</event>
<event>
 7    1  0.3802554E-013  0.5930194E+02  0.7816164E-02  0.1266605E+00
        -11   -1    0    0    0    0  0.00000000000E+00  0.00000000000E+00  0.45593999997E+02  0.45594000000E+02  0.51100000000E-03 0. -1.
         11   -1    0    0    0    0 -0.00000000000E+00 -0.00000000000E+00 -0.45593999997E+02  0.45594000000E+02  0.51100000000E-03 0.  1.
    9900012    2    1    2    0    0  0.87619681016E+00 -0.30480086380E+02  0.93229566689E+01  0.59301938662E+02  0.49999990215E+02 0.  0.
        -12    1    1    2    0    0 -0.87619681016E+00  0.30480086380E+02 -0.93229566689E+01  0.31886061338E+02  0.00000000000E+00 0.  1.
         11    1    3    3    0    0 -0.59491187463E+01 -0.39750686759E+01 -0.81362232360E+01  0.10834727207E+02  0.51100000000E-03 0. -1.
        -11    1    3    3    0    0  0.11904841607E+02 -0.11269551874E+02 -0.80971541559E+01  0.18283652776E+02  0.51100000000E-03 0.  1.
         12    1    3    3    0    0 -0.50795260505E+01 -0.15235465830E+02  0.25556334061E+02  0.30183558680E+02  0.00000000000E+00 0. -1.
</event>
<event>
 7    1  0.3802554E-013  0.5930194E+02  0.7816164E-02  0.1266605E+00
        -11   -1    0    0    0    0  0.00000000000E+00  0.00000000000E+00  0.45593999997E+02  0.45594000000E+02  0.51100000000E-03 0. -1.
         11   -1    0    0    0    0 -0.00000000000E+00 -0.00000000000E+00 -0.45593999997E+02  0.45594000000E+02  0.51100000000E-03 0.  1.
    9900012    2    1    2    0    0  0.31210105256E+02  0.15116260082E+00  0.65289795593E+01  0.59301935735E+02  0.49999984876E+02 0.  0.
        -12    1    1    2    0    0 -0.31210105256E+02 -0.15116260082E+00 -0.65289795593E+01  0.31886064265E+02  0.00000000000E+00 0.  1.
         11    1    3    3    0    0 -0.17966010826E+01  0.49856936703E+01  0.67703711554E+01  0.85978394186E+01  0.51100000000E-03 0. -1.
        -11    1    3    3    0    0 -0.62091547756E+01  0.63019509168E+01  0.40162695424E+01  0.97158946929E+01  0.51100000000E-03 0.  1.
         12    1    3    3    0    0  0.39215861114E+02 -0.11136481986E+02 -0.42576611386E+01  0.40988201624E+02  0.00000000000E+00 0. -1.
</event>
<event>
 7    1  0.3802554E-013  0.5930194E+02  0.7816164E-02  0.1266605E+00
        -11   -1    0    0    0    0  0.00000000000E+00  0.00000000000E+00  0.45593999997E+02  0.45594000000E+02  0.51100000000E-03 0.  1.
         11   -1    0    0    0    0 -0.00000000000E+00 -0.00000000000E+00 -0.45593999997E+02  0.45594000000E+02  0.51100000000E-03 0. -1.
    9900012    2    1    2    0    0 -0.11754060909E+02  0.21350580809E+02 -0.20560045004E+02  0.59301941929E+02  0.49999996173E+02 0.  0.
        -12    1    1    2    0    0  0.11754060909E+02 -0.21350580809E+02  0.20560045004E+02  0.31886058071E+02  0.00000000000E+00 0.  1.
         11    1    3    3    0    0  0.45462317789E+00  0.16148133101E+02 -0.12888069748E+02  0.20665701706E+02  0.51100000000E-03 0. -1.
        -11    1    3    3    0    0 -0.23556344079E+01 -0.12532999305E+01 -0.20815918911E+02  0.20986239647E+02  0.51100000000E-03 0.  1.
        -12    1    3    3    0    0 -0.98530496790E+01  0.64557476375E+01  0.13143943655E+02  0.17650000576E+02  0.00000000000E+00 0.  1.
</event>
<event>
 7    1  0.4019550E-013  0.5930194E+02  0.7816164E-02  0.1266605E+00
        -11   -1    0    0    0    0  0.00000000000E+00  0.00000000000E+00  0.45593999997E+02  0.45594000000E+02  0.51100000000E-03 0. -1.
         11   -1    0    0    0    0 -0.00000000000E+00 -0.00000000000E+00 -0.45593999997E+02  0.45594000000E+02  0.51100000000E-03 0.  1.
    9900012    2    1    2    0    0  0.11710726423E+02 -0.38386354552E+01  0.29408244453E+02  0.59301936001E+02  0.49999985362E+02 0.  0.
        -12    1    1    2    0    0 -0.11710726423E+02  0.38386354552E+01 -0.29408244453E+02  0.31886063999E+02  0.00000000000E+00 0.  1.
         11    1    3    3    0    0  0.18042386861E+02  0.25332772172E+01  0.15959607112E+02  0.24220947061E+02  0.51100000000E-03 0. -1.
        -11    1    3    3    0    0 -0.22659465581E+01  0.15523389374E+01  0.22332850996E+02  0.22501122280E+02  0.51100000000E-03 0.  1.
        -12    1    3    3    0    0 -0.40657138799E+01 -0.79242516098E+01 -0.88842136547E+01  0.12579866660E+02  0.00000000000E+00 0.  1.
</event>
<event>
 7    1  0.3802554E-013  0.5930193E+02  0.7816164E-02  0.1266605E+00
        -11   -1    0    0    0    0  0.00000000000E+00  0.00000000000E+00  0.45593999997E+02  0.45594000000E+02  0.51100000000E-03 0. -1.
         11   -1    0    0    0    0 -0.00000000000E+00 -0.00000000000E+00 -0.45593999997E+02  0.45594000000E+02  0.51100000000E-03 0.  1.
    9900012    2    1    2    0    0  0.76121698967E+00  0.14811185866E+02  0.28227131391E+02  0.59301927419E+02  0.49999969710E+02 0.  0.
        -12    1    1    2    0    0 -0.76121698967E+00 -0.14811185866E+02 -0.28227131391E+02  0.31886072581E+02  0.00000000000E+00 0.  1.
         11    1    3    3    0    0 -0.15780817891E+01  0.15847301999E+02  0.90428916506E+01  0.18313962227E+02  0.51100000000E-03 0. -1.
        -11    1    3    3    0    0  0.63719846736E+00  0.74507444601E+01 -0.88857884461E+01  0.11613649360E+02  0.51100000000E-03 0.  1.
         12    1    3    3    0    0  0.17021003114E+01 -0.84868605935E+01  0.28070028186E+02  0.29374315832E+02  0.00000000000E+00 0. -1.
</event>
<event>
 7    1  0.3802554E-013  0.5930195E+02  0.7816164E-02  0.1266605E+00
        -11   -1    0    0    0    0  0.00000000000E+00  0.00000000000E+00  0.45593999997E+02  0.45594000000E+02  0.51100000000E-03 0. -1.
         11   -1    0    0    0    0 -0.00000000000E+00 -0.00000000000E+00 -0.45593999997E+02  0.45594000000E+02  0.51100000000E-03 0.  1.
    9900012    2    1    2    0    0 -0.12553177168E+02 -0.26760831506E+02  0.11958072931E+02  0.59301954962E+02  0.50000019942E+02 0.  0.
        -12    1    1    2    0    0  0.12553177168E+02  0.26760831506E+02 -0.11958072931E+02  0.31886045038E+02  0.00000000000E+00 0.  1.
         11    1    3    3    0    0 -0.98882169463E+01 -0.29804658519E+02  0.10110944362E+02  0.32989781751E+02  0.51100000000E-03 0. -1.
        -11    1    3    3    0    0  0.31019659285E+01  0.70643073624E+00 -0.11314731729E+02  0.11753484222E+02  0.51100000000E-03 0.  1.
         12    1    3    3    0    0 -0.57669261505E+01  0.23373962769E+01  0.13161860298E+02  0.14558688989E+02  0.00000000000E+00 0. -1.
</event>
<event>
 7    1  0.3802554E-013  0.5930195E+02  0.7816164E-02  0.1266605E+00
        -11   -1    0    0    0    0  0.00000000000E+00  0.00000000000E+00  0.45593999997E+02  0.45594000000E+02  0.51100000000E-03 0.  1.
         11   -1    0    0    0    0 -0.00000000000E+00 -0.00000000000E+00 -0.45593999997E+02  0.45594000000E+02  0.51100000000E-03 0. -1.
    9900012    2    1    2    0    0 -0.31684536703E+02  0.21186732110E+01  0.28846779594E+01  0.59301952751E+02  0.50000015909E+02 0.  0.
        -12    1    1    2    0    0  0.31684536703E+02 -0.21186732110E+01 -0.28846779594E+01  0.31886047249E+02  0.00000000000E+00 0.  1.
         11    1    3    3    0    0 -0.18400640266E+02 -0.74620541341E+01 -0.85808967805E+01  0.21630940893E+02  0.51100000000E-03 0. -1.
        -11    1    3    3    0    0 -0.36587295049E+01 -0.10228908928E+02 -0.30621993776E+01  0.11286892608E+02  0.51100000000E-03 0.  1.
        -12    1    3    3    0    0 -0.96251669315E+01  0.19809636274E+02  0.14527774117E+02  0.26384119249E+02  0.00000000000E+00 0.  1.
</event>
<event>
 7    1  0.3802554E-013  0.5930173E+02  0.7816164E-02  0.1266606E+00
        -11   -1    0    0    0    0  0.00000000000E+00  0.00000000000E+00  0.45593999997E+02  0.45594000000E+02  0.51100000000E-03 0.  1.
         11   -1    0    0    0    0 -0.00000000000E+00 -0.00000000000E+00 -0.45593999997E+02  0.45594000000E+02  0.51100000000E-03 0. -1.
    9900012    2    1    2    0    0 -0.10269422860E+02  0.31352583207E+01 -0.30024047467E+02  0.59301728394E+02  0.49999606734E+02 0.  0.
        -12    1    1    2    0    0  0.10269422860E+02 -0.31352583207E+01  0.30024047467E+02  0.31886271606E+02  0.00000000000E+00 0.  1.
         11    1    3    3    0    0  0.79807131946E+01  0.78511759955E+01 -0.16243609112E+02  0.19727837815E+02  0.51100000000E-03 0. -1.
        -11    1    3    3    0    0  0.99835012030E+00 -0.14163818656E+02 -0.10981018856E+02  0.17949741983E+02  0.51100000000E-03 0.  1.
        -12    1    3    3    0    0 -0.19248486175E+02  0.94479009809E+01 -0.27994194988E+01  0.21624148596E+02  0.00000000000E+00 0.  1.
</event>
<event>
 7    1  0.3802554E-013  0.5930194E+02  0.7816164E-02  0.1266605E+00
        -11   -1    0    0    0    0  0.00000000000E+00  0.00000000000E+00  0.45593999997E+02  0.45594000000E+02  0.51100000000E-03 0.  1.
         11   -1    0    0    0    0 -0.00000000000E+00 -0.00000000000E+00 -0.45593999997E+02  0.45594000000E+02  0.51100000000E-03 0. -1.
    9900012    2    1    2    0    0 -0.28148507649E+02 -0.13962390159E+02 -0.54252902862E+01  0.59301943541E+02  0.49999999112E+02 0.  0.
        -12    1    1    2    0    0  0.28148507649E+02  0.13962390159E+02  0.54252902862E+01  0.31886056459E+02  0.00000000000E+00 0.  1.
         11    1    3    3    0    0  0.10675393007E+01 -0.20357310654E+02  0.19212929866E+01  0.20475622194E+02  0.51100000000E-03 0. -1.
        -11    1    3    3    0    0 -0.51810954590E+01  0.10709467470E+02  0.30569529976E+01  0.12283379240E+02  0.51100000000E-03 0.  1.
        -12    1    3    3    0    0 -0.24034951491E+02 -0.43145469756E+01 -0.10403536270E+02  0.26542942107E+02  0.00000000000E+00 0.  1.
</event>
<event>
 7    1  0.3802554E-013  0.5930207E+02  0.7816164E-02  0.1266604E+00
        -11   -1    0    0    0    0  0.00000000000E+00  0.00000000000E+00  0.45593999997E+02  0.45594000000E+02  0.51100000000E-03 0.  1.
         11   -1    0    0    0    0 -0.00000000000E+00 -0.00000000000E+00 -0.45593999997E+02  0.45594000000E+02  0.51100000000E-03 0. -1.
    9900012    2    1    2    0    0  0.21248583832E+02 -0.23773811021E+02 -0.12657471130E+00  0.59302071655E+02  0.50000232760E+02 0.  0.
        -12    1    1    2    0    0 -0.21248583832E+02  0.23773811021E+02  0.12657471130E+00  0.31885928345E+02  0.00000000000E+00 0.  1.
         11    1    3    3    0    0  0.21098343767E+01  0.13120246442E+01  0.17606848434E+01  0.30451307268E+01  0.51100000000E-03 0. -1.
        -11    1    3    3    0    0  0.65541185313E+01 -0.94816098455E+01  0.22142704615E+02  0.24963108038E+02  0.51100000000E-03 0.  1.
         12    1    3    3    0    0  0.12584630924E+02 -0.15604225819E+02 -0.24029964170E+02  0.31293832890E+02  0.00000000000E+00 0. -1.
</event>
<event>
 7    1  0.3802554E-013  0.5930188E+02  0.7816164E-02  0.1266605E+00
        -11   -1    0    0    0    0  0.00000000000E+00  0.00000000000E+00  0.45593999997E+02  0.45594000000E+02  0.51100000000E-03 0. -1.
         11   -1    0    0    0    0 -0.00000000000E+00 -0.00000000000E+00 -0.45593999997E+02  0.45594000000E+02  0.51100000000E-03 0.  1.
    9900012    2    1    2    0    0 -0.21871607344E+02  0.19665545945E+02  0.12313564491E+02  0.59301878009E+02  0.49999879598E+02 0.  0.
        -12    1    1    2    0    0  0.21871607344E+02 -0.19665545945E+02 -0.12313564491E+02  0.31886121991E+02  0.00000000000E+00 0.  1.
         11    1    3    3    0    0 -0.86454199630E+01 -0.12913148104E+02  0.65155814689E+00  0.15553687941E+02  0.51100000000E-03 0.  1.
        -11    1    3    3    0    0 -0.17386841916E+02  0.16021196063E+02  0.10905556002E+01  0.23667917248E+02  0.51100000000E-03 0. -1.
        -12    1    3    3    0    0  0.41606545343E+01  0.16557497985E+02  0.10571450744E+02  0.20080272820E+02  0.00000000000E+00 0.  1.
</event>
<event>
 7    1  0.3802554E-013  0.5930202E+02  0.7816164E-02  0.1266605E+00
        -11   -1    0    0    0    0  0.00000000000E+00  0.00000000000E+00  0.45593999997E+02  0.45594000000E+02  0.51100000000E-03 0.  1.
         11   -1    0    0    0    0 -0.00000000000E+00 -0.00000000000E+00 -0.45593999997E+02  0.45594000000E+02  0.51100000000E-03 0. -1.
    9900012    2    1    2    0    0  0.25497301404E+02 -0.48051362104E+01 -0.18534138732E+02  0.59302015440E+02  0.50000130238E+02 0.  0.
        -12    1    1    2    0    0 -0.25497301404E+02  0.48051362104E+01  0.18534138732E+02  0.31885984560E+02  0.00000000000E+00 0.  1.
         11    1    3    3    0    0  0.16664984831E+02 -0.10914911781E+02 -0.32479935086E+02  0.38102535376E+02  0.51100000000E-03 0. -1.
        -11    1    3    3    0    0  0.44233601193E+01 -0.32958182524E+01  0.39599708190E+01  0.67904272212E+01  0.51100000000E-03 0.  1.
        -12    1    3    3    0    0  0.44089564533E+01  0.94055938234E+01  0.99858255359E+01  0.14409052842E+02  0.00000000000E+00 0.  1.
</event>
<event>
 7    1  0.3802554E-013  0.5930206E+02  0.7816164E-02  0.1266604E+00
        -11   -1    0    0    0    0  0.00000000000E+00  0.00000000000E+00  0.45593999997E+02  0.45594000000E+02  0.51100000000E-03 0.  1.
         11   -1    0    0    0    0 -0.00000000000E+00 -0.00000000000E+00 -0.45593999997E+02  0.45594000000E+02  0.51100000000E-03 0. -1.
    9900012    2    1    2    0    0  0.73376024869E+01 -0.15453273906E+02 -0.26908531875E+02  0.59302059959E+02  0.50000211430E+02 0.  0.
        -12    1    1    2    0    0 -0.73376024869E+01  0.15453273906E+02  0.26908531875E+02  0.31885940041E+02  0.00000000000E+00 0.  1.
         11    1    3    3    0    0 -0.56897897359E+01 -0.17602676058E+02 -0.22921962116E+02  0.29455801791E+02  0.51100000000E-03 0. -1.
        -11    1    3    3    0    0  0.45573224001E+01  0.26783235957E+01 -0.15022022439E+02  0.15924941543E+02  0.51100000000E-03 0.  1.
        -12    1    3    3    0    0  0.84700698227E+01 -0.52892144425E+00  0.11035452680E+02  0.13921316624E+02  0.00000000000E+00 0.  1.
</event>
<event>
 7    1  0.3802554E-013  0.5930192E+02  0.7816164E-02  0.1266605E+00
        -11   -1    0    0    0    0  0.00000000000E+00  0.00000000000E+00  0.45593999997E+02  0.45594000000E+02  0.51100000000E-03 0. -1.
         11   -1    0    0    0    0 -0.00000000000E+00 -0.00000000000E+00 -0.45593999997E+02  0.45594000000E+02  0.51100000000E-03 0.  1.
    9900012    2    1    2    0    0  0.35248551941E+01  0.31351775585E+02 -0.46220777450E+01  0.59301920920E+02  0.49999957856E+02 0.  0.
        -12    1    1    2    0    0 -0.35248551941E+01 -0.31351775585E+02  0.46220777450E+01  0.31886079080E+02  0.00000000000E+00 0.  1.
         11    1    3    3    0    0  0.30475819585E+01  0.29515902775E+02  0.79975472879E+01  0.30731694312E+02  0.51100000000E-03 0. -1.
        -11    1    3    3    0    0  0.65884812265E+01  0.90499714112E+01  0.17893314657E+01  0.11336303400E+02  0.51100000000E-03 0.  1.
        -12    1    3    3    0    0 -0.61112079908E+01 -0.72140986017E+01 -0.14408956499E+02  0.17233923207E+02  0.00000000000E+00 0.  1.
</event>
<event>
 7    1  0.3802554E-013  0.5930203E+02  0.7816164E-02  0.1266604E+00
        -11   -1    0    0    0    0  0.00000000000E+00  0.00000000000E+00  0.45593999997E+02  0.45594000000E+02  0.51100000000E-03 0. -1.
         11   -1    0    0    0    0 -0.00000000000E+00 -0.00000000000E+00 -0.45593999997E+02  0.45594000000E+02  0.51100000000E-03 0.  1.
    9900012    2    1    2    0    0 -0.21290198132E+02  0.23444077438E+02 -0.37172444635E+01  0.59302028009E+02  0.50000153162E+02 0.  0.
        -12    1    1    2    0    0  0.21290198132E+02 -0.23444077438E+02  0.37172444635E+01  0.31885971991E+02  0.00000000000E+00 0.  1.
         11    1    3    3    0    0  0.35288351513E+01  0.19431429732E+01 -0.59151529326E+00  0.40716547917E+01  0.51100000000E-03 0. -1.
        -11    1    3    3    0    0 -0.15115403050E+02 -0.12605342485E+02 -0.10258764149E+01  0.19708437056E+02  0.51100000000E-03 0.  1.
         12    1    3    3    0    0 -0.97036302331E+01  0.34106276949E+02 -0.20998527553E+01  0.35521936161E+02  0.00000000000E+00 0. -1.
</event>
<event>
 7    1  0.3802554E-013  0.5930196E+02  0.7816164E-02  0.1266605E+00
        -11   -1    0    0    0    0  0.00000000000E+00  0.00000000000E+00  0.45593999997E+02  0.45594000000E+02  0.51100000000E-03 0.  1.
         11   -1    0    0    0    0 -0.00000000000E+00 -0.00000000000E+00 -0.45593999997E+02  0.45594000000E+02  0.51100000000E-03 0. -1.
    9900012    2    1    2    0    0  0.16371551960E+02 -0.14757044848E+02 -0.23041738122E+02  0.59301956315E+02  0.50000022409E+02 0.  0.
        -12    1    1    2    0    0 -0.16371551960E+02  0.14757044848E+02  0.23041738122E+02  0.31886043685E+02  0.00000000000E+00 0.  1.
         11    1    3    3    0    0  0.21233715050E+01  0.67519398712E+00  0.15811930360E+01  0.27321722396E+01  0.51100000000E-03 0. -1.
        -11    1    3    3    0    0 -0.34631217064E+01  0.15202857574E+01  0.11953005520E+02  0.12537097828E+02  0.51100000000E-03 0.  1.
         12    1    3    3    0    0  0.17711302162E+02 -0.16952524592E+02 -0.36575936677E+02  0.44032686247E+02  0.00000000000E+00 0. -1.
</event>
<event>
 7    1  0.3802554E-013  0.5930195E+02  0.7816164E-02  0.1266605E+00
        -11   -1    0    0    0    0  0.00000000000E+00  0.00000000000E+00  0.45593999997E+02  0.45594000000E+02  0.51100000000E-03 0.  1.
         11   -1    0    0    0    0 -0.00000000000E+00 -0.00000000000E+00 -0.45593999997E+02  0.45594000000E+02  0.51100000000E-03 0. -1.
    9900012    2    1    2    0    0 -0.12703547243E+02  0.85234452299E+01 -0.27976612685E+02  0.59301951508E+02  0.50000013642E+02 0.  0.
        -12    1    1    2    0    0  0.12703547243E+02 -0.85234452299E+01  0.27976612685E+02  0.31886048492E+02  0.00000000000E+00 0.  1.
         11    1    3    3    0    0  0.95363966215E+00  0.60085283323E+01 -0.80806566234E+01  0.10114783886E+02  0.51100000000E-03 0. -1.
        -11    1    3    3    0    0 -0.20570009850E+02  0.68978628402E+01 -0.29467604414E+02  0.36592971007E+02  0.51100000000E-03 0.  1.
        -12    1    3    3    0    0  0.69128229451E+01 -0.43829459427E+01  0.95716483519E+01  0.12594196615E+02  0.00000000000E+00 0.  1.
</event>
<event>
 7    1  0.3802554E-013  0.5930197E+02  0.7816164E-02  0.1266605E+00
        -11   -1    0    0    0    0  0.00000000000E+00  0.00000000000E+00  0.45593999997E+02  0.45594000000E+02  0.51100000000E-03 0.  1.
         11   -1    0    0    0    0 -0.00000000000E+00 -0.00000000000E+00 -0.45593999997E+02  0.45594000000E+02  0.51100000000E-03 0. -1.
    9900012    2    1    2    0    0 -0.19744325439E+02  0.79696094944E+00 -0.25024895500E+02  0.59301969696E+02  0.50000046813E+02 0.  0.
        -12    1    1    2    0    0  0.19744325439E+02 -0.79696094944E+00  0.25024895500E+02  0.31886030304E+02  0.00000000000E+00 0.  1.
         11    1    3    3    0    0  0.39403646757E+01  0.77381837507E+01  0.49343541091E+01  0.99876830282E+01  0.51100000000E-03 0. -1.
        -11    1    3    3    0    0 -0.97628360906E+01  0.10685419788E+02 -0.40613173339E+01  0.15032812888E+02  0.51100000000E-03 0.  1.
        -12    1    3    3    0    0 -0.13921854024E+02 -0.17626642589E+02 -0.25897932275E+02  0.34281473780E+02  0.00000000000E+00 0.  1.
</event>
<event>
 7    1  0.3802554E-013  0.5930194E+02  0.7816164E-02  0.1266605E+00
        -11   -1    0    0    0    0  0.00000000000E+00  0.00000000000E+00  0.45593999997E+02  0.45594000000E+02  0.51100000000E-03 0.  1.
         11   -1    0    0    0    0 -0.00000000000E+00 -0.00000000000E+00 -0.45593999997E+02  0.45594000000E+02  0.51100000000E-03 0. -1.
    9900012    2    1    2    0    0 -0.19830473204E+01 -0.14035932448E+02 -0.28561876317E+02  0.59301942622E+02  0.49999997437E+02 0.  0.
        -12    1    1    2    0    0  0.19830473204E+01  0.14035932448E+02  0.28561876317E+02  0.31886057378E+02  0.00000000000E+00 0.  1.
         11    1    3    3    0    0  0.15753064511E+02 -0.71681536187E+01 -0.29213576819E+02  0.33955478771E+02  0.51100000000E-03 0. -1.
        -11    1    3    3    0    0 -0.31971259848E+01  0.18527986537E+01  0.64458593751E+01  0.74299112214E+01  0.51100000000E-03 0.  1.
        -12    1    3    3    0    0 -0.14538985846E+02 -0.87205774827E+01 -0.57941588734E+01  0.17916552629E+02  0.00000000000E+00 0.  1.
</event>
<event>
 7    1  0.3802554E-013  0.5930190E+02  0.7816164E-02  0.1266605E+00
        -11   -1    0    0    0    0  0.00000000000E+00  0.00000000000E+00  0.45593999997E+02  0.45594000000E+02  0.51100000000E-03 0.  1.
         11   -1    0    0    0    0 -0.00000000000E+00 -0.00000000000E+00 -0.45593999997E+02  0.45594000000E+02  0.51100000000E-03 0. -1.
    9900012    2    1    2    0    0  0.14344043496E+02  0.11560275725E+02 -0.26025594762E+02  0.59301903636E+02  0.49999926335E+02 0.  0.
        -12    1    1    2    0    0 -0.14344043496E+02 -0.11560275725E+02  0.26025594762E+02  0.31886096364E+02  0.00000000000E+00 0.  1.
         11    1    3    3    0    0  0.56400159863E+01  0.12681739926E+02 -0.16422341918E+02  0.21501851600E+02  0.51100000000E-03 0. -1.
        -11    1    3    3    0    0  0.58194364142E+01  0.14134239485E+02  0.53982913481E+01  0.16210617377E+02  0.51100000000E-03 0.  1.
         12    1    3    3    0    0  0.28845910950E+01 -0.15255703687E+02 -0.15001544192E+02  0.21589434659E+02  0.00000000000E+00 0. -1.
</event>
<event>
 7    1  0.3802554E-013  0.5930192E+02  0.7816164E-02  0.1266605E+00
        -11   -1    0    0    0    0  0.00000000000E+00  0.00000000000E+00  0.45593999997E+02  0.45594000000E+02  0.51100000000E-03 0.  1.
         11   -1    0    0    0    0 -0.00000000000E+00 -0.00000000000E+00 -0.45593999997E+02  0.45594000000E+02  0.51100000000E-03 0. -1.
    9900012    2    1    2    0    0  0.18122278658E+02  0.10607107691E+02  0.23995713275E+02  0.59301921958E+02  0.49999959750E+02 0.  0.
        -12    1    1    2    0    0 -0.18122278658E+02 -0.10607107691E+02 -0.23995713275E+02  0.31886078042E+02  0.00000000000E+00 0.  1.
         11    1    3    3    0    0 -0.46271179854E+01 -0.10019412773E+02 -0.47694254267E+00  0.11046552748E+02  0.51100000000E-03 0. -1.
        -11    1    3    3    0    0 -0.24651709983E+01  0.13647003920E+02  0.15005623799E+02  0.20432487119E+02  0.51100000000E-03 0.  1.
         12    1    3    3    0    0  0.25214567642E+02  0.69795165447E+01  0.94670320185E+01  0.27822882090E+02  0.00000000000E+00 0. -1.
</event>
<event>
 7    1  0.3802554E-013  0.5930181E+02  0.7816164E-02  0.1266605E+00
        -11   -1    0    0    0    0  0.00000000000E+00  0.00000000000E+00  0.45593999997E+02  0.45594000000E+02  0.51100000000E-03 0.  1.
         11   -1    0    0    0    0 -0.00000000000E+00 -0.00000000000E+00 -0.45593999997E+02  0.45594000000E+02  0.51100000000E-03 0. -1.
    9900012    2    1    2    0    0 -0.12800341099E+01  0.30965271670E+02  0.74995011185E+01  0.59301810922E+02  0.49999757246E+02 0.  0.
        -12    1    1    2    0    0  0.12800341099E+01 -0.30965271670E+02 -0.74995011185E+01  0.31886189078E+02  0.00000000000E+00 0.  1.
         11    1    3    3    0    0  0.79740330644E+00  0.25057614592E+02 -0.83724856110E+00  0.25084275682E+02  0.51100000000E-03 0. -1.
        -11    1    3    3    0    0 -0.14802920874E+02  0.10825441005E+02  0.92589499985E+01  0.20543728841E+02  0.51100000000E-03 0.  1.
         12    1    3    3    0    0  0.12725483458E+02 -0.49177839274E+01 -0.92220031893E+00  0.13673806399E+02  0.00000000000E+00 0. -1.
</event>
<event>
 7    1  0.3802554E-013  0.5930195E+02  0.7816164E-02  0.1266605E+00
        -11   -1    0    0    0    0  0.00000000000E+00  0.00000000000E+00  0.45593999997E+02  0.45594000000E+02  0.51100000000E-03 0. -1.
         11   -1    0    0    0    0 -0.00000000000E+00 -0.00000000000E+00 -0.45593999997E+02  0.45594000000E+02  0.51100000000E-03 0.  1.
    9900012    2    1    2    0    0  0.24467958178E+02 -0.19023438728E+02  0.74931986403E+01  0.59301949378E+02  0.50000009757E+02 0.  0.
        -12    1    1    2    0    0 -0.24467958178E+02  0.19023438728E+02 -0.74931986403E+01  0.31886050622E+02  0.00000000000E+00 0.  1.
         11    1    3    3    0    0  0.57125001283E+00  0.42479646584E+00 -0.32964887618E+01  0.33724793598E+01  0.51100000000E-03 0. -1.
        -11    1    3    3    0    0  0.64413720142E+01 -0.13978894748E+02 -0.16826757144E+02  0.22804397121E+02  0.51100000000E-03 0.  1.
         12    1    3    3    0    0  0.17455336151E+02 -0.54693404455E+01  0.27616444546E+02  0.33125072897E+02  0.00000000000E+00 0. -1.
</event>
<event>
 7    1  0.3802554E-013  0.5930195E+02  0.7816164E-02  0.1266605E+00
        -11   -1    0    0    0    0  0.00000000000E+00  0.00000000000E+00  0.45593999997E+02  0.45594000000E+02  0.51100000000E-03 0. -1.
         11   -1    0    0    0    0 -0.00000000000E+00 -0.00000000000E+00 -0.45593999997E+02  0.45594000000E+02  0.51100000000E-03 0.  1.
    9900012    2    1    2    0    0 -0.22429874895E+02  0.12153736426E+02  0.19128718519E+02  0.59301945539E+02  0.50000002757E+02 0.  0.
        -12    1    1    2    0    0  0.22429874895E+02 -0.12153736426E+02 -0.19128718519E+02  0.31886054461E+02  0.00000000000E+00 0.  1.
         11    1    3    3    0    0 -0.13956820217E+02  0.49291416300E+01 -0.86704356221E+01  0.17154175058E+02  0.51100000000E-03 0. -1.
        -11    1    3    3    0    0 -0.17982562661E+01 -0.11243449050E+02  0.14475890108E+02  0.18417390336E+02  0.51100000000E-03 0.  1.
         12    1    3    3    0    0 -0.66747984111E+01  0.18468043845E+02  0.13323264033E+02  0.23730380145E+02  0.00000000000E+00 0. -1.
</event>
<event>
 7    1  0.3802554E-013  0.5930199E+02  0.7816164E-02  0.1266605E+00
        -11   -1    0    0    0    0  0.00000000000E+00  0.00000000000E+00  0.45593999997E+02  0.45594000000E+02  0.51100000000E-03 0.  1.
         11   -1    0    0    0    0 -0.00000000000E+00 -0.00000000000E+00 -0.45593999997E+02  0.45594000000E+02  0.51100000000E-03 0. -1.
    9900012    2    1    2    0    0 -0.22426136644E+02 -0.12839526911E+02 -0.18679742938E+02  0.59301986573E+02  0.50000077592E+02 0.  0.
        -12    1    1    2    0    0  0.22426136644E+02  0.12839526911E+02  0.18679742938E+02  0.31886013427E+02  0.00000000000E+00 0.  1.
         11    1    3    3    0    0 -0.12126834933E+02 -0.54100701590E+01 -0.47135976217E+01  0.14090670226E+02  0.51100000000E-03 0. -1.
        -11    1    3    3    0    0 -0.65441670103E+01 -0.12376140231E+02  0.12045461841E+02  0.18468571144E+02  0.51100000000E-03 0.  1.
         12    1    3    3    0    0 -0.37551347010E+01  0.49466834798E+01 -0.26011607157E+02  0.26742745202E+02  0.00000000000E+00 0. -1.
</event>
<event>
 7    1  0.3802554E-013  0.5930195E+02  0.7816164E-02  0.1266605E+00
        -11   -1    0    0    0    0  0.00000000000E+00  0.00000000000E+00  0.45593999997E+02  0.45594000000E+02  0.51100000000E-03 0. -1.
         11   -1    0    0    0    0 -0.00000000000E+00 -0.00000000000E+00 -0.45593999997E+02  0.45594000000E+02  0.51100000000E-03 0.  1.
    9900012    2    1    2    0    0 -0.44759717538E+01 -0.22811508857E+02  0.21824782721E+02  0.59301946618E+02  0.50000004724E+02 0.  0.
        -12    1    1    2    0    0  0.44759717538E+01  0.22811508857E+02 -0.21824782721E+02  0.31886053382E+02  0.00000000000E+00 0.  1.
         11    1    3    3    0    0  0.91516340062E+01 -0.67393118380E+01  0.62990853963E+01  0.12994198941E+02  0.51100000000E-03 0. -1.
        -11    1    3    3    0    0  0.10880786166E+02 -0.94831390572E+01 -0.31809782538E+01  0.14779717754E+02  0.51100000000E-03 0.  1.
        -12    1    3    3    0    0 -0.24508391926E+02 -0.65890579620E+01  0.18706675578E+02  0.31528029923E+02  0.00000000000E+00 0.  1.
</event>
<event>
 7    1  0.3802554E-013  0.5930191E+02  0.7816164E-02  0.1266605E+00
        -11   -1    0    0    0    0  0.00000000000E+00  0.00000000000E+00  0.45593999997E+02  0.45594000000E+02  0.51100000000E-03 0. -1.
         11   -1    0    0    0    0 -0.00000000000E+00 -0.00000000000E+00 -0.45593999997E+02  0.45594000000E+02  0.51100000000E-03 0.  1.
    9900012    2    1    2    0    0 -0.25194541636E+02  0.19269946251E+02  0.32599305999E+01  0.59301907353E+02  0.49999933114E+02 0.  0.
        -12    1    1    2    0    0  0.25194541636E+02 -0.19269946251E+02 -0.32599305999E+01  0.31886092647E+02  0.00000000000E+00 0.  1.
         11    1    3    3    0    0  0.57537221699E+01  0.22129106529E+01  0.66570843153E+01  0.90729854077E+01  0.51100000000E-03 0. -1.
        -11    1    3    3    0    0 -0.80462558195E+00  0.11233964780E+02 -0.13800709824E+02  0.17813168694E+02  0.51100000000E-03 0.  1.
         12    1    3    3    0    0 -0.30143638224E+02  0.58230708178E+01  0.10403556109E+02  0.32415753251E+02  0.00000000000E+00 0. -1.
</event>
<event>
 7    1  0.3802554E-013  0.5930192E+02  0.7816164E-02  0.1266605E+00
        -11   -1    0    0    0    0  0.00000000000E+00  0.00000000000E+00  0.45593999997E+02  0.45594000000E+02  0.51100000000E-03 0. -1.
         11   -1    0    0    0    0 -0.00000000000E+00 -0.00000000000E+00 -0.45593999997E+02  0.45594000000E+02  0.51100000000E-03 0.  1.
    9900012    2    1    2    0    0 -0.16441287340E+02  0.13235236794E+02  0.23900510944E+02  0.59301923952E+02  0.49999963387E+02 0.  0.
        -12    1    1    2    0    0  0.16441287340E+02 -0.13235236794E+02 -0.23900510944E+02  0.31886076048E+02  0.00000000000E+00 0.  1.
         11    1    3    3    0    0 -0.99581509770E+01  0.11725847346E+01  0.93240083348E+01  0.13692218868E+02  0.51100000000E-03 0. -1.
        -11    1    3    3    0    0 -0.10229629287E+02  0.18608572954E+02  0.24963346498E+02  0.32773357645E+02  0.51100000000E-03 0.  1.
        -12    1    3    3    0    0  0.37464929237E+01 -0.65459208947E+01 -0.10386843889E+02  0.12836347439E+02  0.00000000000E+00 0.  1.
</event>
<event>
 7    1  0.3802554E-013  0.5930168E+02  0.7816164E-02  0.1266606E+00
        -11   -1    0    0    0    0  0.00000000000E+00  0.00000000000E+00  0.45593999997E+02  0.45594000000E+02  0.51100000000E-03 0.  1.
         11   -1    0    0    0    0 -0.00000000000E+00 -0.00000000000E+00 -0.45593999997E+02  0.45594000000E+02  0.51100000000E-03 0. -1.
    9900012    2    1    2    0    0  0.30567831073E+02 -0.38134528280E+01 -0.82342441710E+01  0.59301678543E+02  0.49999515818E+02 0.  0.
        -12    1    1    2    0    0 -0.30567831073E+02  0.38134528280E+01  0.82342441710E+01  0.31886321457E+02  0.00000000000E+00 0.  1.
         11    1    3    3    0    0  0.32989427999E+01  0.10491029233E+01 -0.12307508957E+02  0.12785085746E+02  0.51100000000E-03 0. -1.
        -11    1    3    3    0    0 -0.40713395891E+01  0.59328692192E+01 -0.84355144959E+01  0.11087499641E+02  0.51100000000E-03 0.  1.
        -12    1    3    3    0    0  0.31340227862E+02 -0.10795424971E+02  0.12508779282E+02  0.35429093156E+02  0.00000000000E+00 0.  1.
</event>
<event>
 7    1  0.3802554E-013  0.5930192E+02  0.7816164E-02  0.1266605E+00
        -11   -1    0    0    0    0  0.00000000000E+00  0.00000000000E+00  0.45593999997E+02  0.45594000000E+02  0.51100000000E-03 0. -1.
         11   -1    0    0    0    0 -0.00000000000E+00 -0.00000000000E+00 -0.45593999997E+02  0.45594000000E+02  0.51100000000E-03 0.  1.
    9900012    2    1    2    0    0 -0.99870494404E+01  0.25904183014E+02  0.15682928980E+02  0.59301919721E+02  0.49999955671E+02 0.  0.
        -12    1    1    2    0    0  0.99870494404E+01 -0.25904183014E+02 -0.15682928980E+02  0.31886080279E+02  0.00000000000E+00 0.  1.
         11    1    3    3    0    0 -0.44023290756E+01  0.15499551136E+02  0.83944070649E+01  0.18168177040E+02  0.51100000000E-03 0. -1.
        -11    1    3    3    0    0 -0.14129043291E+02  0.17576994073E+02 -0.64313826019E+01  0.23450869225E+02  0.51100000000E-03 0.  1.
         12    1    3    3    0    0  0.85443229259E+01 -0.71723621958E+01  0.13719904517E+02  0.17682873457E+02  0.00000000000E+00 0. -1.
</event>
<event>
 7    1  0.3802554E-013  0.5930194E+02  0.7816164E-02  0.1266605E+00
        -11   -1    0    0    0    0  0.00000000000E+00  0.00000000000E+00  0.45593999997E+02  0.45594000000E+02  0.51100000000E-03 0. -1.
         11   -1    0    0    0    0 -0.00000000000E+00 -0.00000000000E+00 -0.45593999997E+02  0.45594000000E+02  0.51100000000E-03 0.  1.
    9900012    2    1    2    0    0 -0.12956492659E+02 -0.24870138924E+02  0.15176503835E+02  0.59301940651E+02  0.49999993842E+02 0.  0.
        -12    1    1    2    0    0  0.12956492659E+02  0.24870138924E+02 -0.15176503835E+02  0.31886059349E+02  0.00000000000E+00 0.  1.
         11    1    3    3    0    0  0.18182190125E+02 -0.56639401221E+01  0.71696174843E+01  0.20348849367E+02  0.51100000000E-03 0. -1.
        -11    1    3    3    0    0 -0.14458290819E+02 -0.34125212405E+01  0.79666722900E+00  0.14876899999E+02  0.51100000000E-03 0.  1.
        -12    1    3    3    0    0 -0.16680391965E+02 -0.15793677562E+02  0.72102191216E+01  0.24076191285E+02  0.00000000000E+00 0.  1.
</event>
<event>
 7    1  0.3802554E-013  0.5930195E+02  0.7816164E-02  0.1266605E+00
        -11   -1    0    0    0    0  0.00000000000E+00  0.00000000000E+00  0.45593999997E+02  0.45594000000E+02  0.51100000000E-03 0.  1.
         11   -1    0    0    0    0 -0.00000000000E+00 -0.00000000000E+00 -0.45593999997E+02  0.45594000000E+02  0.51100000000E-03 0. -1.
    9900012    2    1    2    0    0 -0.31110371396E+02 -0.19039153448E+00 -0.69877753367E+01  0.59301945658E+02  0.50000002973E+02 0.  0.
        -12    1    1    2    0    0  0.31110371396E+02  0.19039153448E+00  0.69877753367E+01  0.31886054342E+02  0.00000000000E+00 0.  1.
         11    1    3    3    0    0 -0.97631700132E+01  0.30925932935E+01 -0.46283574834E+01  0.11238563753E+02  0.51100000000E-03 0. -1.
        -11    1    3    3    0    0 -0.25177735211E+02  0.14175032118E+02 -0.67219272188E+01  0.29665370244E+02  0.51100000000E-03 0.  1.
         12    1    3    3    0    0  0.38305338283E+01 -0.17458016946E+02  0.43625093656E+01  0.18398011660E+02  0.00000000000E+00 0. -1.
</event>
<event>
 7    1  0.3802554E-013  0.5930195E+02  0.7816164E-02  0.1266605E+00
        -11   -1    0    0    0    0  0.00000000000E+00  0.00000000000E+00  0.45593999997E+02  0.45594000000E+02  0.51100000000E-03 0.  1.
         11   -1    0    0    0    0 -0.00000000000E+00 -0.00000000000E+00 -0.45593999997E+02  0.45594000000E+02  0.51100000000E-03 0. -1.
    9900012    2    1    2    0    0  0.12877049761E+02 -0.28728446045E+02 -0.50574685881E+01  0.59301952719E+02  0.50000015850E+02 0.  0.
        -12    1    1    2    0    0 -0.12877049761E+02  0.28728446045E+02  0.50574685881E+01  0.31886047281E+02  0.00000000000E+00 0.  1.
         11    1    3    3    0    0 -0.95223708220E+00  0.76251876609E+01 -0.39319342234E+01  0.86319377502E+01  0.51100000000E-03 0. -1.
        -11    1    3    3    0    0 -0.22035932052E+01  0.52045539708E+01  0.20528913181E+01  0.60131163363E+01  0.51100000000E-03 0.  1.
         12    1    3    3    0    0  0.16032880048E+02 -0.41558187677E+02 -0.31784256828E+01  0.44656898632E+02  0.00000000000E+00 0. -1.
</event>
<event>
 7    1  0.3802554E-013  0.5930197E+02  0.7816164E-02  0.1266605E+00
        -11   -1    0    0    0    0  0.00000000000E+00  0.00000000000E+00  0.45593999997E+02  0.45594000000E+02  0.51100000000E-03 0.  1.
         11   -1    0    0    0    0 -0.00000000000E+00 -0.00000000000E+00 -0.45593999997E+02  0.45594000000E+02  0.51100000000E-03 0. -1.
    9900012    2    1    2    0    0  0.31456263972E+02 -0.17718465574E+01 -0.49074536167E+01  0.59301967254E+02  0.50000042359E+02 0.  0.
        -12    1    1    2    0    0 -0.31456263972E+02  0.17718465574E+01  0.49074536167E+01  0.31886032746E+02  0.00000000000E+00 0.  1.
         11    1    3    3    0    0 -0.32102767986E+01  0.22876592786E+01  0.49915035190E+01  0.63603749685E+01  0.51100000000E-03 0. -1.
        -11    1    3    3    0    0 -0.70234861389E+00  0.12200326384E+02  0.16637473655E+01  0.12333260437E+02  0.51100000000E-03 0.  1.
         12    1    3    3    0    0  0.35368889384E+02 -0.16259832220E+02 -0.11562704501E+02  0.40608331848E+02  0.00000000000E+00 0. -1.
</event>
<event>
 7    1  0.3802554E-013  0.5930194E+02  0.7816164E-02  0.1266605E+00
        -11   -1    0    0    0    0  0.00000000000E+00  0.00000000000E+00  0.45593999997E+02  0.45594000000E+02  0.51100000000E-03 0. -1.
         11   -1    0    0    0    0 -0.00000000000E+00 -0.00000000000E+00 -0.45593999997E+02  0.45594000000E+02  0.51100000000E-03 0.  1.
    9900012    2    1    2    0    0 -0.30577904840E+02 -0.76768652317E+01  0.47726792951E+01  0.59301937341E+02  0.49999987806E+02 0.  0.
        -12    1    1    2    0    0  0.30577904840E+02  0.76768652317E+01 -0.47726792951E+01  0.31886062659E+02  0.00000000000E+00 0.  1.
         11    1    3    3    0    0  0.92909226281E+00  0.17074452042E+02 -0.38659646231E+01  0.17531280834E+02  0.51100000000E-03 0.  1.
        -11    1    3    3    0    0 -0.12404665678E+02 -0.14174576255E+02  0.19630435924E+01  0.18938001030E+02  0.51100000000E-03 0. -1.
        -12    1    3    3    0    0 -0.19102331425E+02 -0.10576741018E+02  0.66756003259E+01  0.22832655477E+02  0.00000000000E+00 0.  1.
</event>
<event>
 7    1  0.3802554E-013  0.5930195E+02  0.7816164E-02  0.1266605E+00
        -11   -1    0    0    0    0  0.00000000000E+00  0.00000000000E+00  0.45593999997E+02  0.45594000000E+02  0.51100000000E-03 0. -1.
         11   -1    0    0    0    0 -0.00000000000E+00 -0.00000000000E+00 -0.45593999997E+02  0.45594000000E+02  0.51100000000E-03 0.  1.
    9900012    2    1    2    0    0  0.20140162793E+01 -0.26556979782E+01  0.31711375916E+02  0.59301947316E+02  0.50000005996E+02 0.  0.
        -12    1    1    2    0    0 -0.20140162793E+01  0.26556979782E+01 -0.31711375916E+02  0.31886052684E+02  0.00000000000E+00 0.  1.
         11    1    3    3    0    0  0.10909793571E+02 -0.16516297827E+01 -0.12516230571E+01  0.11104865476E+02  0.51100000000E-03 0. -1.
        -11    1    3    3    0    0  0.83229908222E+01  0.12065287918E+01 -0.24485215369E+01  0.87591749571E+01  0.51100000000E-03 0.  1.
         12    1    3    3    0    0 -0.17218768114E+02 -0.22105969873E+01  0.35411520510E+02  0.39437906882E+02  0.00000000000E+00 0. -1.
</event>
<event>
 7    1  0.3802554E-013  0.5930194E+02  0.7816164E-02  0.1266605E+00
        -11   -1    0    0    0    0  0.00000000000E+00  0.00000000000E+00  0.45593999997E+02  0.45594000000E+02  0.51100000000E-03 0.  1.
         11   -1    0    0    0    0 -0.00000000000E+00 -0.00000000000E+00 -0.45593999997E+02  0.45594000000E+02  0.51100000000E-03 0. -1.
    9900012    2    1    2    0    0 -0.55185148457E+01  0.29697674244E+02 -0.10213476126E+02  0.59301937901E+02  0.49999988827E+02 0.  0.
        -12    1    1    2    0    0  0.55185148457E+01 -0.29697674244E+02  0.10213476126E+02  0.31886062099E+02  0.00000000000E+00 0.  1.
         11    1    3    3    0    0 -0.21983525412E+02  0.46320405462E+01  0.51970659316E+01  0.23059503111E+02  0.51100000000E-03 0. -1.
        -11    1    3    3    0    0  0.78676986646E+01  0.76482381580E+01 -0.12448806127E+02  0.16594246094E+02  0.51100000000E-03 0.  1.
        -12    1    3    3    0    0  0.85973119016E+01  0.17417395540E+02 -0.29617359306E+01  0.19648188696E+02  0.00000000000E+00 0.  1.
</event>
<event>
 7    1  0.3802554E-013  0.5930194E+02  0.7816164E-02  0.1266605E+00
        -11   -1    0    0    0    0  0.00000000000E+00  0.00000000000E+00  0.45593999997E+02  0.45594000000E+02  0.51100000000E-03 0.  1.
         11   -1    0    0    0    0 -0.00000000000E+00 -0.00000000000E+00 -0.45593999997E+02  0.45594000000E+02  0.51100000000E-03 0. -1.
    9900012    2    1    2    0    0 -0.11967873247E+02  0.21341655128E+02 -0.20445645842E+02  0.59301942427E+02  0.49999997080E+02 0.  0.
        -12    1    1    2    0    0  0.11967873247E+02 -0.21341655128E+02  0.20445645842E+02  0.31886057573E+02  0.00000000000E+00 0.  1.
         11    1    3    3    0    0 -0.37437332976E+00  0.15082646001E+02 -0.16005914884E+02  0.21995810449E+02  0.51100000000E-03 0. -1.
        -11    1    3    3    0    0 -0.10240699425E+02  0.96977039444E+01  0.13179678856E+02  0.19303401812E+02  0.51100000000E-03 0.  1.
         12    1    3    3    0    0 -0.13528004930E+01 -0.34386948176E+01 -0.17619409814E+02  0.18002730166E+02  0.00000000000E+00 0. -1.
</event>
<event>
 7    1  0.3802554E-013  0.5930195E+02  0.7816164E-02  0.1266605E+00
        -11   -1    0    0    0    0  0.00000000000E+00  0.00000000000E+00  0.45593999997E+02  0.45594000000E+02  0.51100000000E-03 0. -1.
         11   -1    0    0    0    0 -0.00000000000E+00 -0.00000000000E+00 -0.45593999997E+02  0.45594000000E+02  0.51100000000E-03 0.  1.
    9900012    2    1    2    0    0 -0.29327073716E+02  0.99759378348E+01 -0.75580347876E+01  0.59301945395E+02  0.50000002493E+02 0.  0.
        -12    1    1    2    0    0  0.29327073716E+02 -0.99759378348E+01  0.75580347876E+01  0.31886054605E+02  0.00000000000E+00 0.  1.
         11    1    3    3    0    0 -0.24938244663E+02  0.16610831763E+02 -0.11105872482E+02  0.31955847392E+02  0.51100000000E-03 0. -1.
        -11    1    3    3    0    0  0.93236866671E+00  0.55145029835E+01  0.10849018503E+02  0.12205746894E+02  0.51100000000E-03 0.  1.
         12    1    3    3    0    0 -0.53211977203E+01 -0.12149396912E+02 -0.73011808086E+01  0.15140351109E+02  0.00000000000E+00 0. -1.
</event>
<event>
 7    1  0.3802554E-013  0.5930196E+02  0.7816164E-02  0.1266605E+00
        -11   -1    0    0    0    0  0.00000000000E+00  0.00000000000E+00  0.45593999997E+02  0.45594000000E+02  0.51100000000E-03 0. -1.
         11   -1    0    0    0    0 -0.00000000000E+00 -0.00000000000E+00 -0.45593999997E+02  0.45594000000E+02  0.51100000000E-03 0.  1.
    9900012    2    1    2    0    0  0.18269679556E+02  0.23741799224E+02  0.10920853118E+02  0.59301964588E+02  0.50000037498E+02 0.  0.
        -12    1    1    2    0    0 -0.18269679556E+02 -0.23741799224E+02 -0.10920853118E+02  0.31886035412E+02  0.00000000000E+00 0.  1.
         11    1    3    3    0    0  0.61517127470E+01  0.11014684714E+01  0.10125736060E+01  0.63310432066E+01  0.51100000000E-03 0. -1.
        -11    1    3    3    0    0  0.12562954741E+02 -0.11986058220E+02  0.22940869786E+01  0.17514458565E+02  0.51100000000E-03 0.  1.
        -12    1    3    3    0    0 -0.44498793286E+00  0.34626388973E+02  0.76141925336E+01  0.35456462817E+02  0.00000000000E+00 0.  1.
</event>
<event>
 7    1  0.3802554E-013  0.5930194E+02  0.7816164E-02  0.1266605E+00
        -11   -1    0    0    0    0  0.00000000000E+00  0.00000000000E+00  0.45593999997E+02  0.45594000000E+02  0.51100000000E-03 0.  1.
         11   -1    0    0    0    0 -0.00000000000E+00 -0.00000000000E+00 -0.45593999997E+02  0.45594000000E+02  0.51100000000E-03 0. -1.
    9900012    2    1    2    0    0 -0.81780311049E+01  0.51872337377E+01 -0.30379811199E+02  0.59301944818E+02  0.50000001440E+02 0.  0.
        -12    1    1    2    0    0  0.81780311049E+01 -0.51872337377E+01  0.30379811199E+02  0.31886055182E+02  0.00000000000E+00 0.  1.
         11    1    3    3    0    0 -0.74531920937E+01  0.79128529120E+01 -0.65043745709E+01  0.12667683388E+02  0.51100000000E-03 0. -1.
        -11    1    3    3    0    0  0.10893153254E+02  0.33390375258E+01  0.68056683269E+01  0.13271287845E+02  0.51100000000E-03 0.  1.
         12    1    3    3    0    0 -0.11617992266E+02 -0.60646567001E+01 -0.30681104955E+02  0.33362973585E+02  0.00000000000E+00 0. -1.
</event>
<event>
 7    1  0.3802554E-013  0.5930195E+02  0.7816164E-02  0.1266605E+00
        -11   -1    0    0    0    0  0.00000000000E+00  0.00000000000E+00  0.45593999997E+02  0.45594000000E+02  0.51100000000E-03 0.  1.
         11   -1    0    0    0    0 -0.00000000000E+00 -0.00000000000E+00 -0.45593999997E+02  0.45594000000E+02  0.51100000000E-03 0. -1.
    9900012    2    1    2    0    0  0.26503794804E+01  0.29865831054E+02 -0.10850248396E+02  0.59301948720E+02  0.50000008558E+02 0.  0.
        -12    1    1    2    0    0 -0.26503794804E+01 -0.29865831054E+02  0.10850248396E+02  0.31886051280E+02  0.00000000000E+00 0.  1.
         11    1    3    3    0    0  0.13914715613E+01  0.16398778638E+02 -0.49108214700E+01  0.17174757690E+02  0.51100000000E-03 0. -1.
        -11    1    3    3    0    0 -0.59362764332E+01  0.25224498555E+02 -0.99704490779E+01  0.27765528273E+02  0.51100000000E-03 0.  1.
        -12    1    3    3    0    0  0.71951843522E+01 -0.11757446139E+02  0.40310221516E+01  0.14361662757E+02  0.00000000000E+00 0.  1.
</event>
<event>
 7    1  0.3802554E-013  0.5930194E+02  0.7816164E-02  0.1266605E+00
        -11   -1    0    0    0    0  0.00000000000E+00  0.00000000000E+00  0.45593999997E+02  0.45594000000E+02  0.51100000000E-03 0.  1.
         11   -1    0    0    0    0 -0.00000000000E+00 -0.00000000000E+00 -0.45593999997E+02  0.45594000000E+02  0.51100000000E-03 0. -1.
    9900012    2    1    2    0    0  0.29159251220E+02  0.16856093414E+01 -0.12791306513E+02  0.59301941403E+02  0.49999995213E+02 0.  0.
        -12    1    1    2    0    0 -0.29159251220E+02 -0.16856093414E+01  0.12791306513E+02  0.31886058597E+02  0.00000000000E+00 0.  1.
         11    1    3    3    0    0  0.22910362969E+01 -0.18431784109E+02  0.13880029865E+00  0.18574142740E+02  0.51100000000E-03 0. -1.
        -11    1    3    3    0    0  0.40755466065E+01  0.11765196644E+00 -0.93421048615E+01  0.10193078320E+02  0.51100000000E-03 0.  1.
         12    1    3    3    0    0  0.22792668316E+02  0.19999741484E+02 -0.35880019504E+01  0.30534720343E+02  0.00000000000E+00 0. -1.
</event>
<event>
 7    1  0.3802554E-013  0.5930194E+02  0.7816164E-02  0.1266605E+00
        -11   -1    0    0    0    0  0.00000000000E+00  0.00000000000E+00  0.45593999997E+02  0.45594000000E+02  0.51100000000E-03 0. -1.
         11   -1    0    0    0    0 -0.00000000000E+00 -0.00000000000E+00 -0.45593999997E+02  0.45594000000E+02  0.51100000000E-03 0.  1.
    9900012    2    1    2    0    0 -0.13270040135E+02  0.38216268163E+01  0.28740603125E+02  0.59301936200E+02  0.49999985724E+02 0.  0.
        -12    1    1    2    0    0  0.13270040135E+02 -0.38216268163E+01 -0.28740603125E+02  0.31886063800E+02  0.00000000000E+00 0.  1.
         11    1    3    3    0    0 -0.48874167403E+01 -0.13372459077E+00  0.52324341013E+01  0.71612213725E+01  0.51100000000E-03 0. -1.
        -11    1    3    3    0    0 -0.16772238392E+02  0.84554795973E+01  0.33458054794E+02  0.38369839024E+02  0.51100000000E-03 0.  1.
        -12    1    3    3    0    0  0.83896149980E+01 -0.45001281903E+01 -0.99498857701E+01  0.13770875803E+02  0.00000000000E+00 0.  1.
</event>
<event>
 7    1  0.3802554E-013  0.5930195E+02  0.7816164E-02  0.1266605E+00
        -11   -1    0    0    0    0  0.00000000000E+00  0.00000000000E+00  0.45593999997E+02  0.45594000000E+02  0.51100000000E-03 0.  1.
         11   -1    0    0    0    0 -0.00000000000E+00 -0.00000000000E+00 -0.45593999997E+02  0.45594000000E+02  0.51100000000E-03 0. -1.
    9900012    2    1    2    0    0  0.23053115687E+02  0.16279697290E+02 -0.14840676524E+02  0.59301947148E+02  0.50000005691E+02 0.  0.
        -12    1    1    2    0    0 -0.23053115687E+02 -0.16279697290E+02  0.14840676524E+02  0.31886052852E+02  0.00000000000E+00 0.  1.
         11    1    3    3    0    0  0.19945778043E+01  0.13200826688E+02 -0.11005933653E+01  0.13395949831E+02  0.51100000000E-03 0.  1.
        -11    1    3    3    0    0  0.32077728792E+02  0.11279719274E+01 -0.70317585257E+01  0.32858767983E+02  0.51100000000E-03 0. -1.
         12    1    3    3    0    0 -0.11019190909E+02  0.19508986755E+01 -0.67083246335E+01  0.13047229335E+02  0.00000000000E+00 0. -1.
</event>
<event>
 7    1  0.3802554E-013  0.5930196E+02  0.7816164E-02  0.1266605E+00
        -11   -1    0    0    0    0  0.00000000000E+00  0.00000000000E+00  0.45593999997E+02  0.45594000000E+02  0.51100000000E-03 0.  1.
         11   -1    0    0    0    0 -0.00000000000E+00 -0.00000000000E+00 -0.45593999997E+02  0.45594000000E+02  0.51100000000E-03 0. -1.
    9900012    2    1    2    0    0  0.11273700060E+02  0.19133334001E+01 -0.29765115896E+02  0.59301964153E+02  0.50000036704E+02 0.  0.
        -12    1    1    2    0    0 -0.11273700060E+02 -0.19133334001E+01  0.29765115896E+02  0.31886035847E+02  0.00000000000E+00 0.  1.
         11    1    3    3    0    0  0.55327682465E+01 -0.63322064434E+01 -0.21119618352E+02  0.22732061994E+02  0.51100000000E-03 0. -1.
        -11    1    3    3    0    0 -0.92445667255E+01 -0.86165810007E+01 -0.55396325093E+01  0.13798369856E+02  0.51100000000E-03 0.  1.
         12    1    3    3    0    0  0.14985498539E+02  0.16862120844E+02 -0.31058650342E+01  0.22771532303E+02  0.00000000000E+00 0. -1.
</event>
<event>
 7    1  0.3802554E-013  0.5930183E+02  0.7816164E-02  0.1266605E+00
        -11   -1    0    0    0    0  0.00000000000E+00  0.00000000000E+00  0.45593999997E+02  0.45594000000E+02  0.51100000000E-03 0.  1.
         11   -1    0    0    0    0 -0.00000000000E+00 -0.00000000000E+00 -0.45593999997E+02  0.45594000000E+02  0.51100000000E-03 0. -1.
    9900012    2    1    2    0    0 -0.77430819835E+01 -0.29723403153E+02 -0.85610551211E+01  0.59301832492E+02  0.49999796585E+02 0.  0.
        -12    1    1    2    0    0  0.77430819835E+01  0.29723403153E+02  0.85610551211E+01  0.31886167508E+02  0.00000000000E+00 0.  1.
         11    1    3    3    0    0  0.49039077951E+01 -0.64753898925E+01 -0.10467460475E+02  0.13249404326E+02  0.51100000000E-03 0. -1.
        -11    1    3    3    0    0 -0.13745550234E+02  0.66656752971E+01 -0.34040637418E+01  0.15651167005E+02  0.51100000000E-03 0.  1.
         12    1    3    3    0    0  0.10985604550E+01 -0.29913688557E+02  0.53104690958E+01  0.30401261161E+02  0.00000000000E+00 0. -1.
</event>
<event>
 7    1  0.3802554E-013  0.5930196E+02  0.7816164E-02  0.1266605E+00
        -11   -1    0    0    0    0  0.00000000000E+00  0.00000000000E+00  0.45593999997E+02  0.45594000000E+02  0.51100000000E-03 0. -1.
         11   -1    0    0    0    0 -0.00000000000E+00 -0.00000000000E+00 -0.45593999997E+02  0.45594000000E+02  0.51100000000E-03 0.  1.
    9900012    2    1    2    0    0  0.51209727999E+01 -0.27949903883E+02  0.14467139399E+02  0.59301958981E+02  0.50000027271E+02 0.  0.
        -12    1    1    2    0    0 -0.51209727999E+01  0.27949903883E+02 -0.14467139399E+02  0.31886041019E+02  0.00000000000E+00 0.  1.
         11    1    3    3    0    0 -0.79991734197E+01  0.19596098773E+01 -0.12427257689E+01  0.83289383397E+01  0.51100000000E-03 0. -1.
        -11    1    3    3    0    0 -0.97606685373E+01 -0.23262389861E+01 -0.30955054704E+01  0.10500675811E+02  0.51100000000E-03 0.  1.
         12    1    3    3    0    0  0.22880814757E+02 -0.27583274774E+02  0.18805370638E+02  0.40472344830E+02  0.00000000000E+00 0. -1.
</event>
<event>
 7    1  0.3802554E-013  0.5930197E+02  0.7816164E-02  0.1266605E+00
        -11   -1    0    0    0    0  0.00000000000E+00  0.00000000000E+00  0.45593999997E+02  0.45594000000E+02  0.51100000000E-03 0.  1.
         11   -1    0    0    0    0 -0.00000000000E+00 -0.00000000000E+00 -0.45593999997E+02  0.45594000000E+02  0.51100000000E-03 0. -1.
    9900012    2    1    2    0    0  0.12098239328E+02 -0.28898851475E+02 -0.59336348435E+01  0.59301968044E+02  0.50000043800E+02 0.  0.
        -12    1    1    2    0    0 -0.12098239328E+02  0.28898851475E+02  0.59336348435E+01  0.31886031956E+02  0.00000000000E+00 0.  1.
         11    1    3    3    0    0 -0.10312749689E+01  0.55207288278E+01  0.42305103270E+01  0.70313009280E+01  0.51100000000E-03 0.  1.
        -11    1    3    3    0    0  0.23945939794E+02 -0.19470344195E+02 -0.13206573692E+02  0.33569568431E+02  0.51100000000E-03 0. -1.
         12    1    3    3    0    0 -0.10816425497E+02 -0.14949236108E+02  0.30424285215E+01  0.18701098685E+02  0.00000000000E+00 0. -1.
</event>
<event>
 7    1  0.3802554E-013  0.5930190E+02  0.7816164E-02  0.1266605E+00
        -11   -1    0    0    0    0  0.00000000000E+00  0.00000000000E+00  0.45593999997E+02  0.45594000000E+02  0.51100000000E-03 0.  1.
         11   -1    0    0    0    0 -0.00000000000E+00 -0.00000000000E+00 -0.45593999997E+02  0.45594000000E+02  0.51100000000E-03 0. -1.
    9900012    2    1    2    0    0 -0.82805835115E+01  0.10020842343E+02 -0.29115942218E+02  0.59301899018E+02  0.49999917914E+02 0.  0.
        -12    1    1    2    0    0  0.82805835115E+01 -0.10020842343E+02  0.29115942218E+02  0.31886100982E+02  0.00000000000E+00 0.  1.
         11    1    3    3    0    0 -0.13121068672E+01 -0.45584486746E+01 -0.95865668522E+01  0.10695949842E+02  0.51100000000E-03 0.  1.
        -11    1    3    3    0    0  0.16398845259E+01 -0.91357148606E+01 -0.21381290502E+02  0.23309013087E+02  0.51100000000E-03 0. -1.
        -12    1    3    3    0    0 -0.86083611703E+01  0.23715005878E+02  0.18519151363E+01  0.25296936089E+02  0.00000000000E+00 0.  1.
</event>
<event>
 7    1  0.3802554E-013  0.5930193E+02  0.7816164E-02  0.1266605E+00
        -11   -1    0    0    0    0  0.00000000000E+00  0.00000000000E+00  0.45593999997E+02  0.45594000000E+02  0.51100000000E-03 0.  1.
         11   -1    0    0    0    0 -0.00000000000E+00 -0.00000000000E+00 -0.45593999997E+02  0.45594000000E+02  0.51100000000E-03 0. -1.
    9900012    2    1    2    0    0  0.26406863910E+02  0.62640355611E+01 -0.16738004857E+02  0.59301930790E+02  0.49999975858E+02 0.  0.
        -12    1    1    2    0    0 -0.26406863910E+02 -0.62640355611E+01  0.16738004857E+02  0.31886069210E+02  0.00000000000E+00 0.  1.
         11    1    3    3    0    0  0.54422639053E+01  0.11263203835E+02 -0.10056111631E+02  0.16050027366E+02  0.51100000000E-03 0. -1.
        -11    1    3    3    0    0  0.10233547202E+02  0.13881155957E+01 -0.21512995687E+02  0.23863389049E+02  0.51100000000E-03 0.  1.
        -12    1    3    3    0    0  0.10731052802E+02 -0.63872838696E+01  0.14831102460E+02  0.19388514375E+02  0.00000000000E+00 0.  1.
</event>
<event>
 7    1  0.3802554E-013  0.5930196E+02  0.7816164E-02  0.1266605E+00
        -11   -1    0    0    0    0  0.00000000000E+00  0.00000000000E+00  0.45593999997E+02  0.45594000000E+02  0.51100000000E-03 0.  1.
         11   -1    0    0    0    0 -0.00000000000E+00 -0.00000000000E+00 -0.45593999997E+02  0.45594000000E+02  0.51100000000E-03 0. -1.
    9900012    2    1    2    0    0 -0.14905258944E+02 -0.16070012536E+02 -0.23158313965E+02  0.59301959908E+02  0.50000028961E+02 0.  0.
        -12    1    1    2    0    0  0.14905258944E+02  0.16070012536E+02  0.23158313965E+02  0.31886040092E+02  0.00000000000E+00 0.  1.
         11    1    3    3    0    0  0.15392482456E+02 -0.50953532760E+01 -0.12742345991E+02  0.20621797274E+02  0.51100000000E-03 0. -1.
        -11    1    3    3    0    0  0.95950512182E+00  0.16423627023E+01 -0.39132245191E+01  0.43510150222E+01  0.51100000000E-03 0.  1.
        -12    1    3    3    0    0 -0.31257246522E+02 -0.12617021963E+02 -0.65027434544E+01  0.34329147612E+02  0.00000000000E+00 0.  1.
</event>
<event>
 7    1  0.3802554E-013  0.5930191E+02  0.7816164E-02  0.1266605E+00
        -11   -1    0    0    0    0  0.00000000000E+00  0.00000000000E+00  0.45593999997E+02  0.45594000000E+02  0.51100000000E-03 0.  1.
         11   -1    0    0    0    0 -0.00000000000E+00 -0.00000000000E+00 -0.45593999997E+02  0.45594000000E+02  0.51100000000E-03 0. -1.
    9900012    2    1    2    0    0 -0.27811738310E+02 -0.16536578694E+01 -0.15507914629E+02  0.59301909171E+02  0.49999936430E+02 0.  0.
        -12    1    1    2    0    0  0.27811738310E+02  0.16536578694E+01  0.15507914629E+02  0.31886090829E+02  0.00000000000E+00 0.  1.
         11    1    3    3    0    0  0.23956702373E+01 -0.11002865858E+00  0.27595479659E+00  0.24140201951E+01  0.51100000000E-03 0. -1.
        -11    1    3    3    0    0  0.28442077935E+01  0.16279982544E+02 -0.86919161136E+01  0.18672888250E+02  0.51100000000E-03 0.  1.
         12    1    3    3    0    0 -0.33051616341E+02 -0.17823611755E+02 -0.70919533122E+01  0.38215000726E+02  0.00000000000E+00 0. -1.
</event>
<event>
 7    1  0.3802554E-013  0.5930195E+02  0.7816164E-02  0.1266605E+00
        -11   -1    0    0    0    0  0.00000000000E+00  0.00000000000E+00  0.45593999997E+02  0.45594000000E+02  0.51100000000E-03 0. -1.
         11   -1    0    0    0    0 -0.00000000000E+00 -0.00000000000E+00 -0.45593999997E+02  0.45594000000E+02  0.51100000000E-03 0.  1.
    9900012    2    1    2    0    0  0.67939553561E+01  0.21036574170E+02  0.22978792529E+02  0.59301949942E+02  0.50000010786E+02 0.  0.
        -12    1    1    2    0    0 -0.67939553561E+01 -0.21036574170E+02 -0.22978792529E+02  0.31886050058E+02  0.00000000000E+00 0.  1.
         11    1    3    3    0    0 -0.67936323070E+01 -0.82000003906E+00  0.11408442077E+01  0.69373889724E+01  0.51100000000E-03 0. -1.
        -11    1    3    3    0    0 -0.28897988116E+00  0.20366234297E+02 -0.59918540951E+01  0.21231328847E+02  0.51100000000E-03 0.  1.
         12    1    3    3    0    0  0.13876567544E+02  0.14903399120E+01  0.27829802417E+02  0.31133232123E+02  0.00000000000E+00 0. -1.
</event>
<event>
 7    1  0.3802554E-013  0.5930195E+02  0.7816164E-02  0.1266605E+00
        -11   -1    0    0    0    0  0.00000000000E+00  0.00000000000E+00  0.45593999997E+02  0.45594000000E+02  0.51100000000E-03 0.  1.
         11   -1    0    0    0    0 -0.00000000000E+00 -0.00000000000E+00 -0.45593999997E+02  0.45594000000E+02  0.51100000000E-03 0. -1.
    9900012    2    1    2    0    0  0.22742104498E+01  0.27317789577E+02 -0.16287623237E+02  0.59301947701E+02  0.50000006699E+02 0.  0.
        -12    1    1    2    0    0 -0.22742104498E+01 -0.27317789577E+02  0.16287623237E+02  0.31886052299E+02  0.00000000000E+00 0.  1.
         11    1    3    3    0    0 -0.51797962503E+01  0.28441461481E-01  0.16376239076E+01  0.54325786175E+01  0.51100000000E-03 0. -1.
        -11    1    3    3    0    0  0.19579797291E+02  0.31668802680E+02 -0.93607239641E+01  0.38391466220E+02  0.51100000000E-03 0.  1.
         12    1    3    3    0    0 -0.12125790591E+02 -0.43794545644E+01 -0.85645231808E+01  0.15477902863E+02  0.00000000000E+00 0. -1.
</event>
<event>
 7    1  0.3802554E-013  0.5930194E+02  0.7816164E-02  0.1266605E+00
        -11   -1    0    0    0    0  0.00000000000E+00  0.00000000000E+00  0.45593999997E+02  0.45594000000E+02  0.51100000000E-03 0.  1.
         11   -1    0    0    0    0 -0.00000000000E+00 -0.00000000000E+00 -0.45593999997E+02  0.45594000000E+02  0.51100000000E-03 0. -1.
    9900012    2    1    2    0    0  0.59052849443E+00 -0.22469515199E+02 -0.22616214536E+02  0.59301937259E+02  0.49999987655E+02 0.  0.
        -12    1    1    2    0    0 -0.59052849443E+00  0.22469515199E+02  0.22616214536E+02  0.31886062741E+02  0.00000000000E+00 0.  1.
         11    1    3    3    0    0  0.57295002916E+01 -0.14525778265E+02 -0.25944806023E+02  0.30281320441E+02  0.51100000000E-03 0. -1.
        -11    1    3    3    0    0  0.73724583463E+01 -0.71623348482E+01 -0.72822535400E+01  0.12596959928E+02  0.51100000000E-03 0.  1.
        -12    1    3    3    0    0 -0.12511430143E+02 -0.78140208596E+00  0.10610845027E+02  0.16423656890E+02  0.00000000000E+00 0.  1.
</event>
<event>
 7    1  0.3802554E-013  0.5930227E+02  0.7816164E-02  0.1266604E+00
        -11   -1    0    0    0    0  0.00000000000E+00  0.00000000000E+00  0.45593999997E+02  0.45594000000E+02  0.51100000000E-03 0.  1.
         11   -1    0    0    0    0 -0.00000000000E+00 -0.00000000000E+00 -0.45593999997E+02  0.45594000000E+02  0.51100000000E-03 0. -1.
    9900012    2    1    2    0    0  0.12993308549E+02 -0.45860226870E+01 -0.28754863727E+02  0.59302268723E+02  0.50000592163E+02 0.  0.
        -12    1    1    2    0    0 -0.12993308549E+02  0.45860226870E+01  0.28754863727E+02  0.31885731277E+02  0.00000000000E+00 0.  1.
         11    1    3    3    0    0  0.54742627755E+00  0.13572185260E+02 -0.72199705615E+01  0.15382843152E+02  0.51100000000E-03 0. -1.
        -11    1    3    3    0    0  0.26411887490E+01 -0.53279735360E+01  0.81724913041E+01  0.10107066557E+02  0.51100000000E-03 0.  1.
        -12    1    3    3    0    0  0.98046935224E+01 -0.12830234411E+02 -0.29707384469E+02  0.33812359014E+02  0.00000000000E+00 0.  1.
</event>
<event>
 7    1  0.3802554E-013  0.5930193E+02  0.7816164E-02  0.1266605E+00
        -11   -1    0    0    0    0  0.00000000000E+00  0.00000000000E+00  0.45593999997E+02  0.45594000000E+02  0.51100000000E-03 0.  1.
         11   -1    0    0    0    0 -0.00000000000E+00 -0.00000000000E+00 -0.45593999997E+02  0.45594000000E+02  0.51100000000E-03 0. -1.
    9900012    2    1    2    0    0 -0.13397300357E+02 -0.25105550559E+02 -0.14385592470E+02  0.59301927861E+02  0.49999970515E+02 0.  0.
        -12    1    1    2    0    0  0.13397300357E+02  0.25105550559E+02  0.14385592470E+02  0.31886072139E+02  0.00000000000E+00 0.  1.
         11    1    3    3    0    0  0.17938172323E+01  0.57989024705E+01  0.11020497981E+01  0.61692434013E+01  0.51100000000E-03 0. -1.
        -11    1    3    3    0    0  0.86228441212E+01  0.32790869551E+00  0.37382022055E+01  0.94039949406E+01  0.51100000000E-03 0.  1.
         12    1    3    3    0    0 -0.23813961711E+02 -0.31232361725E+02 -0.19225844474E+02  0.43728689519E+02  0.00000000000E+00 0. -1.
</event>
<event>
 7    1  0.3802554E-013  0.5930195E+02  0.7816164E-02  0.1266605E+00
        -11   -1    0    0    0    0  0.00000000000E+00  0.00000000000E+00  0.45593999997E+02  0.45594000000E+02  0.51100000000E-03 0.  1.
         11   -1    0    0    0    0 -0.00000000000E+00 -0.00000000000E+00 -0.45593999997E+02  0.45594000000E+02  0.51100000000E-03 0. -1.
    9900012    2    1    2    0    0 -0.95688409278E+00 -0.21932411720E+02 -0.23125173702E+02  0.59301953369E+02  0.50000017036E+02 0.  0.
        -12    1    1    2    0    0  0.95688409278E+00  0.21932411720E+02  0.23125173702E+02  0.31886046631E+02  0.00000000000E+00 0.  1.
         11    1    3    3    0    0  0.99017316424E+01 -0.10204070473E+02 -0.53731387419E+01  0.15199933024E+02  0.51100000000E-03 0. -1.
        -11    1    3    3    0    0 -0.20036816374E+02 -0.18062157198E+02 -0.18830628642E+02  0.32898451458E+02  0.51100000000E-03 0.  1.
         12    1    3    3    0    0  0.91782006390E+01  0.63338159509E+01  0.10785936812E+01  0.11203568887E+02  0.00000000000E+00 0. -1.
</event>
<event>
 7    1  0.3802554E-013  0.5930202E+02  0.7816164E-02  0.1266604E+00
        -11   -1    0    0    0    0  0.00000000000E+00  0.00000000000E+00  0.45593999997E+02  0.45594000000E+02  0.51100000000E-03 0.  1.
         11   -1    0    0    0    0 -0.00000000000E+00 -0.00000000000E+00 -0.45593999997E+02  0.45594000000E+02  0.51100000000E-03 0. -1.
    9900012    2    1    2    0    0 -0.21835529057E+02 -0.17597853109E+01 -0.23169556587E+02  0.59302023052E+02  0.50000144120E+02 0.  0.
        -12    1    1    2    0    0  0.21835529057E+02  0.17597853109E+01  0.23169556587E+02  0.31885976948E+02  0.00000000000E+00 0.  1.
         11    1    3    3    0    0 -0.95097703719E+01  0.83286392742E+01 -0.11295998538E+02  0.16952921515E+02  0.51100000000E-03 0. -1.
        -11    1    3    3    0    0  0.64266628364E+01 -0.83257608131E+01 -0.19398628870E+02  0.22066424510E+02  0.51100000000E-03 0.  1.
        -12    1    3    3    0    0 -0.18752421521E+02 -0.17626637720E+01  0.75250708214E+01  0.20282677026E+02  0.00000000000E+00 0.  1.
</event>
<event>
 7    1  0.3802554E-013  0.5930194E+02  0.7816164E-02  0.1266605E+00
        -11   -1    0    0    0    0  0.00000000000E+00  0.00000000000E+00  0.45593999997E+02  0.45594000000E+02  0.51100000000E-03 0.  1.
         11   -1    0    0    0    0 -0.00000000000E+00 -0.00000000000E+00 -0.45593999997E+02  0.45594000000E+02  0.51100000000E-03 0. -1.
    9900012    2    1    2    0    0  0.41335832603E+01  0.27278828301E+02  0.15984367346E+02  0.59301937473E+02  0.49999988045E+02 0.  0.
        -12    1    1    2    0    0 -0.41335832603E+01 -0.27278828301E+02 -0.15984367346E+02  0.31886062527E+02  0.00000000000E+00 0.  1.
         11    1    3    3    0    0  0.11692819785E+02 -0.49841795406E+00 -0.84155733894E+00  0.11733655611E+02  0.51100000000E-03 0. -1.
        -11    1    3    3    0    0 -0.27781678625E+01 -0.48097074689E+01  0.13337973272E+02  0.14448288268E+02  0.51100000000E-03 0.  1.
         12    1    3    3    0    0 -0.47810686625E+01  0.32586953724E+02  0.34879514127E+01  0.33119993593E+02  0.00000000000E+00 0. -1.
</event>
<event>
 7    1  0.3802554E-013  0.5930194E+02  0.7816164E-02  0.1266605E+00
        -11   -1    0    0    0    0  0.00000000000E+00  0.00000000000E+00  0.45593999997E+02  0.45594000000E+02  0.51100000000E-03 0.  1.
         11   -1    0    0    0    0 -0.00000000000E+00 -0.00000000000E+00 -0.45593999997E+02  0.45594000000E+02  0.51100000000E-03 0. -1.
    9900012    2    1    2    0    0  0.21504142852E+02  0.12856035216E+02 -0.19723460620E+02  0.59301941916E+02  0.49999996149E+02 0.  0.
        -12    1    1    2    0    0 -0.21504142852E+02 -0.12856035216E+02  0.19723460620E+02  0.31886058084E+02  0.00000000000E+00 0.  1.
         11    1    3    3    0    0  0.50743665064E+01 -0.21603091408E+01  0.10062924007E+02  0.11475128359E+02  0.51100000000E-03 0. -1.
        -11    1    3    3    0    0 -0.23865900290E+01 -0.51202333290E+01  0.17795709624E+01  0.59227927857E+01  0.51100000000E-03 0.  1.
         12    1    3    3    0    0  0.18816366375E+02  0.20136577686E+02 -0.31565955590E+02  0.41904020771E+02  0.00000000000E+00 0. -1.
</event>
<event>
 7    1  0.3802554E-013  0.5930196E+02  0.7816164E-02  0.1266605E+00
        -11   -1    0    0    0    0  0.00000000000E+00  0.00000000000E+00  0.45593999997E+02  0.45594000000E+02  0.51100000000E-03 0.  1.
         11   -1    0    0    0    0 -0.00000000000E+00 -0.00000000000E+00 -0.45593999997E+02  0.45594000000E+02  0.51100000000E-03 0. -1.
    9900012    2    1    2    0    0 -0.67783505846E+01 -0.19735505968E+02 -0.24109822888E+02  0.59301956154E+02  0.50000022116E+02 0.  0.
        -12    1    1    2    0    0  0.67783505846E+01  0.19735505968E+02  0.24109822888E+02  0.31886043846E+02  0.00000000000E+00 0.  1.
         11    1    3    3    0    0 -0.13704176122E+02 -0.40818808361E+01  0.41941162599E+01  0.14901570582E+02  0.51100000000E-03 0. -1.
        -11    1    3    3    0    0 -0.41611352170E+01  0.73023013150E+01 -0.97372018956E+01  0.12862804974E+02  0.51100000000E-03 0.  1.
         12    1    3    3    0    0  0.11086960754E+02 -0.22955926447E+02 -0.18566737252E+02  0.31537580598E+02  0.00000000000E+00 0. -1.
</event>
<event>
 7    1  0.3802554E-013  0.5930194E+02  0.7816164E-02  0.1266605E+00
        -11   -1    0    0    0    0  0.00000000000E+00  0.00000000000E+00  0.45593999997E+02  0.45594000000E+02  0.51100000000E-03 0. -1.
         11   -1    0    0    0    0 -0.00000000000E+00 -0.00000000000E+00 -0.45593999997E+02  0.45594000000E+02  0.51100000000E-03 0.  1.
    9900012    2    1    2    0    0 -0.22211033620E+02 -0.51550134462E+00  0.22871924957E+02  0.59301941803E+02  0.49999995943E+02 0.  0.
        -12    1    1    2    0    0  0.22211033620E+02  0.51550134462E+00 -0.22871924957E+02  0.31886058197E+02  0.00000000000E+00 0.  1.
         11    1    3    3    0    0 -0.14665725961E+00 -0.32953767678E+01 -0.68213861590E+01  0.75770921721E+01  0.51100000000E-03 0.  1.
        -11    1    3    3    0    0 -0.24729117888E+02  0.10032540764E+02  0.67667272975E+01  0.27531250322E+02  0.51100000000E-03 0. -1.
         12    1    3    3    0    0  0.26647415272E+01 -0.72526653413E+01  0.22926583818E+02  0.24193599309E+02  0.00000000000E+00 0. -1.
</event>
<event>
 7    1  0.3802554E-013  0.5930201E+02  0.7816164E-02  0.1266605E+00
        -11   -1    0    0    0    0  0.00000000000E+00  0.00000000000E+00  0.45593999997E+02  0.45594000000E+02  0.51100000000E-03 0.  1.
         11   -1    0    0    0    0 -0.00000000000E+00 -0.00000000000E+00 -0.45593999997E+02  0.45594000000E+02  0.51100000000E-03 0. -1.
    9900012    2    1    2    0    0 -0.22242291398E+02  0.53161333739E+01 -0.22220162129E+02  0.59302009256E+02  0.50000118961E+02 0.  0.
        -12    1    1    2    0    0  0.22242291398E+02 -0.53161333739E+01  0.22220162129E+02  0.31885990744E+02  0.00000000000E+00 0.  1.
         11    1    3    3    0    0  0.73338484831E+01 -0.93699452364E+00  0.28091004856E+01  0.79091300476E+01  0.51100000000E-03 0. -1.
        -11    1    3    3    0    0 -0.99760675941E+00 -0.10876018032E+02 -0.10123531323E+02  0.14891906331E+02  0.51100000000E-03 0.  1.
         12    1    3    3    0    0 -0.28578533122E+02  0.17129145929E+02 -0.14905731292E+02  0.36500972877E+02  0.00000000000E+00 0. -1.
</event>
<event>
 7    1  0.3802554E-013  0.5930188E+02  0.7816164E-02  0.1266605E+00
        -11   -1    0    0    0    0  0.00000000000E+00  0.00000000000E+00  0.45593999997E+02  0.45594000000E+02  0.51100000000E-03 0. -1.
         11   -1    0    0    0    0 -0.00000000000E+00 -0.00000000000E+00 -0.45593999997E+02  0.45594000000E+02  0.51100000000E-03 0.  1.
    9900012    2    1    2    0    0  0.26321194395E+02 -0.15583992636E+02  0.90032534414E+01  0.59301879612E+02  0.49999882522E+02 0.  0.
        -12    1    1    2    0    0 -0.26321194395E+02  0.15583992636E+02 -0.90032534414E+01  0.31886120388E+02  0.00000000000E+00 0.  1.
         11    1    3    3    0    0 -0.17293777288E+01 -0.14045140087E+02  0.11595966440E+02  0.18295440561E+02  0.51100000000E-03 0. -1.
        -11    1    3    3    0    0 -0.99014678525E+00  0.96363894385E+01  0.72026294929E+00  0.97138648871E+01  0.51100000000E-03 0.  1.
         12    1    3    3    0    0  0.29040718909E+02 -0.11175241988E+02 -0.33129759476E+01  0.31292574165E+02  0.00000000000E+00 0. -1.
</event>
<event>
 7    1  0.3802554E-013  0.5930185E+02  0.7816164E-02  0.1266605E+00
        -11   -1    0    0    0    0  0.00000000000E+00  0.00000000000E+00  0.45593999997E+02  0.45594000000E+02  0.51100000000E-03 0.  1.
         11   -1    0    0    0    0 -0.00000000000E+00 -0.00000000000E+00 -0.45593999997E+02  0.45594000000E+02  0.51100000000E-03 0. -1.
    9900012    2    1    2    0    0 -0.72812888806E+01 -0.63665290694E+01 -0.30383822670E+02  0.59301850339E+02  0.49999829134E+02 0.  0.
        -12    1    1    2    0    0  0.72812888806E+01  0.63665290694E+01  0.30383822670E+02  0.31886149661E+02  0.00000000000E+00 0.  1.
         11    1    3    3    0    0  0.17169670229E+02  0.33506051302E+01 -0.14896221717E+02  0.22976543522E+02  0.51100000000E-03 0. -1.
        -11    1    3    3    0    0  0.68336890111E+00 -0.76262261928E+00  0.34547333039E+01  0.36032997068E+01  0.51100000000E-03 0.  1.
        -12    1    3    3    0    0 -0.25134328011E+02 -0.89545115803E+01 -0.18942334257E+02  0.32722007110E+02  0.00000000000E+00 0.  1.
</event>
<event>
 7    1  0.3802554E-013  0.5930197E+02  0.7816164E-02  0.1266605E+00
        -11   -1    0    0    0    0  0.00000000000E+00  0.00000000000E+00  0.45593999997E+02  0.45594000000E+02  0.51100000000E-03 0.  1.
         11   -1    0    0    0    0 -0.00000000000E+00 -0.00000000000E+00 -0.45593999997E+02  0.45594000000E+02  0.51100000000E-03 0. -1.
    9900012    2    1    2    0    0 -0.48902864579E+01  0.83702386848E+01 -0.30376691028E+02  0.59301966144E+02  0.50000040334E+02 0.  0.
        -12    1    1    2    0    0  0.48902864579E+01 -0.83702386848E+01  0.30376691028E+02  0.31886033856E+02  0.00000000000E+00 0.  1.
         11    1    3    3    0    0  0.14727337859E+02  0.96622710794E+01 -0.31459590851E+02  0.36054955549E+02  0.51100000000E-03 0. -1.
        -11    1    3    3    0    0 -0.40350966304E+01  0.34131624878E+01 -0.34973814806E+01  0.63374569400E+01  0.51100000000E-03 0.  1.
        -12    1    3    3    0    0 -0.15582527686E+02 -0.47051948825E+01  0.45802813041E+01  0.16909553655E+02  0.00000000000E+00 0.  1.
</event>
<event>
 7    1  0.3802554E-013  0.5930198E+02  0.7816164E-02  0.1266605E+00
        -11   -1    0    0    0    0  0.00000000000E+00  0.00000000000E+00  0.45593999997E+02  0.45594000000E+02  0.51100000000E-03 0. -1.
         11   -1    0    0    0    0 -0.00000000000E+00 -0.00000000000E+00 -0.45593999997E+02  0.45594000000E+02  0.51100000000E-03 0.  1.
    9900012    2    1    2    0    0 -0.23808141097E+02  0.20899391767E+02  0.36202481736E+01  0.59301978681E+02  0.50000063199E+02 0.  0.
        -12    1    1    2    0    0  0.23808141097E+02 -0.20899391767E+02 -0.36202481736E+01  0.31886021319E+02  0.00000000000E+00 0.  1.
         11    1    3    3    0    0 -0.58118877907E+01  0.66251199204E+01  0.14562951868E+02  0.17022039273E+02  0.51100000000E-03 0. -1.
        -11    1    3    3    0    0 -0.12461781620E+02 -0.87185741661E+01 -0.10758957870E+02  0.18629672873E+02  0.51100000000E-03 0.  1.
         12    1    3    3    0    0 -0.55344716861E+01  0.22992846013E+02 -0.18374582376E+00  0.23650266534E+02  0.00000000000E+00 0. -1.
</event>
<event>
 7    1  0.3802554E-013  0.5930195E+02  0.7816164E-02  0.1266605E+00
        -11   -1    0    0    0    0  0.00000000000E+00  0.00000000000E+00  0.45593999997E+02  0.45594000000E+02  0.51100000000E-03 0.  1.
         11   -1    0    0    0    0 -0.00000000000E+00 -0.00000000000E+00 -0.45593999997E+02  0.45594000000E+02  0.51100000000E-03 0. -1.
    9900012    2    1    2    0    0  0.21785331206E+02  0.19816264088E+02 -0.12224363905E+02  0.59301952094E+02  0.50000014711E+02 0.  0.
        -12    1    1    2    0    0 -0.21785331206E+02 -0.19816264088E+02  0.12224363905E+02  0.31886047906E+02  0.00000000000E+00 0.  1.
         11    1    3    3    0    0  0.20127648752E+02  0.10297551149E+02 -0.13843448528E+02  0.26510429483E+02  0.51100000000E-03 0. -1.
        -11    1    3    3    0    0  0.81100991477E+01  0.11280619254E+02 -0.11519842008E+02  0.18048070232E+02  0.51100000000E-03 0.  1.
        -12    1    3    3    0    0 -0.64524166932E+01 -0.17619063155E+01  0.13138926631E+02  0.14743452379E+02  0.00000000000E+00 0.  1.
</event>
<event>
 7    1  0.3802554E-013  0.5930194E+02  0.7816164E-02  0.1266605E+00
        -11   -1    0    0    0    0  0.00000000000E+00  0.00000000000E+00  0.45593999997E+02  0.45594000000E+02  0.51100000000E-03 0.  1.
         11   -1    0    0    0    0 -0.00000000000E+00 -0.00000000000E+00 -0.45593999997E+02  0.45594000000E+02  0.51100000000E-03 0. -1.
    9900012    2    1    2    0    0  0.18720088887E+02 -0.20926997569E+02 -0.15110915051E+02  0.59301941779E+02  0.49999995900E+02 0.  0.
        -12    1    1    2    0    0 -0.18720088887E+02  0.20926997569E+02  0.15110915051E+02  0.31886058221E+02  0.00000000000E+00 0.  1.
         11    1    3    3    0    0  0.22942545492E+02  0.20460635107E+01 -0.21555092992E+02  0.31546296196E+02  0.51100000000E-03 0. -1.
        -11    1    3    3    0    0 -0.34388295379E+01 -0.11676992992E+02 -0.35210578821E+01  0.12671841334E+02  0.51100000000E-03 0.  1.
        -12    1    3    3    0    0 -0.78362706756E+00 -0.11296068087E+02  0.99652358229E+01  0.15083804249E+02  0.00000000000E+00 0.  1.
</event>
<event>
 7    1  0.3802554E-013  0.5930193E+02  0.7816164E-02  0.1266605E+00
        -11   -1    0    0    0    0  0.00000000000E+00  0.00000000000E+00  0.45593999997E+02  0.45594000000E+02  0.51100000000E-03 0. -1.
         11   -1    0    0    0    0 -0.00000000000E+00 -0.00000000000E+00 -0.45593999997E+02  0.45594000000E+02  0.51100000000E-03 0.  1.
    9900012    2    1    2    0    0  0.16617210418E+02  0.15811523233E+02  0.22149167025E+02  0.59301928606E+02  0.49999971875E+02 0.  0.
        -12    1    1    2    0    0 -0.16617210418E+02 -0.15811523233E+02 -0.22149167025E+02  0.31886071394E+02  0.00000000000E+00 0.  1.
         11    1    3    3    0    0  0.99002205605E+01  0.43826685849E+01  0.21024142725E+02  0.23648186583E+02  0.51100000000E-03 0. -1.
        -11    1    3    3    0    0 -0.81219594157E+01  0.15242108902E+02  0.77889892523E+01  0.18946146373E+02  0.51100000000E-03 0.  1.
         12    1    3    3    0    0  0.14838949273E+02 -0.38132542537E+01 -0.66639649527E+01  0.16707595651E+02  0.00000000000E+00 0. -1.
</event>
<event>
 7    1  0.3802554E-013  0.5930193E+02  0.7816164E-02  0.1266605E+00
        -11   -1    0    0    0    0  0.00000000000E+00  0.00000000000E+00  0.45593999997E+02  0.45594000000E+02  0.51100000000E-03 0. -1.
         11   -1    0    0    0    0 -0.00000000000E+00 -0.00000000000E+00 -0.45593999997E+02  0.45594000000E+02  0.51100000000E-03 0.  1.
    9900012    2    1    2    0    0 -0.42751406365E+01  0.20648418490E+02  0.23918349808E+02  0.59301929826E+02  0.49999974100E+02 0.  0.
        -12    1    1    2    0    0  0.42751406365E+01 -0.20648418490E+02 -0.23918349808E+02  0.31886070174E+02  0.00000000000E+00 0.  1.
         11    1    3    3    0    0 -0.46355450194E+01  0.82182034657E+01  0.20981243195E+01  0.96658818403E+01  0.51100000000E-03 0. -1.
        -11    1    3    3    0    0 -0.47090684520E+01  0.21479726194E+02 -0.35063552011E+01  0.22267655694E+02  0.51100000000E-03 0.  1.
         12    1    3    3    0    0  0.50694728349E+01 -0.90495111694E+01  0.25326580689E+02  0.27368392292E+02  0.00000000000E+00 0. -1.
</event>
<event>
 7    1  0.3802554E-013  0.5930197E+02  0.7816164E-02  0.1266605E+00
        -11   -1    0    0    0    0  0.00000000000E+00  0.00000000000E+00  0.45593999997E+02  0.45594000000E+02  0.51100000000E-03 0.  1.
         11   -1    0    0    0    0 -0.00000000000E+00 -0.00000000000E+00 -0.45593999997E+02  0.45594000000E+02  0.51100000000E-03 0. -1.
    9900012    2    1    2    0    0 -0.66928037086E+01 -0.58443203753E+01 -0.30623020973E+02  0.59301966762E+02  0.50000041463E+02 0.  0.
        -12    1    1    2    0    0  0.66928037086E+01  0.58443203753E+01  0.30623020973E+02  0.31886033238E+02  0.00000000000E+00 0.  1.
         11    1    3    3    0    0 -0.77193229201E+01  0.17516233542E+01  0.81769561408E+01  0.11380630154E+02  0.51100000000E-03 0.  1.
        -11    1    3    3    0    0 -0.10065440545E+02 -0.88305999565E+01 -0.32395784146E+02  0.35053950129E+02  0.51100000000E-03 0. -1.
        -12    1    3    3    0    0  0.11091959757E+02  0.12346562270E+01 -0.64041929679E+01  0.12867386479E+02  0.00000000000E+00 0.  1.
</event>
<event>
 7    1  0.3802554E-013  0.5930194E+02  0.7816164E-02  0.1266605E+00
        -11   -1    0    0    0    0  0.00000000000E+00  0.00000000000E+00  0.45593999997E+02  0.45594000000E+02  0.51100000000E-03 0.  1.
         11   -1    0    0    0    0 -0.00000000000E+00 -0.00000000000E+00 -0.45593999997E+02  0.45594000000E+02  0.51100000000E-03 0. -1.
    9900012    2    1    2    0    0  0.42496917518E+00 -0.21021928128E+02 -0.23971205202E+02  0.59301941293E+02  0.49999995013E+02 0.  0.
        -12    1    1    2    0    0 -0.42496917518E+00  0.21021928128E+02  0.23971205202E+02  0.31886058707E+02  0.00000000000E+00 0.  1.
         11    1    3    3    0    0  0.84081284248E+01  0.52663808179E+01 -0.32683588824E+01  0.10445743658E+02  0.51100000000E-03 0. -1.
        -11    1    3    3    0    0 -0.13475094025E+02  0.35271047168E+01 -0.69181311443E+01  0.15552464932E+02  0.51100000000E-03 0.  1.
         12    1    3    3    0    0  0.54919347758E+01 -0.29815413663E+02 -0.13784715175E+02  0.33303732703E+02  0.00000000000E+00 0. -1.
</event>
<event>
 7    1  0.3802554E-013  0.5930182E+02  0.7816164E-02  0.1266605E+00
        -11   -1    0    0    0    0  0.00000000000E+00  0.00000000000E+00  0.45593999997E+02  0.45594000000E+02  0.51100000000E-03 0.  1.
         11   -1    0    0    0    0 -0.00000000000E+00 -0.00000000000E+00 -0.45593999997E+02  0.45594000000E+02  0.51100000000E-03 0. -1.
    9900012    2    1    2    0    0 -0.12371635767E+02  0.10103322506E+02 -0.27596991010E+02  0.59301821019E+02  0.49999775661E+02 0.  0.
        -12    1    1    2    0    0  0.12371635767E+02 -0.10103322506E+02  0.27596991010E+02  0.31886178981E+02  0.00000000000E+00 0.  1.
         11    1    3    3    0    0 -0.98674362378E+01  0.70609102349E+00 -0.76608220848E+01  0.12512116436E+02  0.51100000000E-03 0. -1.
        -11    1    3    3    0    0  0.53503320902E+01 -0.43945033117E+01 -0.28100849741E+02  0.28941241668E+02  0.51100000000E-03 0.  1.
        -12    1    3    3    0    0 -0.78545316189E+01  0.13791734795E+02  0.81646808161E+01  0.17848462915E+02  0.00000000000E+00 0.  1.
</event>
<event>
 7    1  0.3802554E-013  0.5930195E+02  0.7816164E-02  0.1266605E+00
        -11   -1    0    0    0    0  0.00000000000E+00  0.00000000000E+00  0.45593999997E+02  0.45594000000E+02  0.51100000000E-03 0.  1.
         11   -1    0    0    0    0 -0.00000000000E+00 -0.00000000000E+00 -0.45593999997E+02  0.45594000000E+02  0.51100000000E-03 0. -1.
    9900012    2    1    2    0    0  0.73104608731E+00 -0.13905751304E+02 -0.28684771476E+02  0.59301945645E+02  0.50000002950E+02 0.  0.
        -12    1    1    2    0    0 -0.73104608731E+00  0.13905751304E+02  0.28684771476E+02  0.31886054355E+02  0.00000000000E+00 0.  1.
         11    1    3    3    0    0 -0.60212819339E+00 -0.23305476663E+01  0.10989116355E+00  0.24095823528E+01  0.51100000000E-03 0. -1.
        -11    1    3    3    0    0 -0.17498800686E+02 -0.12217544501E+01  0.37065377026E+01  0.17928723641E+02  0.51100000000E-03 0.  1.
         12    1    3    3    0    0  0.18831974967E+02 -0.10353449188E+02 -0.32501200342E+02  0.38963639651E+02  0.00000000000E+00 0. -1.
</event>
<event>
 7    1  0.3802554E-013  0.5930197E+02  0.7816164E-02  0.1266605E+00
        -11   -1    0    0    0    0  0.00000000000E+00  0.00000000000E+00  0.45593999997E+02  0.45594000000E+02  0.51100000000E-03 0. -1.
         11   -1    0    0    0    0 -0.00000000000E+00 -0.00000000000E+00 -0.45593999997E+02  0.45594000000E+02  0.51100000000E-03 0.  1.
    9900012    2    1    2    0    0 -0.23854800492E+02 -0.18750770498E+02  0.98018336133E+01  0.59301971038E+02  0.50000049260E+02 0.  0.
        -12    1    1    2    0    0  0.23854800492E+02  0.18750770498E+02 -0.98018336133E+01  0.31886028962E+02  0.00000000000E+00 0.  1.
         11    1    3    3    0    0  0.22476492723E+01 -0.53106592869E+01 -0.85887729879E+01  0.10345146254E+02  0.51100000000E-03 0. -1.
        -11    1    3    3    0    0 -0.10100917363E+02  0.10443629870E+02  0.13425994129E+02  0.19782700904E+02  0.51100000000E-03 0.  1.
         12    1    3    3    0    0 -0.16001532401E+02 -0.23883741080E+02  0.49646124720E+01  0.29174123880E+02  0.00000000000E+00 0. -1.
</event>
<event>
 7    1  0.3802554E-013  0.5930192E+02  0.7816164E-02  0.1266605E+00
        -11   -1    0    0    0    0  0.00000000000E+00  0.00000000000E+00  0.45593999997E+02  0.45594000000E+02  0.51100000000E-03 0.  1.
         11   -1    0    0    0    0 -0.00000000000E+00 -0.00000000000E+00 -0.45593999997E+02  0.45594000000E+02  0.51100000000E-03 0. -1.
    9900012    2    1    2    0    0  0.31511370291E+02  0.44216551774E+01 -0.20505044666E+01  0.59301920581E+02  0.49999957239E+02 0.  0.
        -12    1    1    2    0    0 -0.31511370291E+02 -0.44216551774E+01  0.20505044666E+01  0.31886079419E+02  0.00000000000E+00 0.  1.
         11    1    3    3    0    0  0.24899401707E+00 -0.47070626120E+00 -0.49412156969E+01  0.49698264788E+01  0.51100000000E-03 0. -1.
        -11    1    3    3    0    0  0.19200418760E+02 -0.13368464386E+02  0.16438092532E+02  0.28593404956E+02  0.51100000000E-03 0.  1.
         12    1    3    3    0    0  0.12061957514E+02  0.18260825824E+02 -0.13547381302E+02  0.25738689147E+02  0.00000000000E+00 0. -1.
</event>
<event>
 7    1  0.3802554E-013  0.5930198E+02  0.7816164E-02  0.1266605E+00
        -11   -1    0    0    0    0  0.00000000000E+00  0.00000000000E+00  0.45593999997E+02  0.45594000000E+02  0.51100000000E-03 0.  1.
         11   -1    0    0    0    0 -0.00000000000E+00 -0.00000000000E+00 -0.45593999997E+02  0.45594000000E+02  0.51100000000E-03 0. -1.
    9900012    2    1    2    0    0 -0.13175483083E+02  0.28590287091E+02 -0.50715423557E+01  0.59301977791E+02  0.50000061576E+02 0.  0.
        -12    1    1    2    0    0  0.13175483083E+02 -0.28590287091E+02  0.50715423557E+01  0.31886022209E+02  0.00000000000E+00 0.  1.
         11    1    3    3    0    0 -0.43178288732E+00  0.39273792611E+01  0.71884982560E+01  0.82027587896E+01  0.51100000000E-03 0. -1.
        -11    1    3    3    0    0 -0.32752911139E+01 -0.11063081530E+02 -0.76731420369E+01  0.13856277054E+02  0.51100000000E-03 0.  1.
         12    1    3    3    0    0 -0.94684090822E+01  0.35725989361E+02 -0.45868985748E+01  0.37242941947E+02  0.00000000000E+00 0. -1.
</event>
<event>
 7    1  0.3802554E-013  0.5930194E+02  0.7816164E-02  0.1266605E+00
        -11   -1    0    0    0    0  0.00000000000E+00  0.00000000000E+00  0.45593999997E+02  0.45594000000E+02  0.51100000000E-03 0.  1.
         11   -1    0    0    0    0 -0.00000000000E+00 -0.00000000000E+00 -0.45593999997E+02  0.45594000000E+02  0.51100000000E-03 0. -1.
    9900012    2    1    2    0    0  0.15503722578E+02 -0.23217343983E+02 -0.15404887789E+02  0.59301936537E+02  0.49999986338E+02 0.  0.
        -12    1    1    2    0    0 -0.15503722578E+02  0.23217343983E+02  0.15404887789E+02  0.31886063463E+02  0.00000000000E+00 0.  1.
         11    1    3    3    0    0 -0.13650581324E+01 -0.18941844746E+02  0.23048085130E+01  0.19130316480E+02  0.51100000000E-03 0. -1.
        -11    1    3    3    0    0  0.19678266573E+02 -0.63373020039E+00  0.21322050067E+01  0.19803587750E+02  0.51100000000E-03 0.  1.
         12    1    3    3    0    0 -0.28094858629E+01 -0.36417690368E+01 -0.19841901308E+02  0.20368032307E+02  0.00000000000E+00 0. -1.
</event>
<event>
 7    1  0.3802554E-013  0.5930194E+02  0.7816164E-02  0.1266605E+00
        -11   -1    0    0    0    0  0.00000000000E+00  0.00000000000E+00  0.45593999997E+02  0.45594000000E+02  0.51100000000E-03 0. -1.
         11   -1    0    0    0    0 -0.00000000000E+00 -0.00000000000E+00 -0.45593999997E+02  0.45594000000E+02  0.51100000000E-03 0.  1.
    9900012    2    1    2    0    0 -0.13452742884E+02  0.97073619565E+01  0.27230708905E+02  0.59301942314E+02  0.49999996875E+02 0.  0.
        -12    1    1    2    0    0  0.13452742884E+02 -0.97073619565E+01 -0.27230708905E+02  0.31886057686E+02  0.00000000000E+00 0.  1.
         11    1    3    3    0    0 -0.99336710245E+01  0.10187100243E+02  0.57541256580E+00  0.14240292528E+02  0.51100000000E-03 0. -1.
        -11    1    3    3    0    0  0.30599791929E+00  0.48666298728E+00 -0.90855473392E+01  0.91037160711E+01  0.51100000000E-03 0.  1.
         12    1    3    3    0    0 -0.38250697783E+01 -0.96640127387E+00  0.35740843679E+02  0.35957933716E+02  0.00000000000E+00 0. -1.
</event>
<event>
 7    1  0.3802554E-013  0.5930194E+02  0.7816164E-02  0.1266605E+00
        -11   -1    0    0    0    0  0.00000000000E+00  0.00000000000E+00  0.45593999997E+02  0.45594000000E+02  0.51100000000E-03 0.  1.
         11   -1    0    0    0    0 -0.00000000000E+00 -0.00000000000E+00 -0.45593999997E+02  0.45594000000E+02  0.51100000000E-03 0. -1.
    9900012    2    1    2    0    0  0.73900793515E+01  0.30185456669E+02  0.71376074282E+01  0.59301944946E+02  0.50000001674E+02 0.  0.
        -12    1    1    2    0    0 -0.73900793515E+01 -0.30185456669E+02 -0.71376074282E+01  0.31886055054E+02  0.00000000000E+00 0.  1.
         11    1    3    3    0    0  0.41450694796E+01  0.20511680759E+01  0.34544944432E+01  0.57725578027E+01  0.51100000000E-03 0.  1.
        -11    1    3    3    0    0  0.20716392251E+02  0.18926668899E+02 -0.96809508893E+01  0.29683472065E+02  0.51100000000E-03 0. -1.
         12    1    3    3    0    0 -0.17471382379E+02  0.92076196941E+01  0.13364063874E+02  0.23845915078E+02  0.00000000000E+00 0. -1.
</event>
<event>
 7    1  0.3802554E-013  0.5930198E+02  0.7816164E-02  0.1266605E+00
        -11   -1    0    0    0    0  0.00000000000E+00  0.00000000000E+00  0.45593999997E+02  0.45594000000E+02  0.51100000000E-03 0. -1.
         11   -1    0    0    0    0 -0.00000000000E+00 -0.00000000000E+00 -0.45593999997E+02  0.45594000000E+02  0.51100000000E-03 0.  1.
    9900012    2    1    2    0    0 -0.15851466436E+02  0.26639490453E+02 -0.74690649038E+01  0.59301978449E+02  0.50000062777E+02 0.  0.
        -12    1    1    2    0    0  0.15851466436E+02 -0.26639490453E+02  0.74690649038E+01  0.31886021551E+02  0.00000000000E+00 0.  1.
         11    1    3    3    0    0  0.50181914794E+01  0.13393943279E+02  0.17037674633E+01  0.14404262776E+02  0.51100000000E-03 0. -1.
        -11    1    3    3    0    0 -0.19733195814E+02  0.22210954865E+02 -0.15838032735E+02  0.33668513692E+02  0.51100000000E-03 0.  1.
        -12    1    3    3    0    0 -0.11364621014E+01 -0.89654076915E+01  0.66652003679E+01  0.11229201981E+02  0.00000000000E+00 0.  1.
</event>
<event>
 7    1  0.3802554E-013  0.5930195E+02  0.7816164E-02  0.1266605E+00
        -11   -1    0    0    0    0  0.00000000000E+00  0.00000000000E+00  0.45593999997E+02  0.45594000000E+02  0.51100000000E-03 0. -1.
         11   -1    0    0    0    0 -0.00000000000E+00 -0.00000000000E+00 -0.45593999997E+02  0.45594000000E+02  0.51100000000E-03 0.  1.
    9900012    2    1    2    0    0 -0.24476941750E+02  0.11150351820E+02  0.17125111450E+02  0.59301945599E+02  0.50000002865E+02 0.  0.
        -12    1    1    2    0    0  0.24476941750E+02 -0.11150351820E+02 -0.17125111450E+02  0.31886054401E+02  0.00000000000E+00 0.  1.
         11    1    3    3    0    0 -0.21716689696E+02  0.91754813233E+01  0.71175246120E+01  0.24626474082E+02  0.51100000000E-03 0. -1.
        -11    1    3    3    0    0 -0.11514117779E+02  0.13796914099E+02  0.85276999650E+01  0.19890988257E+02  0.51100000000E-03 0.  1.
         12    1    3    3    0    0  0.87538657258E+01 -0.11822043602E+02  0.14798868728E+01  0.14784483259E+02  0.00000000000E+00 0. -1.
</event>
<event>
 7    1  0.3802554E-013  0.5930221E+02  0.7816164E-02  0.1266604E+00
        -11   -1    0    0    0    0  0.00000000000E+00  0.00000000000E+00  0.45593999997E+02  0.45594000000E+02  0.51100000000E-03 0.  1.
         11   -1    0    0    0    0 -0.00000000000E+00 -0.00000000000E+00 -0.45593999997E+02  0.45594000000E+02  0.51100000000E-03 0. -1.
    9900012    2    1    2    0    0 -0.72630712997E+01  0.30278095843E+02  0.68693831140E+01  0.59302208228E+02  0.50000481835E+02 0.  0.
        -12    1    1    2    0    0  0.72630712997E+01 -0.30278095843E+02 -0.68693831140E+01  0.31885791772E+02  0.00000000000E+00 0.  1.
         11    1    3    3    0    0 -0.12122686459E+02  0.13236364104E+02 -0.89511125742E+01  0.20057000729E+02  0.51100000000E-03 0. -1.
        -11    1    3    3    0    0 -0.41047449385E+01  0.23466585699E+02  0.15073118545E+02  0.28190929007E+02  0.51100000000E-03 0.  1.
         12    1    3    3    0    0  0.89643600974E+01 -0.64248539604E+01  0.74737714334E+00  0.11054278491E+02  0.00000000000E+00 0. -1.
</event>
<event>
 7    1  0.3802554E-013  0.5930193E+02  0.7816164E-02  0.1266605E+00
        -11   -1    0    0    0    0  0.00000000000E+00  0.00000000000E+00  0.45593999997E+02  0.45594000000E+02  0.51100000000E-03 0. -1.
         11   -1    0    0    0    0 -0.00000000000E+00 -0.00000000000E+00 -0.45593999997E+02  0.45594000000E+02  0.51100000000E-03 0.  1.
    9900012    2    1    2    0    0 -0.16506505296E+01  0.17065769341E+02  0.26884127406E+02  0.59301930365E+02  0.49999975083E+02 0.  0.
        -12    1    1    2    0    0  0.16506505296E+01 -0.17065769341E+02 -0.26884127406E+02  0.31886069635E+02  0.00000000000E+00 0.  1.
         11    1    3    3    0    0  0.23441148261E+01 -0.13096821909E+01  0.49705554028E+01  0.56494745803E+01  0.51100000000E-03 0. -1.
        -11    1    3    3    0    0 -0.37841723170E+01 -0.53278671757E+01 -0.11177260908E+02  0.12947482011E+02  0.51100000000E-03 0.  1.
         12    1    3    3    0    0 -0.21059303868E+00  0.23703318708E+02  0.33090832911E+02  0.40704973774E+02  0.00000000000E+00 0. -1.
</event>
<event>
 7    1  0.3802554E-013  0.5930194E+02  0.7816164E-02  0.1266605E+00
        -11   -1    0    0    0    0  0.00000000000E+00  0.00000000000E+00  0.45593999997E+02  0.45594000000E+02  0.51100000000E-03 0. -1.
         11   -1    0    0    0    0 -0.00000000000E+00 -0.00000000000E+00 -0.45593999997E+02  0.45594000000E+02  0.51100000000E-03 0.  1.
    9900012    2    1    2    0    0 -0.14462962888E+02  0.22961499346E+02  0.16742549156E+02  0.59301941919E+02  0.49999996154E+02 0.  0.
        -12    1    1    2    0    0  0.14462962888E+02 -0.22961499346E+02 -0.16742549156E+02  0.31886058081E+02  0.00000000000E+00 0.  1.
         11    1    3    3    0    0 -0.21241595770E+02  0.38114791540E+01  0.65806218497E+01  0.22561856049E+02  0.51100000000E-03 0. -1.
        -11    1    3    3    0    0 -0.80653044474E+01 -0.24728156299E+00  0.92818236975E+01  0.12298883503E+02  0.51100000000E-03 0.  1.
         12    1    3    3    0    0  0.14843937329E+02  0.19397301755E+02  0.88010360840E+00  0.24441202367E+02  0.00000000000E+00 0. -1.
</event>
<event>
 7    1  0.3802554E-013  0.5930202E+02  0.7816164E-02  0.1266604E+00
        -11   -1    0    0    0    0  0.00000000000E+00  0.00000000000E+00  0.45593999997E+02  0.45594000000E+02  0.51100000000E-03 0.  1.
         11   -1    0    0    0    0 -0.00000000000E+00 -0.00000000000E+00 -0.45593999997E+02  0.45594000000E+02  0.51100000000E-03 0. -1.
    9900012    2    1    2    0    0  0.89523796331E+01 -0.26701238142E+02 -0.14953741715E+02  0.59302021723E+02  0.50000141697E+02 0.  0.
        -12    1    1    2    0    0 -0.89523796331E+01  0.26701238142E+02  0.14953741715E+02  0.31885978277E+02  0.00000000000E+00 0.  1.
         11    1    3    3    0    0  0.97657129744E+01  0.31123164235E+01  0.11136528635E+02  0.15135320734E+02  0.51100000000E-03 0. -1.
        -11    1    3    3    0    0  0.30469818252E+01  0.47473292473E+00  0.11075033044E+01  0.32765886869E+01  0.51100000000E-03 0.  1.
        -12    1    3    3    0    0 -0.38603151665E+01 -0.30288287490E+02 -0.27197773655E+02  0.40890112302E+02  0.00000000000E+00 0.  1.
</event>
<event>
 7    1  0.3802554E-013  0.5930221E+02  0.7816164E-02  0.1266604E+00
        -11   -1    0    0    0    0  0.00000000000E+00  0.00000000000E+00  0.45593999997E+02  0.45594000000E+02  0.51100000000E-03 0.  1.
         11   -1    0    0    0    0 -0.00000000000E+00 -0.00000000000E+00 -0.45593999997E+02  0.45594000000E+02  0.51100000000E-03 0. -1.
    9900012    2    1    2    0    0  0.10204824141E+02  0.28530235942E+02 -0.99293005077E+01  0.59302206812E+02  0.50000479253E+02 0.  0.
        -12    1    1    2    0    0 -0.10204824141E+02 -0.28530235942E+02  0.99293005077E+01  0.31885793188E+02  0.00000000000E+00 0.  1.
         11    1    3    3    0    0  0.17882174350E+02  0.19413360829E+02 -0.10410850951E+02  0.28373166125E+02  0.51100000000E-03 0. -1.
        -11    1    3    3    0    0  0.29379820538E+01  0.15055449851E+02 -0.67710553037E+01  0.16767393923E+02  0.51100000000E-03 0.  1.
        -12    1    3    3    0    0 -0.10615332263E+02 -0.59385747376E+01  0.72526057469E+01  0.14161646765E+02  0.00000000000E+00 0.  1.
</event>
<event>
 7    1  0.3802554E-013  0.5930194E+02  0.7816164E-02  0.1266605E+00
        -11   -1    0    0    0    0  0.00000000000E+00  0.00000000000E+00  0.45593999997E+02  0.45594000000E+02  0.51100000000E-03 0.  1.
         11   -1    0    0    0    0 -0.00000000000E+00 -0.00000000000E+00 -0.45593999997E+02  0.45594000000E+02  0.51100000000E-03 0. -1.
    9900012    2    1    2    0    0 -0.16511556233E+02  0.23417747165E+02 -0.13989219386E+02  0.59301943007E+02  0.49999998139E+02 0.  0.
        -12    1    1    2    0    0  0.16511556233E+02 -0.23417747165E+02  0.13989219386E+02  0.31886056993E+02  0.00000000000E+00 0.  1.
         11    1    3    3    0    0 -0.11887872799E+01  0.31106233457E+01 -0.13559102431E+02  0.13962036091E+02  0.51100000000E-03 0. -1.
        -11    1    3    3    0    0 -0.20812756864E+02  0.12706543925E+02 -0.14546009073E+02  0.28393898764E+02  0.51100000000E-03 0.  1.
        -12    1    3    3    0    0  0.54899879116E+01  0.76005798946E+01  0.14115892118E+02  0.16946008152E+02  0.00000000000E+00 0.  1.
</event>
<event>
 7    1  0.3802554E-013  0.5930196E+02  0.7816164E-02  0.1266605E+00
        -11   -1    0    0    0    0  0.00000000000E+00  0.00000000000E+00  0.45593999997E+02  0.45594000000E+02  0.51100000000E-03 0.  1.
         11   -1    0    0    0    0 -0.00000000000E+00 -0.00000000000E+00 -0.45593999997E+02  0.45594000000E+02  0.51100000000E-03 0. -1.
    9900012    2    1    2    0    0 -0.96744310929E+01  0.28252837429E+02 -0.11175960856E+02  0.59301960095E+02  0.50000029302E+02 0.  0.
        -12    1    1    2    0    0  0.96744310929E+01 -0.28252837429E+02  0.11175960856E+02  0.31886039905E+02  0.00000000000E+00 0.  1.
         11    1    3    3    0    0 -0.38684843228E+01  0.76947733973E+01 -0.16971421238E+02  0.19031653835E+02  0.51100000000E-03 0. -1.
        -11    1    3    3    0    0 -0.79336104564E+01  0.16871246027E+01 -0.11841540215E+02  0.14353070725E+02  0.51100000000E-03 0.  1.
        -12    1    3    3    0    0  0.21276636864E+01  0.18870939429E+02  0.17637000597E+02  0.25917235535E+02  0.00000000000E+00 0.  1.
</event>
<event>
 7    1  0.3802554E-013  0.5930194E+02  0.7816164E-02  0.1266605E+00
        -11   -1    0    0    0    0  0.00000000000E+00  0.00000000000E+00  0.45593999997E+02  0.45594000000E+02  0.51100000000E-03 0.  1.
         11   -1    0    0    0    0 -0.00000000000E+00 -0.00000000000E+00 -0.45593999997E+02  0.45594000000E+02  0.51100000000E-03 0. -1.
    9900012    2    1    2    0    0  0.19943264484E+01 -0.81846357733E+01 -0.30753137568E+02  0.59301936101E+02  0.49999985543E+02 0.  0.
        -12    1    1    2    0    0 -0.19943264484E+01  0.81846357733E+01  0.30753137568E+02  0.31886063899E+02  0.00000000000E+00 0.  1.
         11    1    3    3    0    0  0.18521931144E+01 -0.14673287156E+02 -0.10811323869E+01  0.14829188204E+02  0.51100000000E-03 0. -1.
        -11    1    3    3    0    0 -0.16848093379E-01 -0.10387081391E+01  0.69792603888E+01  0.70561515214E+01  0.51100000000E-03 0.  1.
         12    1    3    3    0    0  0.15898142734E+00  0.75273595214E+01 -0.36651265570E+02  0.37416596375E+02  0.00000000000E+00 0. -1.
</event>
<event>
 7    1  0.3802554E-013  0.5930195E+02  0.7816164E-02  0.1266605E+00
        -11   -1    0    0    0    0  0.00000000000E+00  0.00000000000E+00  0.45593999997E+02  0.45594000000E+02  0.51100000000E-03 0.  1.
         11   -1    0    0    0    0 -0.00000000000E+00 -0.00000000000E+00 -0.45593999997E+02  0.45594000000E+02  0.51100000000E-03 0. -1.
    9900012    2    1    2    0    0 -0.19065787909E+02 -0.22597644832E+02 -0.11939943782E+02  0.59301951671E+02  0.50000013939E+02 0.  0.
        -12    1    1    2    0    0  0.19065787909E+02  0.22597644832E+02  0.11939943782E+02  0.31886048329E+02  0.00000000000E+00 0.  1.
         11    1    3    3    0    0 -0.91957582022E+01  0.58343441321E+01 -0.89191562094E+01  0.14076678874E+02  0.51100000000E-03 0. -1.
        -11    1    3    3    0    0  0.54878958863E+01 -0.24583281936E+02 -0.11011664613E+02  0.27490207526E+02  0.51100000000E-03 0.  1.
         12    1    3    3    0    0 -0.15357925593E+02 -0.38487070282E+01  0.79908770406E+01  0.17735065271E+02  0.00000000000E+00 0. -1.
</event>
<event>
 7    1  0.3802554E-013  0.5930193E+02  0.7816164E-02  0.1266605E+00
        -11   -1    0    0    0    0  0.00000000000E+00  0.00000000000E+00  0.45593999997E+02  0.45594000000E+02  0.51100000000E-03 0.  1.
         11   -1    0    0    0    0 -0.00000000000E+00 -0.00000000000E+00 -0.45593999997E+02  0.45594000000E+02  0.51100000000E-03 0. -1.
    9900012    2    1    2    0    0  0.55526479829E+01  0.10093059223E+02 -0.29732465065E+02  0.59301933718E+02  0.49999981198E+02 0.  0.
        -12    1    1    2    0    0 -0.55526479829E+01 -0.10093059223E+02  0.29732465065E+02  0.31886066282E+02  0.00000000000E+00 0.  1.
         11    1    3    3    0    0 -0.56619571666E+01 -0.60356158660E+01 -0.85723532299E+01  0.11915186025E+02  0.51100000000E-03 0. -1.
        -11    1    3    3    0    0  0.13209368566E+02 -0.35831686557E+01  0.49994372757E+01  0.14571234981E+02  0.51100000000E-03 0.  1.
         12    1    3    3    0    0 -0.19947634170E+01  0.19711843745E+02 -0.26159549111E+02  0.32815512712E+02  0.00000000000E+00 0. -1.
</event>
<event>
 7    1  0.3802554E-013  0.5930195E+02  0.7816164E-02  0.1266605E+00
        -11   -1    0    0    0    0  0.00000000000E+00  0.00000000000E+00  0.45593999997E+02  0.45594000000E+02  0.51100000000E-03 0. -1.
         11   -1    0    0    0    0 -0.00000000000E+00 -0.00000000000E+00 -0.45593999997E+02  0.45594000000E+02  0.51100000000E-03 0.  1.
    9900012    2    1    2    0    0 -0.24060864028E+01  0.28964542399E+02  0.13114357510E+02  0.59301947547E+02  0.50000006418E+02 0.  0.
        -12    1    1    2    0    0  0.24060864028E+01 -0.28964542399E+02 -0.13114357510E+02  0.31886052453E+02  0.00000000000E+00 0.  1.
         11    1    3    3    0    0 -0.64064638790E+00  0.98297148829E+01  0.99899262310E+01  0.14029695251E+02  0.51100000000E-03 0. -1.
        -11    1    3    3    0    0 -0.49383605451E+01  0.13638667407E+02  0.21441448306E+02  0.25886992086E+02  0.51100000000E-03 0.  1.
        -12    1    3    3    0    0  0.31729205301E+01  0.54961601087E+01 -0.18317017027E+02  0.19385260210E+02  0.00000000000E+00 0.  1.
</event>
<event>
 7    1  0.3802554E-013  0.5930190E+02  0.7816164E-02  0.1266605E+00
        -11   -1    0    0    0    0  0.00000000000E+00  0.00000000000E+00  0.45593999997E+02  0.45594000000E+02  0.51100000000E-03 0.  1.
         11   -1    0    0    0    0 -0.00000000000E+00 -0.00000000000E+00 -0.45593999997E+02  0.45594000000E+02  0.51100000000E-03 0. -1.
    9900012    2    1    2    0    0  0.17070162529E+02  0.48700083064E+01 -0.26488033719E+02  0.59301900208E+02  0.49999920083E+02 0.  0.
        -12    1    1    2    0    0 -0.17070162529E+02 -0.48700083064E+01  0.26488033719E+02  0.31886099792E+02  0.00000000000E+00 0.  1.
         11    1    3    3    0    0  0.87514199617E+01 -0.78156748749E+01  0.32006512464E+01  0.12162084269E+02  0.51100000000E-03 0. -1.
        -11    1    3    3    0    0  0.19759295653E+02  0.12533112069E+02 -0.12603439408E+02  0.26577346520E+02  0.51100000000E-03 0.  1.
         12    1    3    3    0    0 -0.11440553086E+02  0.15257111255E+00 -0.17085245558E+02  0.20562469420E+02  0.00000000000E+00 0. -1.
</event>
<event>
 7    1  0.3802554E-013  0.5930194E+02  0.7816164E-02  0.1266605E+00
        -11   -1    0    0    0    0  0.00000000000E+00  0.00000000000E+00  0.45593999997E+02  0.45594000000E+02  0.51100000000E-03 0.  1.
         11   -1    0    0    0    0 -0.00000000000E+00 -0.00000000000E+00 -0.45593999997E+02  0.45594000000E+02  0.51100000000E-03 0. -1.
    9900012    2    1    2    0    0  0.22665854059E+02 -0.80163702009E+01 -0.20945593363E+02  0.59301937014E+02  0.49999987209E+02 0.  0.
        -12    1    1    2    0    0 -0.22665854059E+02  0.80163702009E+01  0.20945593363E+02  0.31886062986E+02  0.00000000000E+00 0.  1.
         11    1    3    3    0    0  0.19832193600E+02 -0.38860202157E+01 -0.18113083562E+02  0.27138549197E+02  0.51100000000E-03 0. -1.
        -11    1    3    3    0    0 -0.62243848501E+01  0.11948067806E+02  0.12969947682E+00  0.13472791592E+02  0.51100000000E-03 0.  1.
         12    1    3    3    0    0  0.90580453083E+01 -0.16078417791E+02 -0.29622092785E+01  0.18690596226E+02  0.00000000000E+00 0. -1.
</event>
<event>
 7    1  0.3802554E-013  0.5930196E+02  0.7816164E-02  0.1266605E+00
        -11   -1    0    0    0    0  0.00000000000E+00  0.00000000000E+00  0.45593999997E+02  0.45594000000E+02  0.51100000000E-03 0.  1.
         11   -1    0    0    0    0 -0.00000000000E+00 -0.00000000000E+00 -0.45593999997E+02  0.45594000000E+02  0.51100000000E-03 0. -1.
    9900012    2    1    2    0    0 -0.15267310522E+02 -0.94252424422E+01 -0.26358942791E+02  0.59301955549E+02  0.50000021012E+02 0.  0.
        -12    1    1    2    0    0  0.15267310522E+02  0.94252424422E+01  0.26358942791E+02  0.31886044451E+02  0.00000000000E+00 0.  1.
         11    1    3    3    0    0 -0.18499668895E+02 -0.15558691549E+02 -0.21965450807E+02  0.32661776764E+02  0.51100000000E-03 0. -1.
        -11    1    3    3    0    0  0.31566391432E+01  0.78612603843E+01 -0.14279924513E+02  0.16603614964E+02  0.51100000000E-03 0.  1.
         12    1    3    3    0    0  0.75719230281E-01 -0.17278112776E+01  0.98864325285E+01  0.10036563822E+02  0.00000000000E+00 0. -1.
</event>
<event>
 7    1  0.3802554E-013  0.5930194E+02  0.7816164E-02  0.1266605E+00
        -11   -1    0    0    0    0  0.00000000000E+00  0.00000000000E+00  0.45593999997E+02  0.45594000000E+02  0.51100000000E-03 0.  1.
         11   -1    0    0    0    0 -0.00000000000E+00 -0.00000000000E+00 -0.45593999997E+02  0.45594000000E+02  0.51100000000E-03 0. -1.
    9900012    2    1    2    0    0 -0.86883700973E+01 -0.21535014207E+02  0.21851232974E+02  0.59301937303E+02  0.49999987735E+02 0.  0.
        -12    1    1    2    0    0  0.86883700973E+01  0.21535014207E+02 -0.21851232974E+02  0.31886062697E+02  0.00000000000E+00 0.  1.
         11    1    3    3    0    0 -0.13119295431E+02 -0.28430075085E+02  0.11956745252E+02  0.33516396573E+02  0.51100000000E-03 0. -1.
        -11    1    3    3    0    0  0.11353499207E+02 -0.29699323310E+01  0.42965401880E+01  0.12497307715E+02  0.51100000000E-03 0.  1.
         12    1    3    3    0    0 -0.69225738733E+01  0.98649932092E+01  0.55979475343E+01  0.13288233014E+02  0.00000000000E+00 0. -1.
</event>
<event>
 7    1  0.3802554E-013  0.5930198E+02  0.7816164E-02  0.1266605E+00
        -11   -1    0    0    0    0  0.00000000000E+00  0.00000000000E+00  0.45593999997E+02  0.45594000000E+02  0.51100000000E-03 0. -1.
         11   -1    0    0    0    0 -0.00000000000E+00 -0.00000000000E+00 -0.45593999997E+02  0.45594000000E+02  0.51100000000E-03 0.  1.
    9900012    2    1    2    0    0  0.12026015050E+02  0.29119983677E+02 -0.49111627124E+01  0.59301984154E+02  0.50000073180E+02 0.  0.
        -12    1    1    2    0    0 -0.12026015050E+02 -0.29119983677E+02  0.49111627124E+01  0.31886015846E+02  0.00000000000E+00 0.  1.
         11    1    3    3    0    0  0.47841707787E+01  0.10673916458E+02  0.78660547769E+01  0.14095942700E+02  0.51100000000E-03 0. -1.
        -11    1    3    3    0    0 -0.10581201324E+02 -0.62830668733E+01 -0.70743003647E+01  0.14194522771E+02  0.51100000000E-03 0.  1.
         12    1    3    3    0    0  0.17823045595E+02  0.24729134093E+02 -0.57029171246E+01  0.31011518683E+02  0.00000000000E+00 0. -1.
</event>
<event>
 7    1  0.3802554E-013  0.5930194E+02  0.7816164E-02  0.1266605E+00
        -11   -1    0    0    0    0  0.00000000000E+00  0.00000000000E+00  0.45593999997E+02  0.45594000000E+02  0.51100000000E-03 0.  1.
         11   -1    0    0    0    0 -0.00000000000E+00 -0.00000000000E+00 -0.45593999997E+02  0.45594000000E+02  0.51100000000E-03 0. -1.
    9900012    2    1    2    0    0  0.29312864628E+02  0.64616379090E+01  0.10757508659E+02  0.59301940512E+02  0.49999993587E+02 0.  0.
        -12    1    1    2    0    0 -0.29312864628E+02 -0.64616379090E+01 -0.10757508659E+02  0.31886059488E+02  0.00000000000E+00 0.  1.
         11    1    3    3    0    0  0.86786523200E+01  0.12935828124E+02  0.81792939690E+01  0.17594189536E+02  0.51100000000E-03 0. -1.
        -11    1    3    3    0    0  0.27167357542E+02  0.20236865431E+01  0.96102571523E+01  0.28888019417E+02  0.51100000000E-03 0.  1.
        -12    1    3    3    0    0 -0.65331452339E+01 -0.84978767582E+01 -0.70320424624E+01  0.12819731559E+02  0.00000000000E+00 0.  1.
</event>
<event>
 7    1  0.3802554E-013  0.5930214E+02  0.7816164E-02  0.1266604E+00
        -11   -1    0    0    0    0  0.00000000000E+00  0.00000000000E+00  0.45593999997E+02  0.45594000000E+02  0.51100000000E-03 0.  1.
         11   -1    0    0    0    0 -0.00000000000E+00 -0.00000000000E+00 -0.45593999997E+02  0.45594000000E+02  0.51100000000E-03 0. -1.
    9900012    2    1    2    0    0 -0.25241205697E+02  0.37771407749E+01 -0.19113413816E+02  0.59302143493E+02  0.50000363775E+02 0.  0.
        -12    1    1    2    0    0  0.25241205697E+02 -0.37771407749E+01  0.19113413816E+02  0.31885856507E+02  0.00000000000E+00 0.  1.
         11    1    3    3    0    0 -0.40128045593E+01 -0.40675032920E+01  0.70686095251E+01  0.90891377116E+01  0.51100000000E-03 0. -1.
        -11    1    3    3    0    0 -0.90579521661E+01  0.23554350764E-01  0.86322896609E+01  0.12512532809E+02  0.51100000000E-03 0.  1.
         12    1    3    3    0    0 -0.12170448972E+02  0.78210897161E+01 -0.34814313002E+02  0.37700472972E+02  0.00000000000E+00 0. -1.
</event>
<event>
 7    1  0.3802554E-013  0.5930197E+02  0.7816164E-02  0.1266605E+00
        -11   -1    0    0    0    0  0.00000000000E+00  0.00000000000E+00  0.45593999997E+02  0.45594000000E+02  0.51100000000E-03 0. -1.
         11   -1    0    0    0    0 -0.00000000000E+00 -0.00000000000E+00 -0.45593999997E+02  0.45594000000E+02  0.51100000000E-03 0.  1.
    9900012    2    1    2    0    0 -0.30616113578E+02 -0.26659541853E+00 -0.89051292743E+01  0.59301971537E+02  0.50000050170E+02 0.  0.
        -12    1    1    2    0    0  0.30616113578E+02  0.26659541853E+00  0.89051292743E+01  0.31886028463E+02  0.00000000000E+00 0.  1.
         11    1    3    3    0    0 -0.47249681580E+00 -0.12015981246E+02  0.24857493953E+01  0.12279495465E+02  0.51100000000E-03 0. -1.
        -11    1    3    3    0    0  0.61300583358E+01  0.40960665766E+01 -0.61112405375E+01  0.95761494228E+01  0.51100000000E-03 0.  1.
         12    1    3    3    0    0 -0.36273675098E+02  0.76533192513E+01 -0.52796381320E+01  0.37446326649E+02  0.00000000000E+00 0. -1.
</event>
<event>
 7    1  0.3802554E-013  0.5930193E+02  0.7816164E-02  0.1266605E+00
        -11   -1    0    0    0    0  0.00000000000E+00  0.00000000000E+00  0.45593999997E+02  0.45594000000E+02  0.51100000000E-03 0. -1.
         11   -1    0    0    0    0 -0.00000000000E+00 -0.00000000000E+00 -0.45593999997E+02  0.45594000000E+02  0.51100000000E-03 0.  1.
    9900012    2    1    2    0    0  0.33408773756E+01 -0.30055639113E+02  0.10110309265E+02  0.59301933175E+02  0.49999980206E+02 0.  0.
        -12    1    1    2    0    0 -0.33408773756E+01  0.30055639113E+02 -0.10110309265E+02  0.31886066825E+02  0.00000000000E+00 0.  1.
         11    1    3    3    0    0 -0.66978684215E+01 -0.77421794644E+01  0.91559865037E+01  0.13734441138E+02  0.51100000000E-03 0. -1.
        -11    1    3    3    0    0  0.11818455613E+02 -0.57842139152E+01  0.17644321243E+02  0.22010340662E+02  0.51100000000E-03 0.  1.
        -12    1    3    3    0    0 -0.17797098155E+01 -0.16529245734E+02 -0.16689998481E+02  0.23557151374E+02  0.00000000000E+00 0.  1.
</event>
<event>
 7    1  0.3802554E-013  0.5930194E+02  0.7816164E-02  0.1266605E+00
        -11   -1    0    0    0    0  0.00000000000E+00  0.00000000000E+00  0.45593999997E+02  0.45594000000E+02  0.51100000000E-03 0. -1.
         11   -1    0    0    0    0 -0.00000000000E+00 -0.00000000000E+00 -0.45593999997E+02  0.45594000000E+02  0.51100000000E-03 0.  1.
    9900012    2    1    2    0    0 -0.24137881286E+02 -0.14404776961E+02  0.15052770827E+02  0.59301940007E+02  0.49999992668E+02 0.  0.
        -12    1    1    2    0    0  0.24137881286E+02  0.14404776961E+02 -0.15052770827E+02  0.31886059993E+02  0.00000000000E+00 0.  1.
         11    1    3    3    0    0 -0.44238683598E+01  0.75819408324E+01  0.72069802029E+01  0.11357684709E+02  0.51100000000E-03 0. -1.
        -11    1    3    3    0    0 -0.90072427145E+00  0.47646701986E+01 -0.96897465815E+01  0.10835339191E+02  0.51100000000E-03 0.  1.
         12    1    3    3    0    0 -0.18813288655E+02 -0.26751387992E+02  0.17535537206E+02  0.37108916107E+02  0.00000000000E+00 0. -1.
</event>
<event>
 7    1  0.3802554E-013  0.5930194E+02  0.7816164E-02  0.1266605E+00
        -11   -1    0    0    0    0  0.00000000000E+00  0.00000000000E+00  0.45593999997E+02  0.45594000000E+02  0.51100000000E-03 0. -1.
         11   -1    0    0    0    0 -0.00000000000E+00 -0.00000000000E+00 -0.45593999997E+02  0.45594000000E+02  0.51100000000E-03 0.  1.
    9900012    2    1    2    0    0 -0.16857702088E+02  0.13317615626E+02  0.23562249642E+02  0.59301943269E+02  0.49999998617E+02 0.  0.
        -12    1    1    2    0    0  0.16857702088E+02 -0.13317615626E+02 -0.23562249642E+02  0.31886056731E+02  0.00000000000E+00 0.  1.
         11    1    3    3    0    0  0.26396292446E+01  0.10833421381E+02 -0.95033159922E+01  0.14650722729E+02  0.51100000000E-03 0. -1.
        -11    1    3    3    0    0  0.43310107352E+01  0.11461090124E+01  0.85238805117E+00  0.45604589141E+01  0.51100000000E-03 0.  1.
        -12    1    3    3    0    0 -0.23828342068E+02  0.13380852326E+01  0.32213177583E+02  0.40090761627E+02  0.00000000000E+00 0.  1.
</event>
<event>
 7    1  0.3802554E-013  0.5930194E+02  0.7816164E-02  0.1266605E+00
        -11   -1    0    0    0    0  0.00000000000E+00  0.00000000000E+00  0.45593999997E+02  0.45594000000E+02  0.51100000000E-03 0.  1.
         11   -1    0    0    0    0 -0.00000000000E+00 -0.00000000000E+00 -0.45593999997E+02  0.45594000000E+02  0.51100000000E-03 0. -1.
    9900012    2    1    2    0    0 -0.24800495603E+02 -0.14409859565E+01 -0.19989496744E+02  0.59301937170E+02  0.49999987494E+02 0.  0.
        -12    1    1    2    0    0  0.24800495603E+02  0.14409859565E+01  0.19989496744E+02  0.31886062830E+02  0.00000000000E+00 0.  1.
         11    1    3    3    0    0 -0.11917777488E+02 -0.60082069408E+01  0.23324933605E+01  0.13548892812E+02  0.51100000000E-03 0. -1.
        -11    1    3    3    0    0 -0.29877679720E+01 -0.16054983552E+02 -0.13674289563E+02  0.21299658439E+02  0.51100000000E-03 0.  1.
         12    1    3    3    0    0 -0.98949501438E+01  0.20622204536E+02 -0.86477005412E+01  0.24453385920E+02  0.00000000000E+00 0. -1.
</event>
<event>
 7    1  0.3802554E-013  0.5930195E+02  0.7816164E-02  0.1266605E+00
        -11   -1    0    0    0    0  0.00000000000E+00  0.00000000000E+00  0.45593999997E+02  0.45594000000E+02  0.51100000000E-03 0.  1.
         11   -1    0    0    0    0 -0.00000000000E+00 -0.00000000000E+00 -0.45593999997E+02  0.45594000000E+02  0.51100000000E-03 0. -1.
    9900012    2    1    2    0    0 -0.23560608670E+02  0.13524364346E+02 -0.16694588875E+02  0.59301952745E+02  0.50000015898E+02 0.  0.
        -12    1    1    2    0    0  0.23560608670E+02 -0.13524364346E+02  0.16694588875E+02  0.31886047255E+02  0.00000000000E+00 0.  1.
         11    1    3    3    0    0 -0.11326211835E+02  0.80192126868E+01 -0.16017534563E+02  0.21193212602E+02  0.51100000000E-03 0. -1.
        -11    1    3    3    0    0  0.10821881543E+02  0.54036870517E+01 -0.72896297626E+01  0.14122735437E+02  0.51100000000E-03 0.  1.
        -12    1    3    3    0    0 -0.23056278377E+02  0.10146460749E+00  0.66125754509E+01  0.23986004706E+02  0.00000000000E+00 0.  1.
</event>
<event>
 7    1  0.3802554E-013  0.5930201E+02  0.7816164E-02  0.1266605E+00
        -11   -1    0    0    0    0  0.00000000000E+00  0.00000000000E+00  0.45593999997E+02  0.45594000000E+02  0.51100000000E-03 0.  1.
         11   -1    0    0    0    0 -0.00000000000E+00 -0.00000000000E+00 -0.45593999997E+02  0.45594000000E+02  0.51100000000E-03 0. -1.
    9900012    2    1    2    0    0 -0.28836045600E+02 -0.72005669549E+01 -0.11547758675E+02  0.59302009021E+02  0.50000118532E+02 0.  0.
        -12    1    1    2    0    0  0.28836045600E+02  0.72005669549E+01  0.11547758675E+02  0.31885990979E+02  0.00000000000E+00 0.  1.
         11    1    3    3    0    0 -0.19916854509E+02 -0.39954636649E+01  0.83619525286E+01  0.21967409356E+02  0.51100000000E-03 0. -1.
        -11    1    3    3    0    0 -0.22259153741E+01 -0.73724165735E+01  0.63093596988E+01  0.99556639887E+01  0.51100000000E-03 0.  1.
        -12    1    3    3    0    0 -0.66932757160E+01  0.41673132835E+01 -0.26219070902E+02  0.27378935677E+02  0.00000000000E+00 0.  1.
</event>
<event>
 7    1  0.3802554E-013  0.5930201E+02  0.7816164E-02  0.1266605E+00
        -11   -1    0    0    0    0  0.00000000000E+00  0.00000000000E+00  0.45593999997E+02  0.45594000000E+02  0.51100000000E-03 0. -1.
         11   -1    0    0    0    0 -0.00000000000E+00 -0.00000000000E+00 -0.45593999997E+02  0.45594000000E+02  0.51100000000E-03 0.  1.
    9900012    2    1    2    0    0 -0.56344456244E+01  0.15392975058E+02  0.27350063461E+02  0.59302005741E+02  0.50000112549E+02 0.  0.
        -12    1    1    2    0    0  0.56344456244E+01 -0.15392975058E+02 -0.27350063461E+02  0.31885994259E+02  0.00000000000E+00 0.  1.
         11    1    3    3    0    0  0.12271194833E+02  0.12048509634E+02 -0.37319235262E+01  0.17597615193E+02  0.51100000000E-03 0. -1.
        -11    1    3    3    0    0 -0.10202107530E+02  0.79030993093E+01  0.45185497998E+01  0.13673304988E+02  0.51100000000E-03 0.  1.
         12    1    3    3    0    0 -0.77035329268E+01 -0.45586338854E+01  0.26563437187E+02  0.28031085559E+02  0.00000000000E+00 0. -1.
</event>
<event>
 7    1  0.3802554E-013  0.5930195E+02  0.7816164E-02  0.1266605E+00
        -11   -1    0    0    0    0  0.00000000000E+00  0.00000000000E+00  0.45593999997E+02  0.45594000000E+02  0.51100000000E-03 0.  1.
         11   -1    0    0    0    0 -0.00000000000E+00 -0.00000000000E+00 -0.45593999997E+02  0.45594000000E+02  0.51100000000E-03 0. -1.
    9900012    2    1    2    0    0 -0.28873064541E+02  0.11112492077E+02 -0.77187442162E+01  0.59301947431E+02  0.50000006208E+02 0.  0.
        -12    1    1    2    0    0  0.28873064541E+02 -0.11112492077E+02  0.77187442162E+01  0.31886052569E+02  0.00000000000E+00 0.  1.
         11    1    3    3    0    0 -0.29545537882E+02  0.11458269283E+01 -0.45872840482E+01  0.29921478962E+02  0.51100000000E-03 0. -1.
        -11    1    3    3    0    0 -0.70036803716E+01  0.16166007830E+02  0.28428911540E+01  0.17845822432E+02  0.51100000000E-03 0.  1.
        -12    1    3    3    0    0  0.76761537125E+01 -0.61993426811E+01 -0.59743513221E+01  0.11534646038E+02  0.00000000000E+00 0.  1.
</event>
<event>
 7    1  0.3802554E-013  0.5930196E+02  0.7816164E-02  0.1266605E+00
        -11   -1    0    0    0    0  0.00000000000E+00  0.00000000000E+00  0.45593999997E+02  0.45594000000E+02  0.51100000000E-03 0. -1.
         11   -1    0    0    0    0 -0.00000000000E+00 -0.00000000000E+00 -0.45593999997E+02  0.45594000000E+02  0.51100000000E-03 0.  1.
    9900012    2    1    2    0    0  0.12511669013E+02  0.11034815325E+02 -0.27173712206E+02  0.59301958449E+02  0.50000026301E+02 0.  0.
        -12    1    1    2    0    0 -0.12511669013E+02 -0.11034815325E+02  0.27173712206E+02  0.31886041551E+02  0.00000000000E+00 0.  1.
         11    1    3    3    0    0  0.92769409970E+01 -0.74571112573E+01 -0.11300955171E+02  0.16412852604E+02  0.51100000000E-03 0. -1.
        -11    1    3    3    0    0  0.11997573243E+02 -0.33866746084E+01  0.28514196376E+01  0.12788351060E+02  0.51100000000E-03 0.  1.
         12    1    3    3    0    0 -0.87628452270E+01  0.21878601190E+02 -0.18724176672E+02  0.30100754784E+02  0.00000000000E+00 0. -1.
</event>
<event>
 7    1  0.3802554E-013  0.5930195E+02  0.7816164E-02  0.1266605E+00
        -11   -1    0    0    0    0  0.00000000000E+00  0.00000000000E+00  0.45593999997E+02  0.45594000000E+02  0.51100000000E-03 0.  1.
         11   -1    0    0    0    0 -0.00000000000E+00 -0.00000000000E+00 -0.45593999997E+02  0.45594000000E+02  0.51100000000E-03 0. -1.
    9900012    2    1    2    0    0  0.27486521371E+02  0.11432958365E+02  0.11423613097E+02  0.59301947716E+02  0.50000006727E+02 0.  0.
        -12    1    1    2    0    0 -0.27486521371E+02 -0.11432958365E+02 -0.11423613097E+02  0.31886052284E+02  0.00000000000E+00 0.  1.
         11    1    3    3    0    0 -0.82987813828E+01 -0.39169439830E+01  0.12833795279E+01  0.92660285927E+01  0.51100000000E-03 0. -1.
        -11    1    3    3    0    0  0.21571662535E+01  0.14077542527E+02  0.79547336717E+01  0.16312828016E+02  0.51100000000E-03 0.  1.
         12    1    3    3    0    0  0.33628136501E+02  0.12723598207E+01  0.21854998969E+01  0.33723091107E+02  0.00000000000E+00 0. -1.
</event>
<event>
 7    1  0.3802554E-013  0.5930194E+02  0.7816164E-02  0.1266605E+00
        -11   -1    0    0    0    0  0.00000000000E+00  0.00000000000E+00  0.45593999997E+02  0.45594000000E+02  0.51100000000E-03 0.  1.
         11   -1    0    0    0    0 -0.00000000000E+00 -0.00000000000E+00 -0.45593999997E+02  0.45594000000E+02  0.51100000000E-03 0. -1.
    9900012    2    1    2    0    0  0.28259212675E+02 -0.32959452146E+01  0.14397032422E+02  0.59301938807E+02  0.49999990479E+02 0.  0.
        -12    1    1    2    0    0 -0.28259212675E+02  0.32959452146E+01 -0.14397032422E+02  0.31886061193E+02  0.00000000000E+00 0.  1.
         11    1    3    3    0    0  0.11415133468E+02 -0.15335885481E+02  0.82517858318E+01  0.20822742981E+02  0.51100000000E-03 0.  1.
        -11    1    3    3    0    0  0.25295446307E+02  0.39988753369E+01  0.76239902103E+01  0.26720326248E+02  0.51100000000E-03 0. -1.
        -12    1    3    3    0    0 -0.84513671002E+01  0.80410649293E+01 -0.14787436202E+01  0.11758869578E+02  0.00000000000E+00 0.  1.
</event>
<event>
 7    1  0.3802554E-013  0.5930194E+02  0.7816164E-02  0.1266605E+00
        -11   -1    0    0    0    0  0.00000000000E+00  0.00000000000E+00  0.45593999997E+02  0.45594000000E+02  0.51100000000E-03 0. -1.
         11   -1    0    0    0    0 -0.00000000000E+00 -0.00000000000E+00 -0.45593999997E+02  0.45594000000E+02  0.51100000000E-03 0.  1.
    9900012    2    1    2    0    0 -0.26435493762E+02 -0.97402375874E+01  0.14933636960E+02  0.59301936092E+02  0.49999985526E+02 0.  0.
        -12    1    1    2    0    0  0.26435493762E+02  0.97402375874E+01 -0.14933636960E+02  0.31886063908E+02  0.00000000000E+00 0.  1.
         11    1    3    3    0    0  0.68170787941E+00 -0.66689668230E+00 -0.12108949336E+02  0.12146445204E+02  0.51100000000E-03 0. -1.
        -11    1    3    3    0    0 -0.18647753169E+01  0.73975108430E+01  0.18101550290E+01  0.78407407268E+01  0.51100000000E-03 0.  1.
         12    1    3    3    0    0 -0.25252426325E+02 -0.16470851748E+02  0.25232431267E+02  0.39314750161E+02  0.00000000000E+00 0. -1.
</event>
<event>
 7    1  0.3802554E-013  0.5930194E+02  0.7816164E-02  0.1266605E+00
        -11   -1    0    0    0    0  0.00000000000E+00  0.00000000000E+00  0.45593999997E+02  0.45594000000E+02  0.51100000000E-03 0.  1.
         11   -1    0    0    0    0 -0.00000000000E+00 -0.00000000000E+00 -0.45593999997E+02  0.45594000000E+02  0.51100000000E-03 0. -1.
    9900012    2    1    2    0    0 -0.63540749546E+01 -0.14145745653E+02 -0.27861164443E+02  0.59301939210E+02  0.49999991213E+02 0.  0.
        -12    1    1    2    0    0  0.63540749546E+01  0.14145745653E+02  0.27861164443E+02  0.31886060790E+02  0.00000000000E+00 0.  1.
         11    1    3    3    0    0  0.60641321241E+01 -0.10970841704E+02 -0.80782097402E+01  0.14912764297E+02  0.51100000000E-03 0. -1.
        -11    1    3    3    0    0  0.57096280362E+01 -0.10628884549E+02 -0.21561929880E+02  0.24708092996E+02  0.51100000000E-03 0.  1.
        -12    1    3    3    0    0 -0.18127835115E+02  0.74539805998E+01  0.17789751780E+01  0.19681081917E+02  0.00000000000E+00 0.  1.
</event>
<event>
 7    1  0.3802554E-013  0.5930194E+02  0.7816164E-02  0.1266605E+00
        -11   -1    0    0    0    0  0.00000000000E+00  0.00000000000E+00  0.45593999997E+02  0.45594000000E+02  0.51100000000E-03 0.  1.
         11   -1    0    0    0    0 -0.00000000000E+00 -0.00000000000E+00 -0.45593999997E+02  0.45594000000E+02  0.51100000000E-03 0. -1.
    9900012    2    1    2    0    0 -0.19811278627E+02  0.23776783244E+02  0.76745422081E+01  0.59301940658E+02  0.49999993854E+02 0.  0.
        -12    1    1    2    0    0  0.19811278627E+02 -0.23776783244E+02 -0.76745422081E+01  0.31886059342E+02  0.00000000000E+00 0.  1.
         11    1    3    3    0    0 -0.34164104741E+02  0.10488426132E+02  0.26506458446E+01  0.35836002276E+02  0.51100000000E-03 0. -1.
        -11    1    3    3    0    0  0.55636991832E+01  0.12985526278E+02  0.30413190503E+01  0.14450891431E+02  0.51100000000E-03 0.  1.
        -12    1    3    3    0    0  0.87891269310E+01  0.30283083447E+00  0.19825773132E+01  0.90150469509E+01  0.00000000000E+00 0.  1.
</event>
<event>
 7    1  0.3802554E-013  0.5930195E+02  0.7816164E-02  0.1266605E+00
        -11   -1    0    0    0    0  0.00000000000E+00  0.00000000000E+00  0.45593999997E+02  0.45594000000E+02  0.51100000000E-03 0. -1.
         11   -1    0    0    0    0 -0.00000000000E+00 -0.00000000000E+00 -0.45593999997E+02  0.45594000000E+02  0.51100000000E-03 0.  1.
    9900012    2    1    2    0    0 -0.54142813651E+01  0.18997341120E+02  0.25030122441E+02  0.59301945968E+02  0.50000003539E+02 0.  0.
        -12    1    1    2    0    0  0.54142813651E+01 -0.18997341120E+02 -0.25030122441E+02  0.31886054032E+02  0.00000000000E+00 0.  1.
         11    1    3    3    0    0 -0.11803416458E+02  0.85050195331E+01  0.84305728307E+01  0.16814593538E+02  0.51100000000E-03 0.  1.
        -11    1    3    3    0    0 -0.86592648917E+01  0.13659642164E+02  0.20986897860E+02  0.26495633122E+02  0.51100000000E-03 0. -1.
        -12    1    3    3    0    0  0.15048399985E+02 -0.31673205778E+01 -0.43873482496E+01  0.15991719308E+02  0.00000000000E+00 0.  1.
</event>
<event>
 7    1  0.3802554E-013  0.5930195E+02  0.7816164E-02  0.1266605E+00
        -11   -1    0    0    0    0  0.00000000000E+00  0.00000000000E+00  0.45593999997E+02  0.45594000000E+02  0.51100000000E-03 0.  1.
         11   -1    0    0    0    0 -0.00000000000E+00 -0.00000000000E+00 -0.45593999997E+02  0.45594000000E+02  0.51100000000E-03 0. -1.
    9900012    2    1    2    0    0  0.18220011113E+02  0.26145489156E+02  0.10791201941E+01  0.59301954329E+02  0.50000018787E+02 0.  0.
        -12    1    1    2    0    0 -0.18220011113E+02 -0.26145489156E+02 -0.10791201941E+01  0.31886045671E+02  0.00000000000E+00 0.  1.
         11    1    3    3    0    0  0.10641180891E+02  0.42107360296E+01  0.12718594050E+02  0.17109285886E+02  0.51100000000E-03 0. -1.
        -11    1    3    3    0    0 -0.57565152019E+01 -0.47317466363E+01  0.40716039196E+01  0.84914576039E+01  0.51100000000E-03 0.  1.
         12    1    3    3    0    0  0.13335345423E+02  0.26666499762E+02 -0.15711077776E+02  0.33701210839E+02  0.00000000000E+00 0. -1.
</event>
<event>
 7    1  0.3802554E-013  0.5930216E+02  0.7816164E-02  0.1266604E+00
        -11   -1    0    0    0    0  0.00000000000E+00  0.00000000000E+00  0.45593999997E+02  0.45594000000E+02  0.51100000000E-03 0.  1.
         11   -1    0    0    0    0 -0.00000000000E+00 -0.00000000000E+00 -0.45593999997E+02  0.45594000000E+02  0.51100000000E-03 0. -1.
    9900012    2    1    2    0    0  0.33480498018E+01 -0.29948253623E+02 -0.10421116781E+02  0.59302156628E+02  0.50000387731E+02 0.  0.
        -12    1    1    2    0    0 -0.33480498018E+01  0.29948253623E+02  0.10421116781E+02  0.31885843372E+02  0.00000000000E+00 0.  1.
         11    1    3    3    0    0  0.13799064726E+01 -0.16266288645E+02 -0.64018339512E+01  0.17535100979E+02  0.51100000000E-03 0. -1.
        -11    1    3    3    0    0  0.98595790759E+00  0.92667412009E+01 -0.13922421533E+02  0.16753460152E+02  0.51100000000E-03 0.  1.
         12    1    3    3    0    0  0.98218542157E+00 -0.22948706180E+02  0.99031387033E+01  0.25013595497E+02  0.00000000000E+00 0. -1.
</event>
<event>
 7    1  0.3802554E-013  0.5930190E+02  0.7816164E-02  0.1266605E+00
        -11   -1    0    0    0    0  0.00000000000E+00  0.00000000000E+00  0.45593999997E+02  0.45594000000E+02  0.51100000000E-03 0.  1.
         11   -1    0    0    0    0 -0.00000000000E+00 -0.00000000000E+00 -0.45593999997E+02  0.45594000000E+02  0.51100000000E-03 0. -1.
    9900012    2    1    2    0    0 -0.62951860026E+01  0.31188029438E+02  0.20978153138E+01  0.59301899954E+02  0.49999919620E+02 0.  0.
        -12    1    1    2    0    0  0.62951860026E+01 -0.31188029438E+02 -0.20978153138E+01  0.31886100046E+02  0.00000000000E+00 0.  1.
         11    1    3    3    0    0 -0.15743369772E+02  0.70535178119E+01 -0.38127869064E+01  0.17667573392E+02  0.51100000000E-03 0. -1.
        -11    1    3    3    0    0  0.61542834776E+01  0.34130346896E+01  0.16641129513E+02  0.18067960666E+02  0.51100000000E-03 0.  1.
        -12    1    3    3    0    0  0.32939002918E+01  0.20721476937E+02 -0.10730527292E+02  0.23566365896E+02  0.00000000000E+00 0.  1.
</event>
<event>
 7    1  0.3802554E-013  0.5930195E+02  0.7816164E-02  0.1266605E+00
        -11   -1    0    0    0    0  0.00000000000E+00  0.00000000000E+00  0.45593999997E+02  0.45594000000E+02  0.51100000000E-03 0. -1.
         11   -1    0    0    0    0 -0.00000000000E+00 -0.00000000000E+00 -0.45593999997E+02  0.45594000000E+02  0.51100000000E-03 0.  1.
    9900012    2    1    2    0    0  0.10411613652E+02 -0.16842174655E+02 -0.24993194984E+02  0.59301947541E+02  0.50000006407E+02 0.  0.
        -12    1    1    2    0    0 -0.10411613652E+02  0.16842174655E+02  0.24993194984E+02  0.31886052459E+02  0.00000000000E+00 0.  1.
         11    1    3    3    0    0  0.75030083425E+01 -0.27867466991E+01  0.17700509612E+00  0.80057743172E+01  0.51100000000E-03 0. -1.
        -11    1    3    3    0    0  0.22090479453E+02 -0.12646276560E+02 -0.14831647889E+02  0.29460064030E+02  0.51100000000E-03 0.  1.
        -12    1    3    3    0    0 -0.19181874143E+02 -0.14091513962E+01 -0.10338552192E+02  0.21836109194E+02  0.00000000000E+00 0.  1.
</event>
<event>
 7    1  0.4315568E-013  0.5930194E+02  0.7816164E-02  0.1266605E+00
        -11   -1    0    0    0    0  0.00000000000E+00  0.00000000000E+00  0.45593999997E+02  0.45594000000E+02  0.51100000000E-03 0. -1.
         11   -1    0    0    0    0 -0.00000000000E+00 -0.00000000000E+00 -0.45593999997E+02  0.45594000000E+02  0.51100000000E-03 0.  1.
    9900012    2    1    2    0    0 -0.16649674974E+01  0.13432933711E+02  0.28870487729E+02  0.59301938993E+02  0.49999990818E+02 0.  0.
        -12    1    1    2    0    0  0.16649674974E+01 -0.13432933711E+02 -0.28870487729E+02  0.31886061007E+02  0.00000000000E+00 0.  1.
         11    1    3    3    0    0  0.14449437945E+01  0.54260273573E+01  0.32470851192E+02  0.32952781565E+02  0.51100000000E-03 0. -1.
        -11    1    3    3    0    0 -0.68922692037E+01  0.15561278365E+02  0.34986290783E+00  0.17022901146E+02  0.51100000000E-03 0.  1.
        -12    1    3    3    0    0  0.37823579119E+01 -0.75543720113E+01 -0.39502263708E+01  0.93262562821E+01  0.00000000000E+00 0.  1.
</event>
<event>
 7    1  0.3802554E-013  0.5930189E+02  0.7816164E-02  0.1266605E+00
        -11   -1    0    0    0    0  0.00000000000E+00  0.00000000000E+00  0.45593999997E+02  0.45594000000E+02  0.51100000000E-03 0.  1.
         11   -1    0    0    0    0 -0.00000000000E+00 -0.00000000000E+00 -0.45593999997E+02  0.45594000000E+02  0.51100000000E-03 0. -1.
    9900012    2    1    2    0    0  0.10233088759E+01 -0.27504940340E+02 -0.16098299500E+02  0.59301887805E+02  0.49999897462E+02 0.  0.
        -12    1    1    2    0    0 -0.10233088759E+01  0.27504940340E+02  0.16098299500E+02  0.31886112195E+02  0.00000000000E+00 0.  1.
         11    1    3    3    0    0  0.70165857545E+01 -0.15947695735E+02 -0.42998063394E+01  0.17945746285E+02  0.51100000000E-03 0. -1.
        -11    1    3    3    0    0  0.10310438119E+02  0.31962572205E+01 -0.15671665979E+02  0.19029511534E+02  0.51100000000E-03 0.  1.
         12    1    3    3    0    0 -0.16303714997E+02 -0.14753501825E+02  0.38731728185E+01  0.22326629985E+02  0.00000000000E+00 0. -1.
</event>
<event>
 7    1  0.3802554E-013  0.5930196E+02  0.7816164E-02  0.1266605E+00
        -11   -1    0    0    0    0  0.00000000000E+00  0.00000000000E+00  0.45593999997E+02  0.45594000000E+02  0.51100000000E-03 0.  1.
         11   -1    0    0    0    0 -0.00000000000E+00 -0.00000000000E+00 -0.45593999997E+02  0.45594000000E+02  0.51100000000E-03 0. -1.
    9900012    2    1    2    0    0 -0.20194992129E+01  0.22096013541E+02 -0.22899948649E+02  0.59301955410E+02  0.50000020758E+02 0.  0.
        -12    1    1    2    0    0  0.20194992129E+01 -0.22096013541E+02  0.22899948649E+02  0.31886044590E+02  0.00000000000E+00 0.  1.
         11    1    3    3    0    0  0.20547638111E+00  0.20126722757E+02 -0.12678409434E+02  0.23788006548E+02  0.51100000000E-03 0. -1.
        -11    1    3    3    0    0 -0.23005006263E+01  0.17452786210E+02 -0.95230833033E+01  0.20014523863E+02  0.51100000000E-03 0.  1.
        -12    1    3    3    0    0  0.75525032347E-01 -0.15483495426E+02 -0.69845591231E+00  0.15499424999E+02  0.00000000000E+00 0.  1.
</event>
<event>
 7    1  0.3802554E-013  0.5930194E+02  0.7816164E-02  0.1266605E+00
        -11   -1    0    0    0    0  0.00000000000E+00  0.00000000000E+00  0.45593999997E+02  0.45594000000E+02  0.51100000000E-03 0.  1.
         11   -1    0    0    0    0 -0.00000000000E+00 -0.00000000000E+00 -0.45593999997E+02  0.45594000000E+02  0.51100000000E-03 0. -1.
    9900012    2    1    2    0    0  0.29629933197E+02 -0.11759602844E+02 -0.70696159662E+00  0.59301937292E+02  0.49999987716E+02 0.  0.
        -12    1    1    2    0    0 -0.29629933197E+02  0.11759602844E+02  0.70696159662E+00  0.31886062708E+02  0.00000000000E+00 0.  1.
         11    1    3    3    0    0  0.81594210291E+01 -0.41539563491E+01 -0.11115168266E+02  0.14400641330E+02  0.51100000000E-03 0. -1.
        -11    1    3    3    0    0 -0.91251382018E+01 -0.92872733524E+01  0.25416795833E+01  0.13265810525E+02  0.51100000000E-03 0.  1.
        -12    1    3    3    0    0  0.30595650370E+02  0.16816268575E+01  0.78665270858E+01  0.31635485437E+02  0.00000000000E+00 0.  1.
</event>
<event>
 7    1  0.3802554E-013  0.5930197E+02  0.7816164E-02  0.1266605E+00
        -11   -1    0    0    0    0  0.00000000000E+00  0.00000000000E+00  0.45593999997E+02  0.45594000000E+02  0.51100000000E-03 0.  1.
         11   -1    0    0    0    0 -0.00000000000E+00 -0.00000000000E+00 -0.45593999997E+02  0.45594000000E+02  0.51100000000E-03 0. -1.
    9900012    2    1    2    0    0  0.24019609725E+02  0.19916464961E+02 -0.65659396810E+01  0.59301971841E+02  0.50000050724E+02 0.  0.
        -12    1    1    2    0    0 -0.24019609725E+02 -0.19916464961E+02  0.65659396810E+01  0.31886028159E+02  0.00000000000E+00 0.  1.
         11    1    3    3    0    0  0.10619539594E+02  0.50848801264E+01  0.18013515198E+02  0.21520161643E+02  0.51100000000E-03 0. -1.
        -11    1    3    3    0    0  0.31903136353E+01  0.24900449523E+00  0.33684199941E+01  0.46461121217E+01  0.51100000000E-03 0.  1.
         12    1    3    3    0    0  0.10209756496E+02  0.14582580340E+02 -0.27947874873E+02  0.33135698076E+02  0.00000000000E+00 0. -1.
</event>
<event>
 7    1  0.3802554E-013  0.5930194E+02  0.7816164E-02  0.1266605E+00
        -11   -1    0    0    0    0  0.00000000000E+00  0.00000000000E+00  0.45593999997E+02  0.45594000000E+02  0.51100000000E-03 0.  1.
         11   -1    0    0    0    0 -0.00000000000E+00 -0.00000000000E+00 -0.45593999997E+02  0.45594000000E+02  0.51100000000E-03 0. -1.
    9900012    2    1    2    0    0 -0.15018189255E+02  0.21141117211E+02 -0.18553385569E+02  0.59301937818E+02  0.49999988675E+02 0.  0.
        -12    1    1    2    0    0  0.15018189255E+02 -0.21141117211E+02  0.18553385569E+02  0.31886062182E+02  0.00000000000E+00 0.  1.
         11    1    3    3    0    0 -0.10755703883E+02 -0.10190870407E+02  0.18593192838E+01  0.14933053075E+02  0.51100000000E-03 0. -1.
        -11    1    3    3    0    0 -0.23140422271E+01  0.51837264917E+01  0.52117426158E+01  0.77063657533E+01  0.51100000000E-03 0.  1.
         12    1    3    3    0    0 -0.19484431452E+01  0.26148261126E+02 -0.25624447469E+02  0.36662518990E+02  0.00000000000E+00 0. -1.
</event>
<event>
 7    1  0.3802554E-013  0.5930191E+02  0.7816164E-02  0.1266605E+00
        -11   -1    0    0    0    0  0.00000000000E+00  0.00000000000E+00  0.45593999997E+02  0.45594000000E+02  0.51100000000E-03 0.  1.
         11   -1    0    0    0    0 -0.00000000000E+00 -0.00000000000E+00 -0.45593999997E+02  0.45594000000E+02  0.51100000000E-03 0. -1.
    9900012    2    1    2    0    0  0.50455935317E+01  0.27449698753E+02 -0.15420068069E+02  0.59301914085E+02  0.49999945392E+02 0.  0.
        -12    1    1    2    0    0 -0.50455935317E+01 -0.27449698753E+02  0.15420068069E+02  0.31886085915E+02  0.00000000000E+00 0.  1.
         11    1    3    3    0    0  0.58229465651E+01 -0.68952901469E+00 -0.14453835498E+02  0.15597933127E+02  0.51100000000E-03 0. -1.
        -11    1    3    3    0    0  0.15173485421E+02  0.60147031834E+01 -0.17654134969E+01  0.16417307918E+02  0.51100000000E-03 0.  1.
        -12    1    3    3    0    0 -0.15950838454E+02  0.22124524584E+02  0.79918092609E+00  0.27286673040E+02  0.00000000000E+00 0.  1.
</event>
<event>
 7    1  0.3802554E-013  0.5930196E+02  0.7816164E-02  0.1266605E+00
        -11   -1    0    0    0    0  0.00000000000E+00  0.00000000000E+00  0.45593999997E+02  0.45594000000E+02  0.51100000000E-03 0. -1.
         11   -1    0    0    0    0 -0.00000000000E+00 -0.00000000000E+00 -0.45593999997E+02  0.45594000000E+02  0.51100000000E-03 0.  1.
    9900012    2    1    2    0    0 -0.18950446300E+02  0.21594495419E+02  0.13830315041E+02  0.59301964475E+02  0.50000037290E+02 0.  0.
        -12    1    1    2    0    0  0.18950446300E+02 -0.21594495419E+02 -0.13830315041E+02  0.31886035525E+02  0.00000000000E+00 0.  1.
         11    1    3    3    0    0  0.11572999351E+01  0.50698347835E+01  0.14321702897E+02  0.15236592204E+02  0.51100000000E-03 0. -1.
        -11    1    3    3    0    0  0.72158741896E+01  0.27103281903E+01 -0.94210115947E+01  0.12172517363E+02  0.51100000000E-03 0.  1.
        -12    1    3    3    0    0 -0.27323620425E+02  0.13814332445E+02  0.89296237388E+01  0.31892854908E+02  0.00000000000E+00 0.  1.
</event>
<event>
 7    1  0.3802554E-013  0.5930192E+02  0.7816164E-02  0.1266605E+00
        -11   -1    0    0    0    0  0.00000000000E+00  0.00000000000E+00  0.45593999997E+02  0.45594000000E+02  0.51100000000E-03 0.  1.
         11   -1    0    0    0    0 -0.00000000000E+00 -0.00000000000E+00 -0.45593999997E+02  0.45594000000E+02  0.51100000000E-03 0. -1.
    9900012    2    1    2    0    0  0.25483241180E+02  0.13429713448E+02 -0.13673665281E+02  0.59301922998E+02  0.49999961647E+02 0.  0.
        -12    1    1    2    0    0 -0.25483241180E+02 -0.13429713448E+02  0.13673665281E+02  0.31886077002E+02  0.00000000000E+00 0.  1.
         11    1    3    3    0    0 -0.35370276641E+00  0.85558063494E+01  0.14696540310E+01  0.86883146333E+01  0.51100000000E-03 0. -1.
        -11    1    3    3    0    0  0.11219083615E+02  0.22622029767E+02 -0.90855613391E+01  0.26836011124E+02  0.51100000000E-03 0.  1.
        -12    1    3    3    0    0  0.14617860331E+02 -0.17748122668E+02 -0.60577579731E+01  0.23777597241E+02  0.00000000000E+00 0.  1.
</event>
<event>
 7    1  0.3802554E-013  0.5930196E+02  0.7816164E-02  0.1266605E+00
        -11   -1    0    0    0    0  0.00000000000E+00  0.00000000000E+00  0.45593999997E+02  0.45594000000E+02  0.51100000000E-03 0.  1.
         11   -1    0    0    0    0 -0.00000000000E+00 -0.00000000000E+00 -0.45593999997E+02  0.45594000000E+02  0.51100000000E-03 0. -1.
    9900012    2    1    2    0    0  0.16072563595E+02  0.18103640607E+02 -0.20752122636E+02  0.59301957636E+02  0.50000024817E+02 0.  0.
        -12    1    1    2    0    0 -0.16072563595E+02 -0.18103640607E+02  0.20752122636E+02  0.31886042364E+02  0.00000000000E+00 0.  1.
         11    1    3    3    0    0  0.32635524770E+01 -0.12917920270E+01 -0.23443829732E+00  0.35177354915E+01  0.51100000000E-03 0. -1.
        -11    1    3    3    0    0  0.91372443661E+01 -0.12297569952E+02  0.36617418775E+01  0.15752073361E+02  0.51100000000E-03 0.  1.
        -12    1    3    3    0    0  0.36717667521E+01  0.31693002586E+02 -0.24179426217E+02  0.40032148783E+02  0.00000000000E+00 0.  1.
</event>
<event>
 7    1  0.3802554E-013  0.5930193E+02  0.7816164E-02  0.1266605E+00
        -11   -1    0    0    0    0  0.00000000000E+00  0.00000000000E+00  0.45593999997E+02  0.45594000000E+02  0.51100000000E-03 0.  1.
         11   -1    0    0    0    0 -0.00000000000E+00 -0.00000000000E+00 -0.45593999997E+02  0.45594000000E+02  0.51100000000E-03 0. -1.
    9900012    2    1    2    0    0 -0.27208177455E+02  0.82331868864E+01 -0.14444752881E+02  0.59301934509E+02  0.49999982640E+02 0.  0.
        -12    1    1    2    0    0  0.27208177455E+02 -0.82331868864E+01  0.14444752881E+02  0.31886065491E+02  0.00000000000E+00 0.  1.
         11    1    3    3    0    0 -0.66754675455E+01 -0.25410300923E+01  0.16439113678E+01  0.73294710400E+01  0.51100000000E-03 0. -1.
        -11    1    3    3    0    0 -0.10160609575E+02 -0.32247789952E+01  0.13762916166E+02  0.17408476331E+02  0.51100000000E-03 0.  1.
        -12    1    3    3    0    0 -0.10372100334E+02  0.13998995974E+02 -0.29851580415E+02  0.34563987138E+02  0.00000000000E+00 0.  1.
</event>
<event>
 7    1  0.3802554E-013  0.5930194E+02  0.7816164E-02  0.1266605E+00
        -11   -1    0    0    0    0  0.00000000000E+00  0.00000000000E+00  0.45593999997E+02  0.45594000000E+02  0.51100000000E-03 0.  1.
         11   -1    0    0    0    0 -0.00000000000E+00 -0.00000000000E+00 -0.45593999997E+02  0.45594000000E+02  0.51100000000E-03 0. -1.
    9900012    2    1    2    0    0  0.51285927562E+01 -0.18637198177E+02 -0.25358886909E+02  0.59301940902E+02  0.49999994299E+02 0.  0.
        -12    1    1    2    0    0 -0.51285927562E+01  0.18637198177E+02  0.25358886909E+02  0.31886059098E+02  0.00000000000E+00 0.  1.
         11    1    3    3    0    0 -0.14002929375E+00 -0.15842498995E+02  0.58513256618E+01  0.16889120607E+02  0.51100000000E-03 0. -1.
        -11    1    3    3    0    0  0.13191587795E+02  0.90709920038E-01 -0.37901719191E+01  0.13725582693E+02  0.51100000000E-03 0.  1.
         12    1    3    3    0    0 -0.79229657447E+01 -0.28854091022E+01 -0.27420040652E+02  0.28687237602E+02  0.00000000000E+00 0. -1.
</event>
<event>
 7    1  0.3802554E-013  0.5930198E+02  0.7816164E-02  0.1266605E+00
        -11   -1    0    0    0    0  0.00000000000E+00  0.00000000000E+00  0.45593999997E+02  0.45594000000E+02  0.51100000000E-03 0.  1.
         11   -1    0    0    0    0 -0.00000000000E+00 -0.00000000000E+00 -0.45593999997E+02  0.45594000000E+02  0.51100000000E-03 0. -1.
    9900012    2    1    2    0    0  0.14177716226E+00  0.11111157642E+02 -0.29887124619E+02  0.59301982015E+02  0.50000069280E+02 0.  0.
        -12    1    1    2    0    0 -0.14177716226E+00 -0.11111157642E+02  0.29887124619E+02  0.31886017985E+02  0.00000000000E+00 0.  1.
         11    1    3    3    0    0 -0.17856858101E+02  0.52814718729E+01  0.49615137291E+00  0.18628137128E+02  0.51100000000E-03 0. -1.
        -11    1    3    3    0    0  0.10125812960E+02  0.10242222658E+02 -0.78557456854E+01  0.16405729292E+02  0.51100000000E-03 0.  1.
        -12    1    3    3    0    0  0.78728223041E+01 -0.44125368887E+01 -0.22527530307E+02  0.24268115595E+02  0.00000000000E+00 0.  1.
</event>
<event>
 7    1  0.3802554E-013  0.5930194E+02  0.7816164E-02  0.1266605E+00
        -11   -1    0    0    0    0  0.00000000000E+00  0.00000000000E+00  0.45593999997E+02  0.45594000000E+02  0.51100000000E-03 0. -1.
         11   -1    0    0    0    0 -0.00000000000E+00 -0.00000000000E+00 -0.45593999997E+02  0.45594000000E+02  0.51100000000E-03 0.  1.
    9900012    2    1    2    0    0 -0.18197901399E+02  0.26174872642E+02  0.65807613209E+00  0.59301942900E+02  0.49999997944E+02 0.  0.
        -12    1    1    2    0    0  0.18197901399E+02 -0.26174872642E+02 -0.65807613209E+00  0.31886057100E+02  0.00000000000E+00 0.  1.
         11    1    3    3    0    0 -0.12960004910E+02 -0.70267830021E+01  0.19821250917E+01  0.14875020228E+02  0.51100000000E-03 0. -1.
        -11    1    3    3    0    0 -0.51809774911E+01  0.20311005459E+01 -0.10543067259E+02  0.11921583983E+02  0.51100000000E-03 0.  1.
        -12    1    3    3    0    0 -0.56918997403E-01  0.31170555099E+02  0.92190182990E+01  0.32505338690E+02  0.00000000000E+00 0.  1.
</event>
<event>
 7    1  0.3802554E-013  0.5930193E+02  0.7816164E-02  0.1266605E+00
        -11   -1    0    0    0    0  0.00000000000E+00  0.00000000000E+00  0.45593999997E+02  0.45594000000E+02  0.51100000000E-03 0.  1.
         11   -1    0    0    0    0 -0.00000000000E+00 -0.00000000000E+00 -0.45593999997E+02  0.45594000000E+02  0.51100000000E-03 0. -1.
    9900012    2    1    2    0    0 -0.88897724560E+01 -0.95919083685E+01 -0.29080726074E+02  0.59301931107E+02  0.49999976436E+02 0.  0.
        -12    1    1    2    0    0  0.88897724560E+01  0.95919083685E+01  0.29080726074E+02  0.31886068893E+02  0.00000000000E+00 0.  1.
         11    1    3    3    0    0 -0.11385683492E+02 -0.38474877342E+01 -0.88553940069E+01  0.14928327225E+02  0.51100000000E-03 0. -1.
        -11    1    3    3    0    0 -0.11378944966E+02 -0.12713983184E+02 -0.22961989616E+02  0.28607319419E+02  0.51100000000E-03 0.  1.
        -12    1    3    3    0    0  0.13874856003E+02  0.69695625500E+01  0.27366575489E+01  0.15766284463E+02  0.00000000000E+00 0.  1.
</event>
<event>
 7    1  0.3802554E-013  0.5930195E+02  0.7816164E-02  0.1266605E+00
        -11   -1    0    0    0    0  0.00000000000E+00  0.00000000000E+00  0.45593999997E+02  0.45594000000E+02  0.51100000000E-03 0.  1.
         11   -1    0    0    0    0 -0.00000000000E+00 -0.00000000000E+00 -0.45593999997E+02  0.45594000000E+02  0.51100000000E-03 0. -1.
    9900012    2    1    2    0    0  0.80694843028E+01 -0.72361709623E+00 -0.30839587333E+02  0.59301947478E+02  0.50000006292E+02 0.  0.
        -12    1    1    2    0    0 -0.80694843028E+01  0.72361709623E+00  0.30839587333E+02  0.31886052522E+02  0.00000000000E+00 0.  1.
         11    1    3    3    0    0  0.14334454521E+01  0.36735364797E+00  0.25800251676E+01  0.29742637229E+01  0.51100000000E-03 0. -1.
        -11    1    3    3    0    0  0.19302888914E+02  0.14447770860E+02 -0.24536474628E+02  0.34400264399E+02  0.51100000000E-03 0.  1.
         12    1    3    3    0    0 -0.12666850064E+02 -0.15538741604E+02 -0.88831378718E+01  0.21927419356E+02  0.00000000000E+00 0. -1.
</event>
<event>
 7    1  0.3802554E-013  0.5930197E+02  0.7816164E-02  0.1266605E+00
        -11   -1    0    0    0    0  0.00000000000E+00  0.00000000000E+00  0.45593999997E+02  0.45594000000E+02  0.51100000000E-03 0.  1.
         11   -1    0    0    0    0 -0.00000000000E+00 -0.00000000000E+00 -0.45593999997E+02  0.45594000000E+02  0.51100000000E-03 0. -1.
    9900012    2    1    2    0    0 -0.13329584727E+02  0.28537581580E+02 -0.49646373014E+01  0.59301968341E+02  0.50000044342E+02 0.  0.
        -12    1    1    2    0    0  0.13329584727E+02 -0.28537581580E+02  0.49646373014E+01  0.31886031659E+02  0.00000000000E+00 0.  1.
         11    1    3    3    0    0 -0.55379718493E+01  0.30697090639E+01 -0.57357747431E+01  0.85434980018E+01  0.51100000000E-03 0. -1.
        -11    1    3    3    0    0 -0.12997675097E+02 -0.71843318500E+01 -0.75540498732E+01  0.16661868197E+02  0.51100000000E-03 0.  1.
        -12    1    3    3    0    0  0.52060622201E+01  0.32652204366E+02  0.83251873149E+01  0.34096602142E+02  0.00000000000E+00 0.  1.
</event>
<event>
 7    1  0.3802554E-013  0.5930194E+02  0.7816164E-02  0.1266605E+00
        -11   -1    0    0    0    0  0.00000000000E+00  0.00000000000E+00  0.45593999997E+02  0.45594000000E+02  0.51100000000E-03 0.  1.
         11   -1    0    0    0    0 -0.00000000000E+00 -0.00000000000E+00 -0.45593999997E+02  0.45594000000E+02  0.51100000000E-03 0. -1.
    9900012    2    1    2    0    0  0.96143709012E+00  0.28567779443E+02 -0.14130760978E+02  0.59301940517E+02  0.49999993597E+02 0.  0.
        -12    1    1    2    0    0 -0.96143709012E+00 -0.28567779443E+02  0.14130760978E+02  0.31886059483E+02  0.00000000000E+00 0.  1.
         11    1    3    3    0    0 -0.69295213132E+01  0.17391063966E+02 -0.13076304173E+02  0.22835435240E+02  0.51100000000E-03 0. -1.
        -11    1    3    3    0    0  0.25552677555E+01  0.22365396498E+02  0.43778129181E+01  0.22932631773E+02  0.51100000000E-03 0.  1.
        -12    1    3    3    0    0  0.53356906478E+01 -0.11188681022E+02 -0.54322697231E+01  0.13533873504E+02  0.00000000000E+00 0.  1.
</event>
<event>
 7    1  0.3802554E-013  0.5930194E+02  0.7816164E-02  0.1266605E+00
        -11   -1    0    0    0    0  0.00000000000E+00  0.00000000000E+00  0.45593999997E+02  0.45594000000E+02  0.51100000000E-03 0. -1.
         11   -1    0    0    0    0 -0.00000000000E+00 -0.00000000000E+00 -0.45593999997E+02  0.45594000000E+02  0.51100000000E-03 0.  1.
    9900012    2    1    2    0    0  0.99994902971E+01 -0.39564348772E+01  0.30017951978E+02  0.59301943109E+02  0.49999998324E+02 0.  0.
        -12    1    1    2    0    0 -0.99994902971E+01  0.39564348772E+01 -0.30017951978E+02  0.31886056891E+02  0.00000000000E+00 0.  1.
         11    1    3    3    0    0 -0.73557153182E+01 -0.17643215523E+02  0.17242823734E+02  0.25743049012E+02  0.51100000000E-03 0. -1.
        -11    1    3    3    0    0 -0.43150752261E+01  0.40983647600E+01  0.69630690152E+01  0.91597378939E+01  0.51100000000E-03 0.  1.
        -12    1    3    3    0    0  0.21670280841E+02  0.95884158861E+01  0.58120592284E+01  0.24399156203E+02  0.00000000000E+00 0.  1.
</event>
<event>
 7    1  0.3802554E-013  0.5930194E+02  0.7816164E-02  0.1266605E+00
        -11   -1    0    0    0    0  0.00000000000E+00  0.00000000000E+00  0.45593999997E+02  0.45594000000E+02  0.51100000000E-03 0.  1.
         11   -1    0    0    0    0 -0.00000000000E+00 -0.00000000000E+00 -0.45593999997E+02  0.45594000000E+02  0.51100000000E-03 0. -1.
    9900012    2    1    2    0    0 -0.20342956279E+02 -0.20201410498E+02 -0.13956649213E+02  0.59301938569E+02  0.49999990045E+02 0.  0.
        -12    1    1    2    0    0  0.20342956279E+02  0.20201410498E+02  0.13956649213E+02  0.31886061431E+02  0.00000000000E+00 0.  1.
         11    1    3    3    0    0 -0.22107639286E+02 -0.66254905085E+01 -0.23438763849E+02  0.32894079867E+02  0.51100000000E-03 0. -1.
        -11    1    3    3    0    0 -0.75929775405E+01 -0.44028257062E+01  0.99850513664E+01  0.13294338388E+02  0.51100000000E-03 0.  1.
        -12    1    3    3    0    0  0.93576605477E+01 -0.91730942837E+01 -0.50293673079E+00  0.13113520314E+02  0.00000000000E+00 0.  1.
</event>
<event>
 7    1  0.3802554E-013  0.5930198E+02  0.7816164E-02  0.1266605E+00
        -11   -1    0    0    0    0  0.00000000000E+00  0.00000000000E+00  0.45593999997E+02  0.45594000000E+02  0.51100000000E-03 0.  1.
         11   -1    0    0    0    0 -0.00000000000E+00 -0.00000000000E+00 -0.45593999997E+02  0.45594000000E+02  0.51100000000E-03 0. -1.
    9900012    2    1    2    0    0 -0.30540240173E+02 -0.90081212930E+01  0.16928980341E+01  0.59301977627E+02  0.50000061276E+02 0.  0.
        -12    1    1    2    0    0  0.30540240173E+02  0.90081212930E+01 -0.16928980341E+01  0.31886022373E+02  0.00000000000E+00 0.  1.
         11    1    3    3    0    0 -0.22337403728E+02 -0.28719163589E+00 -0.13422286345E+02  0.26061463031E+02  0.51100000000E-03 0. -1.
        -11    1    3    3    0    0 -0.43139191530E+01 -0.44905871598E+01 -0.75911341973E+01  0.98183802208E+01  0.51100000000E-03 0.  1.
        -12    1    3    3    0    0 -0.38889172921E+01 -0.42303424973E+01  0.22706318577E+02  0.23422134375E+02  0.00000000000E+00 0.  1.
</event>
<event>
 7    1  0.3802554E-013  0.5930194E+02  0.7816164E-02  0.1266605E+00
        -11   -1    0    0    0    0  0.00000000000E+00  0.00000000000E+00  0.45593999997E+02  0.45594000000E+02  0.51100000000E-03 0.  1.
         11   -1    0    0    0    0 -0.00000000000E+00 -0.00000000000E+00 -0.45593999997E+02  0.45594000000E+02  0.51100000000E-03 0. -1.
    9900012    2    1    2    0    0 -0.18268179328E+02 -0.63965658343E+01 -0.25339269393E+02  0.59301937154E+02  0.49999987465E+02 0.  0.
        -12    1    1    2    0    0  0.18268179328E+02  0.63965658343E+01  0.25339269393E+02  0.31886062846E+02  0.00000000000E+00 0.  1.
         11    1    3    3    0    0  0.39994680447E+00  0.32420755736E+00 -0.16187703088E+02  0.16195888352E+02  0.51100000000E-03 0. -1.
        -11    1    3    3    0    0 -0.62613870835E+01  0.15325631458E+02 -0.12471995751E+01  0.16602272581E+02  0.51100000000E-03 0.  1.
        -12    1    3    3    0    0 -0.12406739049E+02 -0.22046404850E+02 -0.79043667302E+01  0.26503776222E+02  0.00000000000E+00 0.  1.
</event>
<event>
 7    1  0.3802554E-013  0.5930195E+02  0.7816164E-02  0.1266605E+00
        -11   -1    0    0    0    0  0.00000000000E+00  0.00000000000E+00  0.45593999997E+02  0.45594000000E+02  0.51100000000E-03 0.  1.
         11   -1    0    0    0    0 -0.00000000000E+00 -0.00000000000E+00 -0.45593999997E+02  0.45594000000E+02  0.51100000000E-03 0. -1.
    9900012    2    1    2    0    0 -0.10684595091E+02 -0.29171438543E+02 -0.71824072179E+01  0.59301947056E+02  0.50000005523E+02 0.  0.
        -12    1    1    2    0    0  0.10684595091E+02  0.29171438543E+02  0.71824072179E+01  0.31886052944E+02  0.00000000000E+00 0.  1.
         11    1    3    3    0    0  0.36110016073E+01 -0.20207243614E+02  0.57015734090E+01  0.21304458845E+02  0.51100000000E-03 0. -1.
        -11    1    3    3    0    0  0.24371368543E+01 -0.15752797360E+02 -0.21956713664E+00  0.15941721071E+02  0.51100000000E-03 0.  1.
         12    1    3    3    0    0 -0.16732733552E+02  0.67886024310E+01 -0.12664413490E+02  0.22055767140E+02  0.00000000000E+00 0. -1.
</event>
<event>
 7    1  0.3802554E-013  0.5930195E+02  0.7816164E-02  0.1266605E+00
        -11   -1    0    0    0    0  0.00000000000E+00  0.00000000000E+00  0.45593999997E+02  0.45594000000E+02  0.51100000000E-03 0.  1.
         11   -1    0    0    0    0 -0.00000000000E+00 -0.00000000000E+00 -0.45593999997E+02  0.45594000000E+02  0.51100000000E-03 0. -1.
    9900012    2    1    2    0    0  0.16006399432E+01  0.65582008932E+01 -0.31163251405E+02  0.59301948421E+02  0.50000008013E+02 0.  0.
        -12    1    1    2    0    0 -0.16006399432E+01 -0.65582008932E+01  0.31163251405E+02  0.31886051579E+02  0.00000000000E+00 0.  1.
         11    1    3    3    0    0  0.12941571086E+02  0.12496595448E+02 -0.15996767284E+02  0.24073755913E+02  0.51100000000E-03 0. -1.
        -11    1    3    3    0    0  0.86614593288E+01 -0.47893889183E+00 -0.11119341290E+02  0.14102836989E+02  0.51100000000E-03 0.  1.
         12    1    3    3    0    0 -0.20002390471E+02 -0.54594556632E+01 -0.40471428303E+01  0.21125355519E+02  0.00000000000E+00 0. -1.
</event>
<event>
 7    1  0.3802554E-013  0.5930194E+02  0.7816164E-02  0.1266605E+00
        -11   -1    0    0    0    0  0.00000000000E+00  0.00000000000E+00  0.45593999997E+02  0.45594000000E+02  0.51100000000E-03 0. -1.
         11   -1    0    0    0    0 -0.00000000000E+00 -0.00000000000E+00 -0.45593999997E+02  0.45594000000E+02  0.51100000000E-03 0.  1.
    9900012    2    1    2    0    0  0.26619603279E+02 -0.74257995927E+01  0.15905196811E+02  0.59301936212E+02  0.49999985745E+02 0.  0.
        -12    1    1    2    0    0 -0.26619603279E+02  0.74257995927E+01 -0.15905196811E+02  0.31886063788E+02  0.00000000000E+00 0.  1.
         11    1    3    3    0    0 -0.23267874585E+01 -0.45438614420E+01  0.16896025801E+02  0.17650391067E+02  0.51100000000E-03 0. -1.
        -11    1    3    3    0    0  0.12289015415E+02  0.19881572645E+00  0.14282612900E+02  0.18842835749E+02  0.51100000000E-03 0.  1.
        -12    1    3    3    0    0  0.16657375323E+02 -0.30807538772E+01 -0.15273441891E+02  0.22808709395E+02  0.00000000000E+00 0.  1.
</event>
<event>
 7    1  0.3802554E-013  0.5930194E+02  0.7816164E-02  0.1266605E+00
        -11   -1    0    0    0    0  0.00000000000E+00  0.00000000000E+00  0.45593999997E+02  0.45594000000E+02  0.51100000000E-03 0.  1.
         11   -1    0    0    0    0 -0.00000000000E+00 -0.00000000000E+00 -0.45593999997E+02  0.45594000000E+02  0.51100000000E-03 0. -1.
    9900012    2    1    2    0    0 -0.20726365077E+02  0.96763523846E+01 -0.22215010928E+02  0.59301941678E+02  0.49999995715E+02 0.  0.
        -12    1    1    2    0    0  0.20726365077E+02 -0.96763523846E+01  0.22215010928E+02  0.31886058322E+02  0.00000000000E+00 0.  1.
         11    1    3    3    0    0 -0.57766652920E+01  0.61737859271E+01 -0.91441308911E+01  0.12453940123E+02  0.51100000000E-03 0. -1.
        -11    1    3    3    0    0  0.15984403037E+00  0.10167731322E+02 -0.24659066407E+02  0.26673542447E+02  0.51100000000E-03 0.  1.
        -12    1    3    3    0    0 -0.15109543815E+02 -0.66651648645E+01  0.11588186370E+02  0.20174459108E+02  0.00000000000E+00 0.  1.
</event>
<event>
 7    1  0.3802554E-013  0.5930192E+02  0.7816164E-02  0.1266605E+00
        -11   -1    0    0    0    0  0.00000000000E+00  0.00000000000E+00  0.45593999997E+02  0.45594000000E+02  0.51100000000E-03 0. -1.
         11   -1    0    0    0    0 -0.00000000000E+00 -0.00000000000E+00 -0.45593999997E+02  0.45594000000E+02  0.51100000000E-03 0.  1.
    9900012    2    1    2    0    0 -0.18002942926E+02 -0.25795096024E+02  0.52181800789E+01  0.59301916260E+02  0.49999949359E+02 0.  0.
        -12    1    1    2    0    0  0.18002942926E+02  0.25795096024E+02 -0.52181800789E+01  0.31886083740E+02  0.00000000000E+00 0.  1.
         11    1    3    3    0    0 -0.13757040904E+02  0.48824258415E+01 -0.27592142676E+00  0.14600355798E+02  0.51100000000E-03 0. -1.
        -11    1    3    3    0    0 -0.12026739912E+02 -0.33704867205E+02  0.26616904623E+01  0.35885166052E+02  0.51100000000E-03 0.  1.
         12    1    3    3    0    0  0.77808378900E+01  0.30273453390E+01  0.28324110434E+01  0.88163944099E+01  0.00000000000E+00 0. -1.
</event>
<event>
 7    1  0.3802554E-013  0.5930193E+02  0.7816164E-02  0.1266605E+00
        -11   -1    0    0    0    0  0.00000000000E+00  0.00000000000E+00  0.45593999997E+02  0.45594000000E+02  0.51100000000E-03 0. -1.
         11   -1    0    0    0    0 -0.00000000000E+00 -0.00000000000E+00 -0.45593999997E+02  0.45594000000E+02  0.51100000000E-03 0.  1.
    9900012    2    1    2    0    0 -0.30099537445E+02 -0.83164358988E+01 -0.64479709286E+01  0.59301927969E+02  0.49999970714E+02 0.  0.
        -12    1    1    2    0    0  0.30099537445E+02  0.83164358988E+01  0.64479709286E+01  0.31886072031E+02  0.00000000000E+00 0.  1.
         11    1    3    3    0    0 -0.18803359657E+00  0.10739133590E+02 -0.30691843884E+01  0.11170686638E+02  0.51100000000E-03 0. -1.
        -11    1    3    3    0    0 -0.14061882704E+02  0.71082082304E+01 -0.71626825454E+01  0.17308009445E+02  0.51100000000E-03 0.  1.
         12    1    3    3    0    0 -0.15849621144E+02 -0.26163777719E+02  0.37838960052E+01  0.30823231886E+02  0.00000000000E+00 0. -1.
</event>
<event>
 7    1  0.3802554E-013  0.5930194E+02  0.7816164E-02  0.1266605E+00
        -11   -1    0    0    0    0  0.00000000000E+00  0.00000000000E+00  0.45593999997E+02  0.45594000000E+02  0.51100000000E-03 0.  1.
         11   -1    0    0    0    0 -0.00000000000E+00 -0.00000000000E+00 -0.45593999997E+02  0.45594000000E+02  0.51100000000E-03 0. -1.
    9900012    2    1    2    0    0  0.30981538490E+02  0.55643677990E+01 -0.50895063970E+01  0.59301937346E+02  0.49999987814E+02 0.  0.
        -12    1    1    2    0    0 -0.30981538490E+02 -0.55643677990E+01  0.50895063970E+01  0.31886062654E+02  0.00000000000E+00 0.  1.
         11    1    3    3    0    0  0.22556376110E+02 -0.83836024885E+00 -0.14304072514E+02  0.26722639126E+02  0.51100000000E-03 0. -1.
        -11    1    3    3    0    0  0.12588767958E+02  0.80391121199E+00 -0.73540081585E+01  0.14601533762E+02  0.51100000000E-03 0.  1.
        -12    1    3    3    0    0 -0.41636055778E+01  0.55988168359E+01  0.16568574276E+02  0.17977764458E+02  0.00000000000E+00 0.  1.
</event>
<event>
 7    1  0.3802554E-013  0.5930192E+02  0.7816164E-02  0.1266605E+00
        -11   -1    0    0    0    0  0.00000000000E+00  0.00000000000E+00  0.45593999997E+02  0.45594000000E+02  0.51100000000E-03 0.  1.
         11   -1    0    0    0    0 -0.00000000000E+00 -0.00000000000E+00 -0.45593999997E+02  0.45594000000E+02  0.51100000000E-03 0. -1.
    9900012    2    1    2    0    0  0.16321535484E+02  0.17458538388E+02 -0.21107555737E+02  0.59301921652E+02  0.49999959193E+02 0.  0.
        -12    1    1    2    0    0 -0.16321535484E+02 -0.17458538388E+02  0.21107555737E+02  0.31886078348E+02  0.00000000000E+00 0.  1.
         11    1    3    3    0    0 -0.15374895681E+01  0.67447249857E+01 -0.37839611389E+01  0.78850207018E+01  0.51100000000E-03 0. -1.
        -11    1    3    3    0    0  0.32751999517E+01  0.65178283836E+01  0.14460332378E+02  0.16195994391E+02  0.51100000000E-03 0.  1.
        -12    1    3    3    0    0  0.14583825101E+02  0.41959850184E+01 -0.31783926976E+02  0.35220906560E+02  0.00000000000E+00 0.  1.
</event>
<event>
 7    1  0.3802554E-013  0.5930154E+02  0.7816164E-02  0.1266606E+00
        -11   -1    0    0    0    0  0.00000000000E+00  0.00000000000E+00  0.45593999997E+02  0.45594000000E+02  0.51100000000E-03 0.  1.
         11   -1    0    0    0    0 -0.00000000000E+00 -0.00000000000E+00 -0.45593999997E+02  0.45594000000E+02  0.51100000000E-03 0. -1.
    9900012    2    1    2    0    0 -0.51194383804E+00 -0.31427138013E+02 -0.53683641145E+01  0.59301538555E+02  0.49999260510E+02 0.  0.
        -12    1    1    2    0    0  0.51194383804E+00  0.31427138013E+02  0.53683641145E+01  0.31886461445E+02  0.00000000000E+00 0.  1.
         11    1    3    3    0    0  0.71861312103E+01 -0.23944331299E+02 -0.17617015607E+02  0.30583177113E+02  0.51100000000E-03 0. -1.
        -11    1    3    3    0    0 -0.11839502310E+02 -0.13586226319E+02  0.58297970755E+01  0.18940588554E+02  0.51100000000E-03 0.  1.
        -12    1    3    3    0    0  0.41414272619E+01  0.61034196050E+01  0.64188544173E+01  0.97777728891E+01  0.00000000000E+00 0.  1.
</event>
<event>
 7    1  0.3802554E-013  0.5930194E+02  0.7816164E-02  0.1266605E+00
        -11   -1    0    0    0    0  0.00000000000E+00  0.00000000000E+00  0.45593999997E+02  0.45594000000E+02  0.51100000000E-03 0. -1.
         11   -1    0    0    0    0 -0.00000000000E+00 -0.00000000000E+00 -0.45593999997E+02  0.45594000000E+02  0.51100000000E-03 0.  1.
    9900012    2    1    2    0    0  0.11676233112E+01  0.31852928229E+02  0.86527594961E+00  0.59301935906E+02  0.49999985188E+02 0.  0.
        -12    1    1    2    0    0 -0.11676233112E+01 -0.31852928229E+02 -0.86527594961E+00  0.31886064094E+02  0.00000000000E+00 0.  1.
         11    1    3    3    0    0  0.67961297278E+01  0.26864367703E+02 -0.64546154835E+01  0.28452481309E+02  0.51100000000E-03 0. -1.
        -11    1    3    3    0    0  0.95723228165E+01 -0.17414982641E+01  0.10066683335E+02  0.14000010498E+02  0.51100000000E-03 0.  1.
         12    1    3    3    0    0 -0.15200829233E+02  0.67300587901E+01 -0.27467919017E+01  0.16849444099E+02  0.00000000000E+00 0. -1.
</event>
<event>
 7    1  0.3802554E-013  0.5930188E+02  0.7816164E-02  0.1266605E+00
        -11   -1    0    0    0    0  0.00000000000E+00  0.00000000000E+00  0.45593999997E+02  0.45594000000E+02  0.51100000000E-03 0.  1.
         11   -1    0    0    0    0 -0.00000000000E+00 -0.00000000000E+00 -0.45593999997E+02  0.45594000000E+02  0.51100000000E-03 0. -1.
    9900012    2    1    2    0    0  0.19787104095E+02 -0.22893586469E+02  0.10053808000E+02  0.59301876918E+02  0.49999877608E+02 0.  0.
        -12    1    1    2    0    0 -0.19787104095E+02  0.22893586469E+02 -0.10053808000E+02  0.31886123082E+02  0.00000000000E+00 0.  1.
         11    1    3    3    0    0  0.21281018248E+02 -0.49696901384E+01  0.51729156358E+01  0.22457484591E+02  0.51100000000E-03 0.  1.
        -11    1    3    3    0    0  0.69907370565E+01 -0.24638995381E+02  0.22598872020E+01  0.25711040205E+02  0.51100000000E-03 0. -1.
        -12    1    3    3    0    0 -0.84846512094E+01  0.67150990504E+01  0.26210051621E+01  0.11133352122E+02  0.00000000000E+00 0.  1.
</event>
<event>
 7    1  0.3802554E-013  0.5930190E+02  0.7816164E-02  0.1266605E+00
        -11   -1    0    0    0    0  0.00000000000E+00  0.00000000000E+00  0.45593999997E+02  0.45594000000E+02  0.51100000000E-03 0.  1.
         11   -1    0    0    0    0 -0.00000000000E+00 -0.00000000000E+00 -0.45593999997E+02  0.45594000000E+02  0.51100000000E-03 0. -1.
    9900012    2    1    2    0    0  0.14384510541E+02 -0.14697534357E+02 -0.24367836090E+02  0.59301904356E+02  0.49999927648E+02 0.  0.
        -12    1    1    2    0    0 -0.14384510541E+02  0.14697534357E+02  0.24367836090E+02  0.31886095644E+02  0.00000000000E+00 0.  1.
         11    1    3    3    0    0  0.13403508929E+02 -0.20077358764E+02  0.35499671588E+01  0.24399931427E+02  0.51100000000E-03 0. -1.
        -11    1    3    3    0    0  0.12310682144E+01 -0.43073392612E+01 -0.24057395109E+02  0.24470941137E+02  0.51100000000E-03 0.  1.
        -12    1    3    3    0    0 -0.25006660177E+00  0.96871636678E+01 -0.38604081402E+01  0.10431031792E+02  0.00000000000E+00 0.  1.
</event>
<event>
 7    1  0.3802554E-013  0.5930210E+02  0.7816164E-02  0.1266604E+00
        -11   -1    0    0    0    0  0.00000000000E+00  0.00000000000E+00  0.45593999997E+02  0.45594000000E+02  0.51100000000E-03 0. -1.
         11   -1    0    0    0    0 -0.00000000000E+00 -0.00000000000E+00 -0.45593999997E+02  0.45594000000E+02  0.51100000000E-03 0.  1.
    9900012    2    1    2    0    0  0.26239414395E+02 -0.25347664175E+01  0.17938185982E+02  0.59302103040E+02  0.50000290000E+02 0.  0.
        -12    1    1    2    0    0 -0.26239414395E+02  0.25347664175E+01 -0.17938185982E+02  0.31885896960E+02  0.00000000000E+00 0.  1.
         11    1    3    3    0    0 -0.19362782251E+01 -0.36505716332E+01  0.24239847910E+01  0.47907775092E+01  0.51100000000E-03 0. -1.
        -11    1    3    3    0    0 -0.27290572122E+01 -0.15017068232E+02  0.12109375618E+02  0.19483251004E+02  0.51100000000E-03 0.  1.
         12    1    3    3    0    0  0.30904749833E+02  0.16132873448E+02  0.34048255732E+01  0.35028074527E+02  0.00000000000E+00 0. -1.
</event>
<event>
 7    1  0.3802554E-013  0.5930194E+02  0.7816164E-02  0.1266605E+00
        -11   -1    0    0    0    0  0.00000000000E+00  0.00000000000E+00  0.45593999997E+02  0.45594000000E+02  0.51100000000E-03 0. -1.
         11   -1    0    0    0    0 -0.00000000000E+00 -0.00000000000E+00 -0.45593999997E+02  0.45594000000E+02  0.51100000000E-03 0.  1.
    9900012    2    1    2    0    0 -0.27665748116E+02 -0.12921319626E+02 -0.91851295714E+01  0.59301941527E+02  0.49999995440E+02 0.  0.
        -12    1    1    2    0    0  0.27665748116E+02  0.12921319626E+02  0.91851295714E+01  0.31886058473E+02  0.00000000000E+00 0.  1.
         11    1    3    3    0    0 -0.21714248583E+02 -0.19050925921E+01  0.73041592117E+01  0.22988882342E+02  0.51100000000E-03 0. -1.
        -11    1    3    3    0    0  0.66355707469E+01  0.74597263878E+01 -0.55756381705E+01  0.11435298780E+02  0.51100000000E-03 0.  1.
         12    1    3    3    0    0 -0.12587070280E+02 -0.18475953422E+02 -0.10913650613E+02  0.24877760405E+02  0.00000000000E+00 0. -1.
</event>
<event>
 7    1  0.3802554E-013  0.5930196E+02  0.7816164E-02  0.1266605E+00
        -11   -1    0    0    0    0  0.00000000000E+00  0.00000000000E+00  0.45593999997E+02  0.45594000000E+02  0.51100000000E-03 0.  1.
         11   -1    0    0    0    0 -0.00000000000E+00 -0.00000000000E+00 -0.45593999997E+02  0.45594000000E+02  0.51100000000E-03 0. -1.
    9900012    2    1    2    0    0 -0.17715732471E+02 -0.36690840638E+01 -0.26256620108E+02  0.59301961451E+02  0.50000031776E+02 0.  0.
        -12    1    1    2    0    0  0.17715732471E+02  0.36690840638E+01  0.26256620108E+02  0.31886038549E+02  0.00000000000E+00 0.  1.
         11    1    3    3    0    0 -0.54429684604E+01 -0.20925812975E+02 -0.26739482771E+02  0.34387723004E+02  0.51100000000E-03 0. -1.
        -11    1    3    3    0    0  0.12865914755E+01  0.11778756078E+01 -0.31204008886E+01  0.35748581145E+01  0.51100000000E-03 0.  1.
         12    1    3    3    0    0 -0.13559355486E+02  0.16078853303E+02  0.36032635518E+01  0.21339380332E+02  0.00000000000E+00 0. -1.
</event>
<event>
 7    1  0.3802554E-013  0.5930195E+02  0.7816164E-02  0.1266605E+00
        -11   -1    0    0    0    0  0.00000000000E+00  0.00000000000E+00  0.45593999997E+02  0.45594000000E+02  0.51100000000E-03 0.  1.
         11   -1    0    0    0    0 -0.00000000000E+00 -0.00000000000E+00 -0.45593999997E+02  0.45594000000E+02  0.51100000000E-03 0. -1.
    9900012    2    1    2    0    0  0.99318562737E+01 -0.19112924031E+02 -0.23511160085E+02  0.59301948463E+02  0.50000008089E+02 0.  0.
        -12    1    1    2    0    0 -0.99318562737E+01  0.19112924031E+02  0.23511160085E+02  0.31886051537E+02  0.00000000000E+00 0.  1.
         11    1    3    3    0    0 -0.11500039185E+01 -0.69504906560E+01  0.90965126601E+01  0.11505580047E+02  0.51100000000E-03 0. -1.
        -11    1    3    3    0    0  0.65622590255E+01 -0.59563890372E+01  0.44744305284E+01  0.99278569034E+01  0.51100000000E-03 0.  1.
         12    1    3    3    0    0  0.45196011667E+01 -0.62060443381E+01 -0.37082103273E+02  0.37868511513E+02  0.00000000000E+00 0. -1.
</event>
<event>
 7    1  0.3802554E-013  0.5930193E+02  0.7816164E-02  0.1266605E+00
        -11   -1    0    0    0    0  0.00000000000E+00  0.00000000000E+00  0.45593999997E+02  0.45594000000E+02  0.51100000000E-03 0.  1.
         11   -1    0    0    0    0 -0.00000000000E+00 -0.00000000000E+00 -0.45593999997E+02  0.45594000000E+02  0.51100000000E-03 0. -1.
    9900012    2    1    2    0    0 -0.44317130974E+01  0.23240424367E+02 -0.21376716507E+02  0.59301930716E+02  0.49999975723E+02 0.  0.
        -12    1    1    2    0    0  0.44317130974E+01 -0.23240424367E+02  0.21376716507E+02  0.31886069284E+02  0.00000000000E+00 0.  1.
         11    1    3    3    0    0 -0.16277667915E+02  0.11265691191E+02 -0.41028020989E+01  0.20216608422E+02  0.51100000000E-03 0. -1.
        -11    1    3    3    0    0 -0.12678490585E+01 -0.90208815800E+01 -0.38382087176E+00  0.91176238373E+01  0.51100000000E-03 0.  1.
         12    1    3    3    0    0  0.13113803876E+02  0.20995614757E+02 -0.16890093537E+02  0.29967698457E+02  0.00000000000E+00 0. -1.
</event>
<event>
 7    1  0.3802554E-013  0.5930190E+02  0.7816164E-02  0.1266605E+00
        -11   -1    0    0    0    0  0.00000000000E+00  0.00000000000E+00  0.45593999997E+02  0.45594000000E+02  0.51100000000E-03 0. -1.
         11   -1    0    0    0    0 -0.00000000000E+00 -0.00000000000E+00 -0.45593999997E+02  0.45594000000E+02  0.51100000000E-03 0.  1.
    9900012    2    1    2    0    0  0.65446629658E+01  0.68201146744E+01  0.30452856943E+02  0.59301904700E+02  0.49999928275E+02 0.  0.
        -12    1    1    2    0    0 -0.65446629658E+01 -0.68201146744E+01 -0.30452856943E+02  0.31886095300E+02  0.00000000000E+00 0.  1.
         11    1    3    3    0    0 -0.44585414427E+01  0.44106413423E+01  0.15579738959E+02  0.16794660316E+02  0.51100000000E-03 0. -1.
        -11    1    3    3    0    0 -0.60028863498E+01  0.16543755895E+02  0.50407490809E+01  0.18306819910E+02  0.51100000000E-03 0.  1.
         12    1    3    3    0    0  0.17006090758E+02 -0.14134282563E+02  0.98323689031E+01  0.24200424473E+02  0.00000000000E+00 0. -1.
</event>
<event>
 7    1  0.3802554E-013  0.5930189E+02  0.7816164E-02  0.1266605E+00
        -11   -1    0    0    0    0  0.00000000000E+00  0.00000000000E+00  0.45593999997E+02  0.45594000000E+02  0.51100000000E-03 0.  1.
         11   -1    0    0    0    0 -0.00000000000E+00 -0.00000000000E+00 -0.45593999997E+02  0.45594000000E+02  0.51100000000E-03 0. -1.
    9900012    2    1    2    0    0 -0.25729984605E+02 -0.18793979969E+02 -0.12157821353E+01  0.59301891472E+02  0.49999904151E+02 0.  0.
        -12    1    1    2    0    0  0.25729984605E+02  0.18793979969E+02  0.12157821353E+01  0.31886108528E+02  0.00000000000E+00 0.  1.
         11    1    3    3    0    0 -0.11312407813E+02 -0.59493797397E+00 -0.23400359878E+01  0.11567207546E+02  0.51100000000E-03 0. -1.
        -11    1    3    3    0    0 -0.89415676472E+01 -0.54129397987E+01 -0.19927754303E+02  0.22502598540E+02  0.51100000000E-03 0.  1.
        -12    1    3    3    0    0 -0.54760091446E+01 -0.12786102197E+02  0.21052008155E+02  0.25232085386E+02  0.00000000000E+00 0.  1.
</event>
<event>
 7    1  0.3802554E-013  0.5930193E+02  0.7816164E-02  0.1266605E+00
        -11   -1    0    0    0    0  0.00000000000E+00  0.00000000000E+00  0.45593999997E+02  0.45594000000E+02  0.51100000000E-03 0.  1.
         11   -1    0    0    0    0 -0.00000000000E+00 -0.00000000000E+00 -0.45593999997E+02  0.45594000000E+02  0.51100000000E-03 0. -1.
    9900012    2    1    2    0    0  0.29258712648E+02 -0.48905681977E+01  0.11693216048E+02  0.59301933691E+02  0.49999981148E+02 0.  0.
        -12    1    1    2    0    0 -0.29258712648E+02  0.48905681977E+01 -0.11693216048E+02  0.31886066309E+02  0.00000000000E+00 0.  1.
         11    1    3    3    0    0 -0.97721009928E+00 -0.70504126575E+01  0.57971772743E+01  0.91798977571E+01  0.51100000000E-03 0. -1.
        -11    1    3    3    0    0  0.19333897094E+02 -0.17670391720E+02 -0.17109400254E+01  0.26248231111E+02  0.51100000000E-03 0.  1.
         12    1    3    3    0    0  0.10902025653E+02  0.19830236180E+02  0.76069787992E+01  0.23873804824E+02  0.00000000000E+00 0. -1.
</event>
<event>
 7    1  0.4094210E-013  0.5930192E+02  0.7816164E-02  0.1266605E+00
        -11   -1    0    0    0    0  0.00000000000E+00  0.00000000000E+00  0.45593999997E+02  0.45594000000E+02  0.51100000000E-03 0. -1.
         11   -1    0    0    0    0 -0.00000000000E+00 -0.00000000000E+00 -0.45593999997E+02  0.45594000000E+02  0.51100000000E-03 0.  1.
    9900012    2    1    2    0    0 -0.65779783135E+01  0.15292454378E+02  0.27195463261E+02  0.59301918686E+02  0.49999953783E+02 0.  0.
        -12    1    1    2    0    0  0.65779783135E+01 -0.15292454378E+02 -0.27195463261E+02  0.31886081314E+02  0.00000000000E+00 0.  1.
         11    1    3    3    0    0  0.88983917564E+01  0.16513287978E+02  0.19069127546E+02  0.26748863178E+02  0.51100000000E-03 0. -1.
        -11    1    3    3    0    0 -0.13751751613E+02  0.10590477461E+02  0.10634446457E+02  0.20355842822E+02  0.51100000000E-03 0.  1.
        -12    1    3    3    0    0 -0.17246184566E+01 -0.11811311061E+02 -0.25081107416E+01  0.12197212686E+02  0.00000000000E+00 0.  1.
</event>
<event>
 7    1  0.3802554E-013  0.5930194E+02  0.7816164E-02  0.1266605E+00
        -11   -1    0    0    0    0  0.00000000000E+00  0.00000000000E+00  0.45593999997E+02  0.45594000000E+02  0.51100000000E-03 0. -1.
         11   -1    0    0    0    0 -0.00000000000E+00 -0.00000000000E+00 -0.45593999997E+02  0.45594000000E+02  0.51100000000E-03 0.  1.
    9900012    2    1    2    0    0  0.95643294929E+01  0.23907849937E+02 -0.18805824335E+02  0.59301941664E+02  0.49999995690E+02 0.  0.
        -12    1    1    2    0    0 -0.95643294929E+01 -0.23907849937E+02  0.18805824335E+02  0.31886058336E+02  0.00000000000E+00 0.  1.
         11    1    3    3    0    0  0.74548080088E+01 -0.81201705806E+01 -0.10581145488E+02  0.15279789684E+02  0.51100000000E-03 0. -1.
        -11    1    3    3    0    0  0.13390291607E+02  0.80293138163E+01 -0.79099416953E+01  0.17502484611E+02  0.51100000000E-03 0.  1.
         12    1    3    3    0    0 -0.11280770122E+02  0.23998706702E+02 -0.31473715177E+00  0.26519667369E+02  0.00000000000E+00 0. -1.
</event>
<event>
 7    1  0.3802554E-013  0.5930195E+02  0.7816164E-02  0.1266605E+00
        -11   -1    0    0    0    0  0.00000000000E+00  0.00000000000E+00  0.45593999997E+02  0.45594000000E+02  0.51100000000E-03 0. -1.
         11   -1    0    0    0    0 -0.00000000000E+00 -0.00000000000E+00 -0.45593999997E+02  0.45594000000E+02  0.51100000000E-03 0.  1.
    9900012    2    1    2    0    0  0.17871588527E+01  0.69118653692E+00  0.31828423514E+02  0.59301949461E+02  0.50000009908E+02 0.  0.
        -12    1    1    2    0    0 -0.17871588527E+01 -0.69118653692E+00 -0.31828423514E+02  0.31886050539E+02  0.00000000000E+00 0.  1.
         11    1    3    3    0    0  0.21634963334E+00  0.76388537393E+01  0.18805761954E+01  0.78699085574E+01  0.51100000000E-03 0. -1.
        -11    1    3    3    0    0 -0.15645509119E+02  0.59583001075E+01  0.31003469711E+01  0.17026316318E+02  0.51100000000E-03 0.  1.
         12    1    3    3    0    0  0.17216318338E+02 -0.12905967310E+02  0.26847500348E+02  0.34405724585E+02  0.00000000000E+00 0. -1.
</event>
<event>
 7    1  0.3802554E-013  0.5930190E+02  0.7816164E-02  0.1266605E+00
        -11   -1    0    0    0    0  0.00000000000E+00  0.00000000000E+00  0.45593999997E+02  0.45594000000E+02  0.51100000000E-03 0.  1.
         11   -1    0    0    0    0 -0.00000000000E+00 -0.00000000000E+00 -0.45593999997E+02  0.45594000000E+02  0.51100000000E-03 0. -1.
    9900012    2    1    2    0    0 -0.27257621777E+01  0.22261119564E+01 -0.31691289232E+02  0.59301903232E+02  0.49999925599E+02 0.  0.
        -12    1    1    2    0    0  0.27257621777E+01 -0.22261119564E+01  0.31691289232E+02  0.31886096768E+02  0.00000000000E+00 0.  1.
         11    1    3    3    0    0 -0.20227484949E+02  0.11875192509E+02 -0.74688359137E+01  0.24616150281E+02  0.51100000000E-03 0. -1.
        -11    1    3    3    0    0  0.35775824281E+01  0.37359947489E+01 -0.76576566167E+01  0.92410203936E+01  0.51100000000E-03 0.  1.
        -12    1    3    3    0    0  0.13924140343E+02 -0.13385075302E+02 -0.16564796702E+02  0.25444732557E+02  0.00000000000E+00 0.  1.
</event>
<event>
 7    1  0.3802554E-013  0.5930196E+02  0.7816164E-02  0.1266605E+00
        -11   -1    0    0    0    0  0.00000000000E+00  0.00000000000E+00  0.45593999997E+02  0.45594000000E+02  0.51100000000E-03 0. -1.
         11   -1    0    0    0    0 -0.00000000000E+00 -0.00000000000E+00 -0.45593999997E+02  0.45594000000E+02  0.51100000000E-03 0.  1.
    9900012    2    1    2    0    0 -0.24584470064E+02  0.17484542612E+02  0.10325415520E+02  0.59301959099E+02  0.50000027486E+02 0.  0.
        -12    1    1    2    0    0  0.24584470064E+02 -0.17484542612E+02 -0.10325415520E+02  0.31886040901E+02  0.00000000000E+00 0.  1.
         11    1    3    3    0    0 -0.37142255016E+01  0.24409266702E+02  0.87483007422E+01  0.26194284456E+02  0.51100000000E-03 0. -1.
        -11    1    3    3    0    0 -0.83007559114E+01 -0.20511009810E+01  0.12917467580E+02  0.15490982308E+02  0.51100000000E-03 0.  1.
        -12    1    3    3    0    0 -0.12569488651E+02 -0.48736231086E+01 -0.11340352802E+02  0.17616692335E+02  0.00000000000E+00 0.  1.
</event>
<event>
 7    1  0.3802554E-013  0.5930212E+02  0.7816164E-02  0.1266604E+00
        -11   -1    0    0    0    0  0.00000000000E+00  0.00000000000E+00  0.45593999997E+02  0.45594000000E+02  0.51100000000E-03 0.  1.
         11   -1    0    0    0    0 -0.00000000000E+00 -0.00000000000E+00 -0.45593999997E+02  0.45594000000E+02  0.51100000000E-03 0. -1.
    9900012    2    1    2    0    0  0.31607711209E+02 -0.29417524810E+01 -0.30013085503E+01  0.59302122741E+02  0.50000325930E+02 0.  0.
        -12    1    1    2    0    0 -0.31607711209E+02  0.29417524810E+01  0.30013085503E+01  0.31885877259E+02  0.00000000000E+00 0.  1.
         11    1    3    3    0    0 -0.85423898805E+01 -0.41664110670E+01  0.12751666917E+01  0.95894450518E+01  0.51100000000E-03 0. -1.
        -11    1    3    3    0    0  0.15906311874E+02  0.14165988680E+02  0.23913478344E+01  0.21433724301E+02  0.51100000000E-03 0.  1.
         12    1    3    3    0    0  0.24243789216E+02 -0.12941330094E+02 -0.66678230764E+01  0.28278953388E+02  0.00000000000E+00 0. -1.
</event>
<event>
 7    1  0.3802554E-013  0.5930198E+02  0.7816164E-02  0.1266605E+00
        -11   -1    0    0    0    0  0.00000000000E+00  0.00000000000E+00  0.45593999997E+02  0.45594000000E+02  0.51100000000E-03 0. -1.
         11   -1    0    0    0    0 -0.00000000000E+00 -0.00000000000E+00 -0.45593999997E+02  0.45594000000E+02  0.51100000000E-03 0.  1.
    9900012    2    1    2    0    0 -0.74125381416E+01  0.14541963707E+02  0.27391673441E+02  0.59301981057E+02  0.50000067532E+02 0.  0.
        -12    1    1    2    0    0  0.74125381416E+01 -0.14541963707E+02 -0.27391673441E+02  0.31886018943E+02  0.00000000000E+00 0.  1.
         11    1    3    3    0    0  0.21318458742E+01 -0.39230957171E+01 -0.20417257216E+01  0.49095917367E+01  0.51100000000E-03 0. -1.
        -11    1    3    3    0    0  0.11259253271E+02  0.20362876319E+02  0.22537067953E+02  0.32393470768E+02  0.51100000000E-03 0.  1.
         12    1    3    3    0    0 -0.20803637287E+02 -0.18978168949E+01  0.68963312092E+01  0.21998918552E+02  0.00000000000E+00 0. -1.
</event>
<event>
 7    1  0.3802554E-013  0.5930196E+02  0.7816164E-02  0.1266605E+00
        -11   -1    0    0    0    0  0.00000000000E+00  0.00000000000E+00  0.45593999997E+02  0.45594000000E+02  0.51100000000E-03 0.  1.
         11   -1    0    0    0    0 -0.00000000000E+00 -0.00000000000E+00 -0.45593999997E+02  0.45594000000E+02  0.51100000000E-03 0. -1.
    9900012    2    1    2    0    0  0.11182121860E+02 -0.92935740906E+01 -0.28377973316E+02  0.59301957000E+02  0.50000023659E+02 0.  0.
        -12    1    1    2    0    0 -0.11182121860E+02  0.92935740906E+01  0.28377973316E+02  0.31886043000E+02  0.00000000000E+00 0.  1.
         11    1    3    3    0    0 -0.71815052612E+01 -0.28160538456E-01  0.50074044295E-01  0.71817350622E+01  0.51100000000E-03 0. -1.
        -11    1    3    3    0    0  0.49163091669E+01 -0.19878490440E+02 -0.19317405242E+01  0.20568327587E+02  0.51100000000E-03 0.  1.
        -12    1    3    3    0    0  0.13447317954E+02  0.10613076888E+02 -0.26496306836E+02  0.31551894351E+02  0.00000000000E+00 0.  1.
</event>
<event>
 7    1  0.3802554E-013  0.5930198E+02  0.7816164E-02  0.1266605E+00
        -11   -1    0    0    0    0  0.00000000000E+00  0.00000000000E+00  0.45593999997E+02  0.45594000000E+02  0.51100000000E-03 0.  1.
         11   -1    0    0    0    0 -0.00000000000E+00 -0.00000000000E+00 -0.45593999997E+02  0.45594000000E+02  0.51100000000E-03 0. -1.
    9900012    2    1    2    0    0 -0.13994396749E+02 -0.17740296634E+02 -0.22497934753E+02  0.59301979032E+02  0.50000063840E+02 0.  0.
        -12    1    1    2    0    0  0.13994396749E+02  0.17740296634E+02  0.22497934753E+02  0.31886020968E+02  0.00000000000E+00 0.  1.
         11    1    3    3    0    0 -0.13136722225E+02 -0.36372494865E+00 -0.14691439449E+02  0.19711523533E+02  0.51100000000E-03 0. -1.
        -11    1    3    3    0    0 -0.14798231744E+02 -0.16998019079E+01  0.41251036972E+01  0.15456179025E+02  0.51100000000E-03 0.  1.
         12    1    3    3    0    0  0.13940557219E+02 -0.15676769778E+02 -0.11931599001E+02  0.24134276475E+02  0.00000000000E+00 0. -1.
</event>
<event>
 7    1  0.3802554E-013  0.5930193E+02  0.7816164E-02  0.1266605E+00
        -11   -1    0    0    0    0  0.00000000000E+00  0.00000000000E+00  0.45593999997E+02  0.45594000000E+02  0.51100000000E-03 0.  1.
         11   -1    0    0    0    0 -0.00000000000E+00 -0.00000000000E+00 -0.45593999997E+02  0.45594000000E+02  0.51100000000E-03 0. -1.
    9900012    2    1    2    0    0 -0.71547992598E+01 -0.28931552333E+02  0.11335603320E+02  0.59301925053E+02  0.49999965396E+02 0.  0.
        -12    1    1    2    0    0  0.71547992598E+01  0.28931552333E+02 -0.11335603320E+02  0.31886074947E+02  0.00000000000E+00 0.  1.
         11    1    3    3    0    0  0.45766705484E+01 -0.35201834645E+01  0.62899066265E+01  0.85381807526E+01  0.51100000000E-03 0. -1.
        -11    1    3    3    0    0  0.65791631340E+01 -0.22981013174E+02 -0.10983867820E+02  0.26306989691E+02  0.51100000000E-03 0.  1.
        -12    1    3    3    0    0 -0.18310632942E+02 -0.24303556949E+01  0.16029564514E+02  0.24456754610E+02  0.00000000000E+00 0.  1.
</event>
<event>
 7    1  0.3802554E-013  0.5930194E+02  0.7816164E-02  0.1266605E+00
        -11   -1    0    0    0    0  0.00000000000E+00  0.00000000000E+00  0.45593999997E+02  0.45594000000E+02  0.51100000000E-03 0.  1.
         11   -1    0    0    0    0 -0.00000000000E+00 -0.00000000000E+00 -0.45593999997E+02  0.45594000000E+02  0.51100000000E-03 0. -1.
    9900012    2    1    2    0    0 -0.11550719193E+02 -0.21540113210E+02 -0.20477439348E+02  0.59301935439E+02  0.49999984335E+02 0.  0.
        -12    1    1    2    0    0  0.11550719193E+02  0.21540113210E+02  0.20477439348E+02  0.31886064561E+02  0.00000000000E+00 0.  1.
         11    1    3    3    0    0 -0.67293910852E-01  0.90456138082E+01  0.69453286532E+01  0.11404615206E+02  0.51100000000E-03 0. -1.
        -11    1    3    3    0    0 -0.94833545024E+01 -0.76668818298E+01 -0.12172150082E+00  0.12195487116E+02  0.51100000000E-03 0.  1.
         12    1    3    3    0    0 -0.20000707803E+01 -0.22918845188E+02 -0.27301046500E+02  0.35701833117E+02  0.00000000000E+00 0. -1.
</event>
<event>
 7    1  0.3802554E-013  0.5930196E+02  0.7816164E-02  0.1266605E+00
        -11   -1    0    0    0    0  0.00000000000E+00  0.00000000000E+00  0.45593999997E+02  0.45594000000E+02  0.51100000000E-03 0.  1.
         11   -1    0    0    0    0 -0.00000000000E+00 -0.00000000000E+00 -0.45593999997E+02  0.45594000000E+02  0.51100000000E-03 0. -1.
    9900012    2    1    2    0    0 -0.63921287549E+01 -0.10353267596E+02 -0.29473214191E+02  0.59301955801E+02  0.50000021471E+02 0.  0.
        -12    1    1    2    0    0  0.63921287549E+01  0.10353267596E+02  0.29473214191E+02  0.31886044199E+02  0.00000000000E+00 0.  1.
         11    1    3    3    0    0 -0.86571064391E+01 -0.14456669034E+02 -0.23646847234E+02  0.29036428083E+02  0.51100000000E-03 0. -1.
        -11    1    3    3    0    0  0.45343915018E+01  0.13298474499E+02 -0.12397756051E+02  0.18738049142E+02  0.51100000000E-03 0.  1.
         12    1    3    3    0    0 -0.22694138177E+01 -0.91950730618E+01  0.65713890942E+01  0.11527478576E+02  0.00000000000E+00 0. -1.
</event>
<event>
 7    1  0.3802554E-013  0.5930187E+02  0.7816164E-02  0.1266605E+00
        -11   -1    0    0    0    0  0.00000000000E+00  0.00000000000E+00  0.45593999997E+02  0.45594000000E+02  0.51100000000E-03 0.  1.
         11   -1    0    0    0    0 -0.00000000000E+00 -0.00000000000E+00 -0.45593999997E+02  0.45594000000E+02  0.51100000000E-03 0. -1.
    9900012    2    1    2    0    0  0.16912591960E+02  0.17272965321E+02 -0.20792647810E+02  0.59301869775E+02  0.49999864580E+02 0.  0.
        -12    1    1    2    0    0 -0.16912591960E+02 -0.17272965321E+02  0.20792647810E+02  0.31886130225E+02  0.00000000000E+00 0.  1.
         11    1    3    3    0    0 -0.13024775762E-01  0.13646397431E+02 -0.19758794001E+02  0.24013210388E+02  0.51100000000E-03 0. -1.
        -11    1    3    3    0    0 -0.38209588751E+01  0.52675149199E+01  0.98481816186E+01  0.11803945171E+02  0.51100000000E-03 0.  1.
         12    1    3    3    0    0  0.20746575611E+02 -0.16409470293E+01 -0.10882035427E+02  0.23484714215E+02  0.00000000000E+00 0. -1.
</event>
<event>
 7    1  0.3802554E-013  0.5930192E+02  0.7816164E-02  0.1266605E+00
        -11   -1    0    0    0    0  0.00000000000E+00  0.00000000000E+00  0.45593999997E+02  0.45594000000E+02  0.51100000000E-03 0.  1.
         11   -1    0    0    0    0 -0.00000000000E+00 -0.00000000000E+00 -0.45593999997E+02  0.45594000000E+02  0.51100000000E-03 0. -1.
    9900012    2    1    2    0    0 -0.19770651469E+02  0.77137902260E+01 -0.23797912989E+02  0.59301923387E+02  0.49999962356E+02 0.  0.
        -12    1    1    2    0    0  0.19770651469E+02 -0.77137902260E+01  0.23797912989E+02  0.31886076613E+02  0.00000000000E+00 0.  1.
         11    1    3    3    0    0 -0.10309135519E+02  0.14426381345E+02 -0.25340259940E+02  0.30927779227E+02  0.51100000000E-03 0. -1.
        -11    1    3    3    0    0 -0.60526819358E+01  0.45675479863E+01 -0.95476188274E+01  0.12192394300E+02  0.51100000000E-03 0.  1.
        -12    1    3    3    0    0 -0.34088340141E+01 -0.11280139105E+02  0.11089965778E+02  0.16181749860E+02  0.00000000000E+00 0.  1.
</event>
<event>
 7    1  0.3802554E-013  0.5930195E+02  0.7816164E-02  0.1266605E+00
        -11   -1    0    0    0    0  0.00000000000E+00  0.00000000000E+00  0.45593999997E+02  0.45594000000E+02  0.51100000000E-03 0.  1.
         11   -1    0    0    0    0 -0.00000000000E+00 -0.00000000000E+00 -0.45593999997E+02  0.45594000000E+02  0.51100000000E-03 0. -1.
    9900012    2    1    2    0    0  0.31070527241E+02 -0.68620958151E+01 -0.20625338080E+01  0.59301951833E+02  0.50000014235E+02 0.  0.
        -12    1    1    2    0    0 -0.31070527241E+02  0.68620958151E+01  0.20625338080E+01  0.31886048167E+02  0.00000000000E+00 0.  1.
         11    1    3    3    0    0  0.15217686014E+02  0.19142353554E+02 -0.45209226656E+01  0.24868582775E+02  0.51100000000E-03 0. -1.
        -11    1    3    3    0    0  0.16639760209E+02 -0.26973212613E+02  0.45298875876E+01  0.32014929335E+02  0.51100000000E-03 0.  1.
         12    1    3    3    0    0 -0.78691898207E+00  0.96876324399E+00 -0.20714987300E+01  0.24184397234E+01  0.00000000000E+00 0. -1.
</event>
<event>
 7    1  0.3802554E-013  0.5930195E+02  0.7816164E-02  0.1266605E+00
        -11   -1    0    0    0    0  0.00000000000E+00  0.00000000000E+00  0.45593999997E+02  0.45594000000E+02  0.51100000000E-03 0. -1.
         11   -1    0    0    0    0 -0.00000000000E+00 -0.00000000000E+00 -0.45593999997E+02  0.45594000000E+02  0.51100000000E-03 0.  1.
    9900012    2    1    2    0    0 -0.17194611817E+02 -0.19496676414E+02 -0.18464691023E+02  0.59301954756E+02  0.50000019566E+02 0.  0.
        -12    1    1    2    0    0  0.17194611817E+02  0.19496676414E+02  0.18464691023E+02  0.31886045244E+02  0.00000000000E+00 0.  1.
         11    1    3    3    0    0  0.93748087859E+01 -0.13064257000E+02 -0.12370923098E+00  0.16080334417E+02  0.51100000000E-03 0. -1.
        -11    1    3    3    0    0  0.56414038749E+01  0.17248645660E+01 -0.24142000581E+01  0.63740848466E+01  0.51100000000E-03 0.  1.
         12    1    3    3    0    0 -0.32210824477E+02 -0.81572839805E+01 -0.15926781734E+02  0.36847535492E+02  0.00000000000E+00 0. -1.
</event>
<event>
 7    1  0.3802554E-013  0.5930194E+02  0.7816164E-02  0.1266605E+00
        -11   -1    0    0    0    0  0.00000000000E+00  0.00000000000E+00  0.45593999997E+02  0.45594000000E+02  0.51100000000E-03 0.  1.
         11   -1    0    0    0    0 -0.00000000000E+00 -0.00000000000E+00 -0.45593999997E+02  0.45594000000E+02  0.51100000000E-03 0. -1.
    9900012    2    1    2    0    0 -0.20382728056E+02  0.24519609319E+02  0.23259144010E+00  0.59301938108E+02  0.49999989204E+02 0.  0.
        -12    1    1    2    0    0  0.20382728056E+02 -0.24519609319E+02 -0.23259144010E+00  0.31886061892E+02  0.00000000000E+00 0.  1.
         11    1    3    3    0    0 -0.76606543880E+01  0.11432607578E+01  0.10138474655E+02  0.12758579051E+02  0.51100000000E-03 0. -1.
        -11    1    3    3    0    0  0.99549183984E+01  0.11263560766E+02  0.61397793021E+01  0.16237767445E+02  0.51100000000E-03 0.  1.
         12    1    3    3    0    0 -0.22676992067E+02  0.12112787796E+02 -0.16045662517E+02  0.30305591613E+02  0.00000000000E+00 0. -1.
</event>
<event>
 7    1  0.3802554E-013  0.5930195E+02  0.7816164E-02  0.1266605E+00
        -11   -1    0    0    0    0  0.00000000000E+00  0.00000000000E+00  0.45593999997E+02  0.45594000000E+02  0.51100000000E-03 0.  1.
         11   -1    0    0    0    0 -0.00000000000E+00 -0.00000000000E+00 -0.45593999997E+02  0.45594000000E+02  0.51100000000E-03 0. -1.
    9900012    2    1    2    0    0  0.13769083720E+02 -0.22802914514E+02 -0.17525972517E+02  0.59301948355E+02  0.50000007893E+02 0.  0.
        -12    1    1    2    0    0 -0.13769083720E+02  0.22802914514E+02  0.17525972517E+02  0.31886051645E+02  0.00000000000E+00 0.  1.
         11    1    3    3    0    0  0.25881250280E+01 -0.61430779768E+01 -0.97754278713E+01  0.11831939339E+02  0.51100000000E-03 0. -1.
        -11    1    3    3    0    0  0.23955299264E+02 -0.80969675391E+01 -0.16093843002E+02  0.29973805714E+02  0.51100000000E-03 0.  1.
         12    1    3    3    0    0 -0.12774340572E+02 -0.85628689982E+01  0.83432983566E+01  0.17496203302E+02  0.00000000000E+00 0. -1.
</event>
<event>
 7    1  0.3802554E-013  0.5930195E+02  0.7816164E-02  0.1266605E+00
        -11   -1    0    0    0    0  0.00000000000E+00  0.00000000000E+00  0.45593999997E+02  0.45594000000E+02  0.51100000000E-03 0.  1.
         11   -1    0    0    0    0 -0.00000000000E+00 -0.00000000000E+00 -0.45593999997E+02  0.45594000000E+02  0.51100000000E-03 0. -1.
    9900012    2    1    2    0    0 -0.26699354959E+02  0.17258545314E+02  0.24509053319E+01  0.59301954799E+02  0.50000019645E+02 0.  0.
        -12    1    1    2    0    0  0.26699354959E+02 -0.17258545314E+02 -0.24509053319E+01  0.31886045201E+02  0.00000000000E+00 0.  1.
         11    1    3    3    0    0 -0.87307905576E+01 -0.53181389675E+01 -0.13630421414E+02  0.17038124722E+02  0.51100000000E-03 0. -1.
        -11    1    3    3    0    0 -0.29895094255E+01 -0.57600837566E+01  0.19967829155E+00  0.64927346449E+01  0.51100000000E-03 0.  1.
         12    1    3    3    0    0 -0.14979054976E+02  0.28336768038E+02  0.15881648455E+02  0.35771095433E+02  0.00000000000E+00 0. -1.
</event>
<event>
 7    1  0.3802554E-013  0.5930196E+02  0.7816164E-02  0.1266605E+00
        -11   -1    0    0    0    0  0.00000000000E+00  0.00000000000E+00  0.45593999997E+02  0.45594000000E+02  0.51100000000E-03 0. -1.
         11   -1    0    0    0    0 -0.00000000000E+00 -0.00000000000E+00 -0.45593999997E+02  0.45594000000E+02  0.51100000000E-03 0.  1.
    9900012    2    1    2    0    0 -0.32124729971E+01  0.19138112318E+02  0.25300831014E+02  0.59301962682E+02  0.50000034021E+02 0.  0.
        -12    1    1    2    0    0  0.32124729971E+01 -0.19138112318E+02 -0.25300831014E+02  0.31886037318E+02  0.00000000000E+00 0.  1.
         11    1    3    3    0    0  0.53353095625E+01  0.45650371159E+01 -0.44717519436E+01  0.83247617205E+01  0.51100000000E-03 0. -1.
        -11    1    3    3    0    0 -0.14158040275E+02  0.23948690045E+02  0.12410355850E+02  0.30463203900E+02  0.51100000000E-03 0.  1.
         12    1    3    3    0    0  0.56102577151E+01 -0.93756148431E+01  0.17362227107E+02  0.20513997061E+02  0.00000000000E+00 0. -1.
</event>
<event>
 7    1  0.3802554E-013  0.5930194E+02  0.7816164E-02  0.1266605E+00
        -11   -1    0    0    0    0  0.00000000000E+00  0.00000000000E+00  0.45593999997E+02  0.45594000000E+02  0.51100000000E-03 0.  1.
         11   -1    0    0    0    0 -0.00000000000E+00 -0.00000000000E+00 -0.45593999997E+02  0.45594000000E+02  0.51100000000E-03 0. -1.
    9900012    2    1    2    0    0 -0.16108358445E+02  0.20637159669E+02 -0.18202996281E+02  0.59301942787E+02  0.49999997737E+02 0.  0.
        -12    1    1    2    0    0  0.16108358445E+02 -0.20637159669E+02  0.18202996281E+02  0.31886057213E+02  0.00000000000E+00 0.  1.
         11    1    3    3    0    0 -0.67972427041E+01 -0.72550212679E+01 -0.24992726139E+02  0.26897475757E+02  0.51100000000E-03 0. -1.
        -11    1    3    3    0    0  0.92225657936E+00  0.17061326158E+01 -0.21569499365E+01  0.29006687144E+01  0.51100000000E-03 0.  1.
        -12    1    3    3    0    0 -0.10233372320E+02  0.26186048321E+02  0.89466797938E+01  0.29503798316E+02  0.00000000000E+00 0.  1.
</event>
<event>
 7    1  0.3802554E-013  0.5930212E+02  0.7816164E-02  0.1266604E+00
        -11   -1    0    0    0    0  0.00000000000E+00  0.00000000000E+00  0.45593999997E+02  0.45594000000E+02  0.51100000000E-03 0.  1.
         11   -1    0    0    0    0 -0.00000000000E+00 -0.00000000000E+00 -0.45593999997E+02  0.45594000000E+02  0.51100000000E-03 0. -1.
    9900012    2    1    2    0    0 -0.90139132698E+00  0.91902195035E+01 -0.30519452138E+02  0.59302115981E+02  0.50000313601E+02 0.  0.
        -12    1    1    2    0    0  0.90139132698E+00 -0.91902195035E+01  0.30519452138E+02  0.31885884019E+02  0.00000000000E+00 0.  1.
         11    1    3    3    0    0 -0.98368800255E+01  0.94982651771E+01 -0.72022017262E+01  0.15454868488E+02  0.51100000000E-03 0. -1.
        -11    1    3    3    0    0 -0.47404848263E+01  0.15502279414E+02 -0.10862155466E+02  0.19513566692E+02  0.51100000000E-03 0.  1.
         12    1    3    3    0    0  0.13675973525E+02 -0.15810325088E+02 -0.12455094945E+02  0.24333680801E+02  0.00000000000E+00 0. -1.
</event>
<event>
 7    1  0.3802554E-013  0.5930198E+02  0.7816164E-02  0.1266605E+00
        -11   -1    0    0    0    0  0.00000000000E+00  0.00000000000E+00  0.45593999997E+02  0.45594000000E+02  0.51100000000E-03 0.  1.
         11   -1    0    0    0    0 -0.00000000000E+00 -0.00000000000E+00 -0.45593999997E+02  0.45594000000E+02  0.51100000000E-03 0. -1.
    9900012    2    1    2    0    0  0.25706362796E+02 -0.11581966910E+02 -0.14891573913E+02  0.59301983953E+02  0.50000072815E+02 0.  0.
        -12    1    1    2    0    0 -0.25706362796E+02  0.11581966910E+02  0.14891573913E+02  0.31886016047E+02  0.00000000000E+00 0.  1.
         11    1    3    3    0    0 -0.24161901611E+01 -0.12876693757E+02 -0.15473137776E+02  0.20274743152E+02  0.51100000000E-03 0. -1.
        -11    1    3    3    0    0  0.27923646932E+02  0.11276799538E+01 -0.90629547063E+01  0.29379225115E+02  0.51100000000E-03 0.  1.
         12    1    3    3    0    0  0.19890602517E+00  0.16704689329E+00  0.96445185683E+01  0.96480156865E+01  0.00000000000E+00 0. -1.
</event>
<event>
 7    1  0.3802554E-013  0.5930194E+02  0.7816164E-02  0.1266605E+00
        -11   -1    0    0    0    0  0.00000000000E+00  0.00000000000E+00  0.45593999997E+02  0.45594000000E+02  0.51100000000E-03 0.  1.
         11   -1    0    0    0    0 -0.00000000000E+00 -0.00000000000E+00 -0.45593999997E+02  0.45594000000E+02  0.51100000000E-03 0. -1.
    9900012    2    1    2    0    0  0.64251641680E+00  0.30482203183E+02 -0.93350458625E+01  0.59301943181E+02  0.49999998455E+02 0.  0.
        -12    1    1    2    0    0 -0.64251641680E+00 -0.30482203183E+02  0.93350458625E+01  0.31886056819E+02  0.00000000000E+00 0.  1.
         11    1    3    3    0    0 -0.90938436495E+01  0.17679272534E+02 -0.22183675766E+02  0.29788758625E+02  0.51100000000E-03 0. -1.
        -11    1    3    3    0    0 -0.54248554174E+01 -0.15791446357E+01  0.32323045316E+01  0.65092662356E+01  0.51100000000E-03 0.  1.
        -12    1    3    3    0    0  0.15161215484E+02  0.14382075284E+02  0.96163253720E+01  0.23003918320E+02  0.00000000000E+00 0.  1.
</event>
<event>
 7    1  0.3802554E-013  0.5930193E+02  0.7816164E-02  0.1266605E+00
        -11   -1    0    0    0    0  0.00000000000E+00  0.00000000000E+00  0.45593999997E+02  0.45594000000E+02  0.51100000000E-03 0.  1.
         11   -1    0    0    0    0 -0.00000000000E+00 -0.00000000000E+00 -0.45593999997E+02  0.45594000000E+02  0.51100000000E-03 0. -1.
    9900012    2    1    2    0    0  0.16521444607E+02 -0.24782834520E+02 -0.11383085892E+02  0.59301926815E+02  0.49999968608E+02 0.  0.
        -12    1    1    2    0    0 -0.16521444607E+02  0.24782834520E+02  0.11383085892E+02  0.31886073185E+02  0.00000000000E+00 0.  1.
         11    1    3    3    0    0  0.57771913175E+01  0.50692744065E+01  0.10654598004E+02  0.13137501338E+02  0.51100000000E-03 0. -1.
        -11    1    3    3    0    0  0.70857439681E+01 -0.10263873059E+02  0.42511403220E+01  0.13176761819E+02  0.51100000000E-03 0.  1.
         12    1    3    3    0    0  0.36585093216E+01 -0.19588235867E+02 -0.26288824217E+02  0.32987663658E+02  0.00000000000E+00 0. -1.
</event>
<event>
 7    1  0.3802554E-013  0.5930193E+02  0.7816164E-02  0.1266605E+00
        -11   -1    0    0    0    0  0.00000000000E+00  0.00000000000E+00  0.45593999997E+02  0.45594000000E+02  0.51100000000E-03 0.  1.
         11   -1    0    0    0    0 -0.00000000000E+00 -0.00000000000E+00 -0.45593999997E+02  0.45594000000E+02  0.51100000000E-03 0. -1.
    9900012    2    1    2    0    0  0.38540108285E+01 -0.31501370280E+02  0.30873635998E+01  0.59301928700E+02  0.49999972046E+02 0.  0.
        -12    1    1    2    0    0 -0.38540108285E+01  0.31501370280E+02 -0.30873635998E+01  0.31886071300E+02  0.00000000000E+00 0.  1.
         11    1    3    3    0    0 -0.93646445317E+01  0.19688608610E+01  0.95016937629E+01  0.13485368550E+02  0.51100000000E-03 0. -1.
        -11    1    3    3    0    0  0.24010921872E+01 -0.33268637568E+02 -0.92838193804E+01  0.34623067338E+02  0.51100000000E-03 0.  1.
         12    1    3    3    0    0  0.10817563173E+02 -0.20159357225E+00  0.28694892173E+01  0.11193492812E+02  0.00000000000E+00 0. -1.
</event>
<event>
 7    1  0.3802554E-013  0.5930193E+02  0.7816164E-02  0.1266605E+00
        -11   -1    0    0    0    0  0.00000000000E+00  0.00000000000E+00  0.45593999997E+02  0.45594000000E+02  0.51100000000E-03 0.  1.
         11   -1    0    0    0    0 -0.00000000000E+00 -0.00000000000E+00 -0.45593999997E+02  0.45594000000E+02  0.51100000000E-03 0. -1.
    9900012    2    1    2    0    0 -0.19923807274E+02  0.96919176078E+01 -0.22930991805E+02  0.59301925479E+02  0.49999966172E+02 0.  0.
        -12    1    1    2    0    0  0.19923807274E+02 -0.96919176078E+01  0.22930991805E+02  0.31886074521E+02  0.00000000000E+00 0.  1.
         11    1    3    3    0    0  0.73854097008E+01 -0.41389952911E+01 -0.56496691948E+01  0.10178129531E+02  0.51100000000E-03 0. -1.
        -11    1    3    3    0    0 -0.12998112622E+02 -0.10113428521E+02 -0.12827623262E+02  0.20875351183E+02  0.51100000000E-03 0.  1.
        -12    1    3    3    0    0 -0.14311104353E+02  0.23944341420E+02 -0.44536993473E+01  0.28248444766E+02  0.00000000000E+00 0.  1.
</event>
<event>
 7    1  0.3802554E-013  0.5930194E+02  0.7816164E-02  0.1266605E+00
        -11   -1    0    0    0    0  0.00000000000E+00  0.00000000000E+00  0.45593999997E+02  0.45594000000E+02  0.51100000000E-03 0.  1.
         11   -1    0    0    0    0 -0.00000000000E+00 -0.00000000000E+00 -0.45593999997E+02  0.45594000000E+02  0.51100000000E-03 0. -1.
    9900012    2    1    2    0    0  0.21642610944E+02 -0.22970419208E+02 -0.45473021625E+01  0.59301941542E+02  0.49999995467E+02 0.  0.
        -12    1    1    2    0    0 -0.21642610944E+02  0.22970419208E+02  0.45473021625E+01  0.31886058458E+02  0.00000000000E+00 0.  1.
         11    1    3    3    0    0  0.74791035853E+01 -0.43965532734E+01 -0.16213258406E+02  0.18388486059E+02  0.51100000000E-03 0. -1.
        -11    1    3    3    0    0  0.32068784829E+01  0.46128768992E+01 -0.71593452998E+01  0.91004905513E+01  0.51100000000E-03 0.  1.
        -12    1    3    3    0    0  0.10956628876E+02 -0.23186742833E+02  0.18825301544E+02  0.31812964932E+02  0.00000000000E+00 0.  1.
</event>
<event>
 7    1  0.3802554E-013  0.5930185E+02  0.7816164E-02  0.1266605E+00
        -11   -1    0    0    0    0  0.00000000000E+00  0.00000000000E+00  0.45593999997E+02  0.45594000000E+02  0.51100000000E-03 0. -1.
         11   -1    0    0    0    0 -0.00000000000E+00 -0.00000000000E+00 -0.45593999997E+02  0.45594000000E+02  0.51100000000E-03 0.  1.
    9900012    2    1    2    0    0 -0.26709843818E+02 -0.48743314858E+01 -0.16719791479E+02  0.59301854242E+02  0.49999836251E+02 0.  0.
        -12    1    1    2    0    0  0.26709843818E+02  0.48743314858E+01  0.16719791479E+02  0.31886145758E+02  0.00000000000E+00 0.  1.
         11    1    3    3    0    0 -0.76698746496E+00 -0.74825016104E+01  0.11628383344E+02  0.13849021611E+02  0.51100000000E-03 0. -1.
        -11    1    3    3    0    0  0.13836979980E+01 -0.16609267863E+00  0.32793819458E+01  0.35632222967E+01  0.51100000000E-03 0.  1.
        -12    1    3    3    0    0 -0.27326554351E+02  0.27742628033E+01 -0.31627556769E+02  0.41889610334E+02  0.00000000000E+00 0.  1.
</event>
<event>
 7    1  0.3802554E-013  0.5930194E+02  0.7816164E-02  0.1266605E+00
        -11   -1    0    0    0    0  0.00000000000E+00  0.00000000000E+00  0.45593999997E+02  0.45594000000E+02  0.51100000000E-03 0.  1.
         11   -1    0    0    0    0 -0.00000000000E+00 -0.00000000000E+00 -0.45593999997E+02  0.45594000000E+02  0.51100000000E-03 0. -1.
    9900012    2    1    2    0    0 -0.29095906237E+02 -0.56556471173E+01 -0.11754261449E+02  0.59301940879E+02  0.49999994257E+02 0.  0.
        -12    1    1    2    0    0  0.29095906237E+02  0.56556471173E+01  0.11754261449E+02  0.31886059121E+02  0.00000000000E+00 0.  1.
         11    1    3    3    0    0  0.63117803151E+01 -0.64717076888E+00 -0.74778064834E+01  0.98068848680E+01  0.51100000000E-03 0.  1.
        -11    1    3    3    0    0 -0.27254811872E+02 -0.76191426144E+01  0.12285545242E+02  0.30851429894E+02  0.51100000000E-03 0. -1.
         12    1    3    3    0    0 -0.81528746805E+01  0.26106662660E+01 -0.16562000208E+02  0.18643626117E+02  0.00000000000E+00 0. -1.
</event>
<event>
 7    1  0.3802554E-013  0.5930200E+02  0.7816164E-02  0.1266605E+00
        -11   -1    0    0    0    0  0.00000000000E+00  0.00000000000E+00  0.45593999997E+02  0.45594000000E+02  0.51100000000E-03 0. -1.
         11   -1    0    0    0    0 -0.00000000000E+00 -0.00000000000E+00 -0.45593999997E+02  0.45594000000E+02  0.51100000000E-03 0.  1.
    9900012    2    1    2    0    0  0.17633948002E+02 -0.23153951406E+01  0.26465064592E+02  0.59302002750E+02  0.50000107095E+02 0.  0.
        -12    1    1    2    0    0 -0.17633948002E+02  0.23153951406E+01 -0.26465064592E+02  0.31885997250E+02  0.00000000000E+00 0.  1.
         11    1    3    3    0    0  0.26843243491E+01  0.17077630205E+02  0.57583162021E+01  0.18221121161E+02  0.51100000000E-03 0. -1.
        -11    1    3    3    0    0  0.17219208272E+01  0.56003461635E+01  0.83988046759E+01  0.10240547287E+02  0.51100000000E-03 0.  1.
         12    1    3    3    0    0  0.13227702826E+02 -0.24993371509E+02  0.12307943714E+02  0.30840334302E+02  0.00000000000E+00 0. -1.
</event>
<event>
 7    1  0.3802554E-013  0.5930203E+02  0.7816164E-02  0.1266604E+00
        -11   -1    0    0    0    0  0.00000000000E+00  0.00000000000E+00  0.45593999997E+02  0.45594000000E+02  0.51100000000E-03 0.  1.
         11   -1    0    0    0    0 -0.00000000000E+00 -0.00000000000E+00 -0.45593999997E+02  0.45594000000E+02  0.51100000000E-03 0. -1.
    9900012    2    1    2    0    0 -0.32804996824E+01 -0.16763715255E+02 -0.26924546015E+02  0.59302031214E+02  0.50000159007E+02 0.  0.
        -12    1    1    2    0    0  0.32804996824E+01  0.16763715255E+02  0.26924546015E+02  0.31885968786E+02  0.00000000000E+00 0.  1.
         11    1    3    3    0    0 -0.62352394303E+01  0.31240507333E+01  0.46970325034E+00  0.69898873483E+01  0.51100000000E-03 0. -1.
        -11    1    3    3    0    0 -0.99377151557E+01  0.30735186649E+01  0.41690071115E+01  0.11206485625E+02  0.51100000000E-03 0.  1.
        -12    1    3    3    0    0  0.12892454904E+02 -0.22961284653E+02 -0.31563256376E+02  0.41105658241E+02  0.00000000000E+00 0.  1.
</event>
<event>
 7    1  0.3802554E-013  0.5930195E+02  0.7816164E-02  0.1266605E+00
        -11   -1    0    0    0    0  0.00000000000E+00  0.00000000000E+00  0.45593999997E+02  0.45594000000E+02  0.51100000000E-03 0.  1.
         11   -1    0    0    0    0 -0.00000000000E+00 -0.00000000000E+00 -0.45593999997E+02  0.45594000000E+02  0.51100000000E-03 0. -1.
    9900012    2    1    2    0    0 -0.29423488877E+01 -0.30779849399E+02  0.77886752158E+01  0.59301952775E+02  0.50000015953E+02 0.  0.
        -12    1    1    2    0    0  0.29423488877E+01  0.30779849399E+02 -0.77886752158E+01  0.31886047225E+02  0.00000000000E+00 0.  1.
         11    1    3    3    0    0 -0.83269617063E+01 -0.47736813885E+01 -0.34378721237E+01  0.10195356308E+02  0.51100000000E-03 0.  1.
        -11    1    3    3    0    0 -0.10265520970E+02  0.43581865273E+01 -0.38075748765E+01  0.11784410774E+02  0.51100000000E-03 0. -1.
        -12    1    3    3    0    0  0.15650133788E+02 -0.30364354538E+02  0.15034122216E+02  0.37322185693E+02  0.00000000000E+00 0.  1.
</event>
<event>
 7    1  0.3802554E-013  0.5930196E+02  0.7816164E-02  0.1266605E+00
        -11   -1    0    0    0    0  0.00000000000E+00  0.00000000000E+00  0.45593999997E+02  0.45594000000E+02  0.51100000000E-03 0.  1.
         11   -1    0    0    0    0 -0.00000000000E+00 -0.00000000000E+00 -0.45593999997E+02  0.45594000000E+02  0.51100000000E-03 0. -1.
    9900012    2    1    2    0    0 -0.27740125305E+02 -0.77063641041E+01 -0.13704623627E+02  0.59301963739E+02  0.50000035949E+02 0.  0.
        -12    1    1    2    0    0  0.27740125305E+02  0.77063641041E+01  0.13704623627E+02  0.31886036261E+02  0.00000000000E+00 0.  1.
         11    1    3    3    0    0 -0.10356994764E+02 -0.20077836858E+01  0.10222062071E+02  0.14689761371E+02  0.51100000000E-03 0.  1.
        -11    1    3    3    0    0 -0.52000113422E+01 -0.16743832172E+02 -0.21884072936E+02  0.28041196164E+02  0.51100000000E-03 0. -1.
         12    1    3    3    0    0 -0.12183119199E+02  0.11045251754E+02 -0.20426127623E+01  0.16571006204E+02  0.00000000000E+00 0. -1.
</event>
<event>
 7    1  0.3802554E-013  0.5930198E+02  0.7816164E-02  0.1266605E+00
        -11   -1    0    0    0    0  0.00000000000E+00  0.00000000000E+00  0.45593999997E+02  0.45594000000E+02  0.51100000000E-03 0.  1.
         11   -1    0    0    0    0 -0.00000000000E+00 -0.00000000000E+00 -0.45593999997E+02  0.45594000000E+02  0.51100000000E-03 0. -1.
    9900012    2    1    2    0    0  0.25769886068E+02  0.56869838958E+01 -0.17896637240E+02  0.59301977384E+02  0.50000060833E+02 0.  0.
        -12    1    1    2    0    0 -0.25769886068E+02 -0.56869838958E+01  0.17896637240E+02  0.31886022616E+02  0.00000000000E+00 0.  1.
         11    1    3    3    0    0  0.39212619258E+01  0.13570219771E+02 -0.30883155154E+01  0.14459075098E+02  0.51100000000E-03 0. -1.
        -11    1    3    3    0    0 -0.52268697140E+01  0.88380847903E+01 -0.56920674965E+01  0.11740167904E+02  0.51100000000E-03 0.  1.
         12    1    3    3    0    0  0.27075493857E+02 -0.16721320665E+02 -0.91162542279E+01  0.33102734381E+02  0.00000000000E+00 0. -1.
</event>
<event>
 7    1  0.3802554E-013  0.5930193E+02  0.7816164E-02  0.1266605E+00
        -11   -1    0    0    0    0  0.00000000000E+00  0.00000000000E+00  0.45593999997E+02  0.45594000000E+02  0.51100000000E-03 0.  1.
         11   -1    0    0    0    0 -0.00000000000E+00 -0.00000000000E+00 -0.45593999997E+02  0.45594000000E+02  0.51100000000E-03 0. -1.
    9900012    2    1    2    0    0  0.34988235905E+01 -0.16502893909E+02 -0.27057978644E+02  0.59301929653E+02  0.49999973784E+02 0.  0.
        -12    1    1    2    0    0 -0.34988235905E+01  0.16502893909E+02  0.27057978644E+02  0.31886070347E+02  0.00000000000E+00 0.  1.
         11    1    3    3    0    0 -0.57434984133E+01  0.11834961135E+02 -0.10983807913E+02  0.17137622811E+02  0.51100000000E-03 0. -1.
        -11    1    3    3    0    0  0.96023301457E+01  0.95540186385E+00 -0.47605254577E+01  0.10760118022E+02  0.51100000000E-03 0.  1.
        -12    1    3    3    0    0 -0.36000814198E+00 -0.29293256907E+02 -0.11313645273E+02  0.31404188820E+02  0.00000000000E+00 0.  1.
</event>
<event>
 7    1  0.3802554E-013  0.5930195E+02  0.7816164E-02  0.1266605E+00
        -11   -1    0    0    0    0  0.00000000000E+00  0.00000000000E+00  0.45593999997E+02  0.45594000000E+02  0.51100000000E-03 0.  1.
         11   -1    0    0    0    0 -0.00000000000E+00 -0.00000000000E+00 -0.45593999997E+02  0.45594000000E+02  0.51100000000E-03 0. -1.
    9900012    2    1    2    0    0 -0.12323231321E+02  0.58489716871E+01 -0.28820961406E+02  0.59301947935E+02  0.50000007125E+02 0.  0.
        -12    1    1    2    0    0  0.12323231321E+02 -0.58489716871E+01  0.28820961406E+02  0.31886052065E+02  0.00000000000E+00 0.  1.
         11    1    3    3    0    0  0.53863564725E+01  0.42931713346E+01 -0.13510056025E+02  0.15164622324E+02  0.51100000000E-03 0. -1.
        -11    1    3    3    0    0  0.11513451580E+02 -0.12878977627E+00 -0.78321780917E+01  0.13925486276E+02  0.51100000000E-03 0.  1.
         12    1    3    3    0    0 -0.29223039374E+02  0.16845901288E+01 -0.74787272886E+01  0.30211839335E+02  0.00000000000E+00 0. -1.
</event>
<event>
 7    1  0.3802554E-013  0.5930230E+02  0.7816164E-02  0.1266604E+00
        -11   -1    0    0    0    0  0.00000000000E+00  0.00000000000E+00  0.45593999997E+02  0.45594000000E+02  0.51100000000E-03 0.  1.
         11   -1    0    0    0    0 -0.00000000000E+00 -0.00000000000E+00 -0.45593999997E+02  0.45594000000E+02  0.51100000000E-03 0. -1.
    9900012    2    1    2    0    0 -0.30576082888E+02  0.64956933450E+01 -0.62934140056E+01  0.59302298868E+02  0.50000647140E+02 0.  0.
        -12    1    1    2    0    0  0.30576082888E+02 -0.64956933450E+01  0.62934140056E+01  0.31885701132E+02  0.00000000000E+00 0.  1.
         11    1    3    3    0    0  0.79882543877E+01  0.18504935666E+01 -0.10629866709E+02  0.13424999111E+02  0.51100000000E-03 0. -1.
        -11    1    3    3    0    0  0.64522666833E+00  0.31935929905E+01 -0.45991314256E+01  0.56362544099E+01  0.51100000000E-03 0.  1.
        -12    1    3    3    0    0 -0.39209563944E+02  0.14516067878E+01  0.89355841292E+01  0.40241045348E+02  0.00000000000E+00 0.  1.
</event>
<event>
 7    1  0.3802554E-013  0.5930195E+02  0.7816164E-02  0.1266605E+00
        -11   -1    0    0    0    0  0.00000000000E+00  0.00000000000E+00  0.45593999997E+02  0.45594000000E+02  0.51100000000E-03 0.  1.
         11   -1    0    0    0    0 -0.00000000000E+00 -0.00000000000E+00 -0.45593999997E+02  0.45594000000E+02  0.51100000000E-03 0. -1.
    9900012    2    1    2    0    0  0.65315217826E+01 -0.18525717019E+02 -0.25116870405E+02  0.59301950593E+02  0.50000011973E+02 0.  0.
        -12    1    1    2    0    0 -0.65315217826E+01  0.18525717019E+02  0.25116870405E+02  0.31886049407E+02  0.00000000000E+00 0.  1.
         11    1    3    3    0    0  0.95234318328E+01 -0.57755713402E+01  0.65522007838E+01  0.12922241042E+02  0.51100000000E-03 0. -1.
        -11    1    3    3    0    0 -0.82876049945E+01 -0.13730487094E+02 -0.19260602895E+01  0.16153030084E+02  0.51100000000E-03 0.  1.
         12    1    3    3    0    0  0.52956949442E+01  0.98034141577E+00 -0.29743010899E+02  0.30226679467E+02  0.00000000000E+00 0. -1.
</event>
<event>
 7    1  0.3802554E-013  0.5930195E+02  0.7816164E-02  0.1266605E+00
        -11   -1    0    0    0    0  0.00000000000E+00  0.00000000000E+00  0.45593999997E+02  0.45594000000E+02  0.51100000000E-03 0.  1.
         11   -1    0    0    0    0 -0.00000000000E+00 -0.00000000000E+00 -0.45593999997E+02  0.45594000000E+02  0.51100000000E-03 0. -1.
    9900012    2    1    2    0    0  0.31039730693E+02  0.13814523094E+00 -0.72963113018E+01  0.59301950947E+02  0.50000012619E+02 0.  0.
        -12    1    1    2    0    0 -0.31039730693E+02 -0.13814523094E+00  0.72963113018E+01  0.31886049053E+02  0.00000000000E+00 0.  1.
         11    1    3    3    0    0  0.20949409469E+01  0.18907609721E+01  0.69592577128E+01  0.75096619630E+01  0.51100000000E-03 0. -1.
        -11    1    3    3    0    0  0.14504544763E+02 -0.18091666252E+02  0.37802972853E+01  0.23494272800E+02  0.51100000000E-03 0.  1.
         12    1    3    3    0    0  0.14440244983E+02  0.16339050511E+02 -0.18035866300E+02  0.28298016184E+02  0.00000000000E+00 0. -1.
</event>
<event>
 7    1  0.3802554E-013  0.5930194E+02  0.7816164E-02  0.1266605E+00
        -11   -1    0    0    0    0  0.00000000000E+00  0.00000000000E+00  0.45593999997E+02  0.45594000000E+02  0.51100000000E-03 0.  1.
         11   -1    0    0    0    0 -0.00000000000E+00 -0.00000000000E+00 -0.45593999997E+02  0.45594000000E+02  0.51100000000E-03 0. -1.
    9900012    2    1    2    0    0  0.14520464062E+02 -0.25346104963E+01 -0.28274594826E+02  0.59301939731E+02  0.49999992163E+02 0.  0.
        -12    1    1    2    0    0 -0.14520464062E+02  0.25346104963E+01  0.28274594826E+02  0.31886060269E+02  0.00000000000E+00 0.  1.
         11    1    3    3    0    0  0.26166611001E+02  0.38887095681E+01 -0.19729172697E+02  0.33000815883E+02  0.51100000000E-03 0. -1.
        -11    1    3    3    0    0  0.25787984061E+01  0.30667205556E+01  0.35519910665E+01  0.53545884046E+01  0.51100000000E-03 0.  1.
         12    1    3    3    0    0 -0.14224945345E+02 -0.94900406200E+01 -0.12097413195E+02  0.20946535443E+02  0.00000000000E+00 0. -1.
</event>
<event>
 7    1  0.3802554E-013  0.5930193E+02  0.7816164E-02  0.1266605E+00
        -11   -1    0    0    0    0  0.00000000000E+00  0.00000000000E+00  0.45593999997E+02  0.45594000000E+02  0.51100000000E-03 0. -1.
         11   -1    0    0    0    0 -0.00000000000E+00 -0.00000000000E+00 -0.45593999997E+02  0.45594000000E+02  0.51100000000E-03 0.  1.
    9900012    2    1    2    0    0 -0.12787147098E+02 -0.29192108383E+02  0.10153406858E+01  0.59301933459E+02  0.49999980725E+02 0.  0.
        -12    1    1    2    0    0  0.12787147098E+02  0.29192108383E+02 -0.10153406858E+01  0.31886066541E+02  0.00000000000E+00 0.  1.
         11    1    3    3    0    0 -0.18289258785E+02 -0.21475456703E+02  0.12667067906E+02  0.30921624102E+02  0.51100000000E-03 0. -1.
        -11    1    3    3    0    0  0.18495529479E+01 -0.13575408899E+02  0.12394196497E+01  0.13756770486E+02  0.51100000000E-03 0.  1.
         12    1    3    3    0    0  0.36525587385E+01  0.58587572190E+01 -0.12891146870E+02  0.14623538871E+02  0.00000000000E+00 0. -1.
</event>
<event>
 7    1  0.3802554E-013  0.5930186E+02  0.7816164E-02  0.1266605E+00
        -11   -1    0    0    0    0  0.00000000000E+00  0.00000000000E+00  0.45593999997E+02  0.45594000000E+02  0.51100000000E-03 0.  1.
         11   -1    0    0    0    0 -0.00000000000E+00 -0.00000000000E+00 -0.45593999997E+02  0.45594000000E+02  0.51100000000E-03 0. -1.
    9900012    2    1    2    0    0  0.91733007182E+01 -0.53845008219E+01 -0.30059662672E+02  0.59301864845E+02  0.49999855589E+02 0.  0.
        -12    1    1    2    0    0 -0.91733007182E+01  0.53845008219E+01  0.30059662672E+02  0.31886135155E+02  0.00000000000E+00 0.  1.
         11    1    3    3    0    0  0.12989132681E+02 -0.98384319074E+01 -0.22529783651E+02  0.27804738118E+02  0.51100000000E-03 0. -1.
        -11    1    3    3    0    0  0.40260650657E+00 -0.34975836387E+01  0.10646792911E+02  0.11213803229E+02  0.51100000000E-03 0.  1.
        -12    1    3    3    0    0 -0.42184384697E+01  0.79515147242E+01 -0.18176671933E+02  0.20283323497E+02  0.00000000000E+00 0.  1.
</event>
<event>
 7    1  0.3802554E-013  0.5930194E+02  0.7816164E-02  0.1266605E+00
        -11   -1    0    0    0    0  0.00000000000E+00  0.00000000000E+00  0.45593999997E+02  0.45594000000E+02  0.51100000000E-03 0.  1.
         11   -1    0    0    0    0 -0.00000000000E+00 -0.00000000000E+00 -0.45593999997E+02  0.45594000000E+02  0.51100000000E-03 0. -1.
    9900012    2    1    2    0    0 -0.76424072432E+01 -0.24244452375E+02 -0.19248926467E+02  0.59301936750E+02  0.49999986728E+02 0.  0.
        -12    1    1    2    0    0  0.76424072432E+01  0.24244452375E+02  0.19248926467E+02  0.31886063250E+02  0.00000000000E+00 0.  1.
         11    1    3    3    0    0  0.28251842017E+01 -0.11413305823E+02  0.61793222661E+00  0.11773999155E+02  0.51100000000E-03 0. -1.
        -11    1    3    3    0    0 -0.75322677974E+01 -0.20410299501E+02  0.41720086329E+01  0.22152224272E+02  0.51100000000E-03 0.  1.
         12    1    3    3    0    0 -0.29353236475E+01  0.75791529496E+01 -0.24038867326E+02  0.25375713324E+02  0.00000000000E+00 0. -1.
</event>
<event>
 7    1  0.3802554E-013  0.5930193E+02  0.7816164E-02  0.1266605E+00
        -11   -1    0    0    0    0  0.00000000000E+00  0.00000000000E+00  0.45593999997E+02  0.45594000000E+02  0.51100000000E-03 0.  1.
         11   -1    0    0    0    0 -0.00000000000E+00 -0.00000000000E+00 -0.45593999997E+02  0.45594000000E+02  0.51100000000E-03 0. -1.
    9900012    2    1    2    0    0 -0.62210293877E+01  0.22436439038E+02 -0.21785926181E+02  0.59301928074E+02  0.49999970904E+02 0.  0.
        -12    1    1    2    0    0  0.62210293877E+01 -0.22436439038E+02  0.21785926181E+02  0.31886071926E+02  0.00000000000E+00 0.  1.
         11    1    3    3    0    0 -0.66859684657E+01  0.26403838872E+02 -0.12188332649E+02  0.29839911771E+02  0.51100000000E-03 0. -1.
        -11    1    3    3    0    0 -0.11020179807E+02  0.15412953716E+01  0.30229077269E+01  0.11530738302E+02  0.51100000000E-03 0.  1.
         12    1    3    3    0    0  0.11485118885E+02 -0.55086952061E+01 -0.12620501259E+02  0.17931278000E+02  0.00000000000E+00 0. -1.
</event>
<event>
 7    1  0.3802554E-013  0.5930190E+02  0.7816164E-02  0.1266605E+00
        -11   -1    0    0    0    0  0.00000000000E+00  0.00000000000E+00  0.45593999997E+02  0.45594000000E+02  0.51100000000E-03 0.  1.
         11   -1    0    0    0    0 -0.00000000000E+00 -0.00000000000E+00 -0.45593999997E+02  0.45594000000E+02  0.51100000000E-03 0. -1.
    9900012    2    1    2    0    0 -0.14053574970E+02 -0.10695702685E+02 -0.26548495347E+02  0.59301895965E+02  0.49999912344E+02 0.  0.
        -12    1    1    2    0    0  0.14053574970E+02  0.10695702685E+02  0.26548495347E+02  0.31886104035E+02  0.00000000000E+00 0.  1.
         11    1    3    3    0    0 -0.88180349006E+01  0.12270824875E+02 -0.13718120268E+02  0.20408765435E+02  0.51100000000E-03 0. -1.
        -11    1    3    3    0    0  0.17930095264E+01 -0.15512311393E+01  0.79135154799E+01  0.82610488875E+01  0.51100000000E-03 0.  1.
        -12    1    3    3    0    0 -0.70285495954E+01 -0.21415296420E+02 -0.20743890560E+02  0.30632081642E+02  0.00000000000E+00 0.  1.
</event>
<event>
 7    1  0.3802554E-013  0.5930200E+02  0.7816164E-02  0.1266605E+00
        -11   -1    0    0    0    0  0.00000000000E+00  0.00000000000E+00  0.45593999997E+02  0.45594000000E+02  0.51100000000E-03 0. -1.
         11   -1    0    0    0    0 -0.00000000000E+00 -0.00000000000E+00 -0.45593999997E+02  0.45594000000E+02  0.51100000000E-03 0.  1.
    9900012    2    1    2    0    0 -0.19766842597E+02 -0.29253036374E+01  0.24848174103E+02  0.59301996427E+02  0.50000095563E+02 0.  0.
        -12    1    1    2    0    0  0.19766842597E+02  0.29253036374E+01 -0.24848174103E+02  0.31886003573E+02  0.00000000000E+00 0.  1.
         11    1    3    3    0    0 -0.10036100122E+02 -0.12520525980E+02  0.31052269152E+02  0.34953258735E+02  0.51100000000E-03 0. -1.
        -11    1    3    3    0    0  0.54098281417E+00 -0.48514394149E+01 -0.43276110159E+01  0.65235990196E+01  0.51100000000E-03 0.  1.
        -12    1    3    3    0    0 -0.10271725289E+02  0.14446661758E+02 -0.18764840328E+01  0.17825138672E+02  0.00000000000E+00 0.  1.
</event>
<event>
 7    1  0.3802554E-013  0.5930194E+02  0.7816164E-02  0.1266605E+00
        -11   -1    0    0    0    0  0.00000000000E+00  0.00000000000E+00  0.45593999997E+02  0.45594000000E+02  0.51100000000E-03 0.  1.
         11   -1    0    0    0    0 -0.00000000000E+00 -0.00000000000E+00 -0.45593999997E+02  0.45594000000E+02  0.51100000000E-03 0. -1.
    9900012    2    1    2    0    0 -0.10628501783E+02 -0.63766287214E+01 -0.29378471175E+02  0.59301937016E+02  0.49999987213E+02 0.  0.
        -12    1    1    2    0    0  0.10628501783E+02  0.63766287214E+01  0.29378471175E+02  0.31886062984E+02  0.00000000000E+00 0.  1.
         11    1    3    3    0    0 -0.13167665670E+01  0.45649600046E+01  0.95925958232E+01  0.10704701253E+02  0.51100000000E-03 0. -1.
        -11    1    3    3    0    0  0.51706385946E+01  0.42175220412E+01 -0.38752293868E+01  0.77162425250E+01  0.51100000000E-03 0.  1.
         12    1    3    3    0    0 -0.14482373811E+02 -0.15159110767E+02 -0.35095837612E+02  0.40880993238E+02  0.00000000000E+00 0. -1.
</event>
<event>
 7    1  0.3802554E-013  0.5930182E+02  0.7816164E-02  0.1266605E+00
        -11   -1    0    0    0    0  0.00000000000E+00  0.00000000000E+00  0.45593999997E+02  0.45594000000E+02  0.51100000000E-03 0.  1.
         11   -1    0    0    0    0 -0.00000000000E+00 -0.00000000000E+00 -0.45593999997E+02  0.45594000000E+02  0.51100000000E-03 0. -1.
    9900012    2    1    2    0    0 -0.13544659351E+02 -0.21218830002E+02 -0.19571196930E+02  0.59301822856E+02  0.49999779011E+02 0.  0.
        -12    1    1    2    0    0  0.13544659351E+02  0.21218830002E+02  0.19571196930E+02  0.31886177144E+02  0.00000000000E+00 0.  1.
         11    1    3    3    0    0 -0.34669152881E+01 -0.15060049721E-01 -0.12402442623E+02  0.12877900128E+02  0.51100000000E-03 0. -1.
        -11    1    3    3    0    0  0.16614651075E+01 -0.20280959424E+02 -0.20329653214E+02  0.28764084924E+02  0.51100000000E-03 0.  1.
        -12    1    3    3    0    0 -0.11739209170E+02 -0.92281052841E+00  0.13160898907E+02  0.17659837804E+02  0.00000000000E+00 0.  1.
</event>
<event>
 7    1  0.3802554E-013  0.5930195E+02  0.7816164E-02  0.1266605E+00
        -11   -1    0    0    0    0  0.00000000000E+00  0.00000000000E+00  0.45593999997E+02  0.45594000000E+02  0.51100000000E-03 0. -1.
         11   -1    0    0    0    0 -0.00000000000E+00 -0.00000000000E+00 -0.45593999997E+02  0.45594000000E+02  0.51100000000E-03 0.  1.
    9900012    2    1    2    0    0  0.24753039275E+02  0.54066581107E+01 -0.19359106094E+02  0.59301954556E+02  0.50000019201E+02 0.  0.
        -12    1    1    2    0    0 -0.24753039275E+02 -0.54066581107E+01  0.19359106094E+02  0.31886045444E+02  0.00000000000E+00 0.  1.
         11    1    3    3    0    0 -0.29285649337E+01  0.19510268488E+01 -0.40449807928E+01  0.53614240842E+01  0.51100000000E-03 0. -1.
        -11    1    3    3    0    0 -0.71466239245E+01  0.26109157698E+01 -0.17450009923E+02  0.19036647847E+02  0.51100000000E-03 0.  1.
         12    1    3    3    0    0  0.34828228134E+02  0.84471549209E+00  0.21358846214E+01  0.34903882625E+02  0.00000000000E+00 0. -1.
</event>
<event>
 7    1  0.3802554E-013  0.5930194E+02  0.7816164E-02  0.1266605E+00
        -11   -1    0    0    0    0  0.00000000000E+00  0.00000000000E+00  0.45593999997E+02  0.45594000000E+02  0.51100000000E-03 0. -1.
         11   -1    0    0    0    0 -0.00000000000E+00 -0.00000000000E+00 -0.45593999997E+02  0.45594000000E+02  0.51100000000E-03 0.  1.
    9900012    2    1    2    0    0 -0.22464752567E+01  0.50056703468E+01  0.31410467218E+02  0.59301939761E+02  0.49999992219E+02 0.  0.
        -12    1    1    2    0    0  0.22464752567E+01 -0.50056703468E+01 -0.31410467218E+02  0.31886060239E+02  0.00000000000E+00 0.  1.
         11    1    3    3    0    0  0.15674508386E+01  0.26804046019E+01  0.54363220323E+00  0.31523018883E+01  0.51100000000E-03 0. -1.
        -11    1    3    3    0    0  0.14886098544E+02  0.12257889857E+01 -0.49455677621E+01  0.15733948304E+02  0.51100000000E-03 0.  1.
         12    1    3    3    0    0 -0.18700024639E+02  0.10994767592E+01  0.35812402777E+02  0.40415689569E+02  0.00000000000E+00 0. -1.
</event>
<event>
 7    1  0.3802554E-013  0.5930195E+02  0.7816164E-02  0.1266605E+00
        -11   -1    0    0    0    0  0.00000000000E+00  0.00000000000E+00  0.45593999997E+02  0.45594000000E+02  0.51100000000E-03 0. -1.
         11   -1    0    0    0    0 -0.00000000000E+00 -0.00000000000E+00 -0.45593999997E+02  0.45594000000E+02  0.51100000000E-03 0.  1.
    9900012    2    1    2    0    0 -0.17794744669E+02 -0.24698541483E+01  0.26343248839E+02  0.59301954827E+02  0.50000019696E+02 0.  0.
        -12    1    1    2    0    0  0.17794744669E+02  0.24698541483E+01 -0.26343248839E+02  0.31886045173E+02  0.00000000000E+00 0.  1.
         11    1    3    3    0    0  0.66459175758E+01 -0.49650198795E+01  0.12142925922E+01  0.83841606371E+01  0.51100000000E-03 0.  1.
        -11    1    3    3    0    0 -0.33333627918E+02  0.40122769480E+01  0.25060996253E+02  0.41896093493E+02  0.51100000000E-03 0. -1.
         12    1    3    3    0    0  0.88929656732E+01 -0.15171112168E+01  0.67959993610E-01  0.90217006971E+01  0.00000000000E+00 0. -1.
</event>
<event>
 7    1  0.3802554E-013  0.5930193E+02  0.7816164E-02  0.1266605E+00
        -11   -1    0    0    0    0  0.00000000000E+00  0.00000000000E+00  0.45593999997E+02  0.45594000000E+02  0.51100000000E-03 0.  1.
         11   -1    0    0    0    0 -0.00000000000E+00 -0.00000000000E+00 -0.45593999997E+02  0.45594000000E+02  0.51100000000E-03 0. -1.
    9900012    2    1    2    0    0 -0.22021567166E+02 -0.49088505832E+01 -0.22531649506E+02  0.59301929939E+02  0.49999974306E+02 0.  0.
        -12    1    1    2    0    0  0.22021567166E+02  0.49088505832E+01  0.22531649506E+02  0.31886070061E+02  0.00000000000E+00 0.  1.
         11    1    3    3    0    0  0.86706334158E+00 -0.86503430296E+01 -0.80599069726E+01  0.11855055210E+02  0.51100000000E-03 0. -1.
        -11    1    3    3    0    0 -0.17003221969E+02 -0.15702066562E+02 -0.14154579914E+02  0.27129625586E+02  0.51100000000E-03 0.  1.
        -12    1    3    3    0    0 -0.58854085386E+01  0.19443559009E+02 -0.31716261872E+00  0.20317249142E+02  0.00000000000E+00 0.  1.
</event>
<event>
 7    1  0.3802554E-013  0.5930194E+02  0.7816164E-02  0.1266605E+00
        -11   -1    0    0    0    0  0.00000000000E+00  0.00000000000E+00  0.45593999997E+02  0.45594000000E+02  0.51100000000E-03 0.  1.
         11   -1    0    0    0    0 -0.00000000000E+00 -0.00000000000E+00 -0.45593999997E+02  0.45594000000E+02  0.51100000000E-03 0. -1.
    9900012    2    1    2    0    0  0.24911113786E+02  0.18130293283E+02  0.82127609654E+01  0.59301943999E+02  0.49999999948E+02 0.  0.
        -12    1    1    2    0    0 -0.24911113786E+02 -0.18130293283E+02 -0.82127609654E+01  0.31886056001E+02  0.00000000000E+00 0.  1.
         11    1    3    3    0    0  0.26250706735E+02  0.82037650110E+00 -0.11474687478E+02  0.28660793336E+02  0.51100000000E-03 0. -1.
        -11    1    3    3    0    0 -0.34088875006E+01  0.13544584571E+01  0.12486465621E+02  0.13014103721E+02  0.51100000000E-03 0.  1.
        -12    1    3    3    0    0  0.20692945524E+01  0.15955458325E+02  0.72009828227E+01  0.17627046942E+02  0.00000000000E+00 0.  1.
</event>
<event>
 7    1  0.3802554E-013  0.5930194E+02  0.7816164E-02  0.1266605E+00
        -11   -1    0    0    0    0  0.00000000000E+00  0.00000000000E+00  0.45593999997E+02  0.45594000000E+02  0.51100000000E-03 0.  1.
         11   -1    0    0    0    0 -0.00000000000E+00 -0.00000000000E+00 -0.45593999997E+02  0.45594000000E+02  0.51100000000E-03 0. -1.
    9900012    2    1    2    0    0  0.12993871475E+01 -0.10868054576E+02 -0.29948582060E+02  0.59301943727E+02  0.49999999451E+02 0.  0.
        -12    1    1    2    0    0 -0.12993871475E+01  0.10868054576E+02  0.29948582060E+02  0.31886056273E+02  0.00000000000E+00 0.  1.
         11    1    3    3    0    0  0.56986325631E+01 -0.20119937447E+02 -0.60663771587E+01  0.21773544223E+02  0.51100000000E-03 0.  1.
        -11    1    3    3    0    0 -0.84408239790E+01  0.55364516829E+01 -0.28575324809E+02  0.30305923429E+02  0.51100000000E-03 0. -1.
         12    1    3    3    0    0  0.40415785635E+01  0.37154311876E+01  0.46931199069E+01  0.72224760751E+01  0.00000000000E+00 0. -1.
</event>
<event>
 7    1  0.3802554E-013  0.5930193E+02  0.7816164E-02  0.1266605E+00
        -11   -1    0    0    0    0  0.00000000000E+00  0.00000000000E+00  0.45593999997E+02  0.45594000000E+02  0.51100000000E-03 0.  1.
         11   -1    0    0    0    0 -0.00000000000E+00 -0.00000000000E+00 -0.45593999997E+02  0.45594000000E+02  0.51100000000E-03 0. -1.
    9900012    2    1    2    0    0  0.13924812804E+02  0.28289697364E+02 -0.47448851062E+01  0.59301932145E+02  0.49999978328E+02 0.  0.
        -12    1    1    2    0    0 -0.13924812804E+02 -0.28289697364E+02  0.47448851062E+01  0.31886067855E+02  0.00000000000E+00 0.  1.
         11    1    3    3    0    0  0.57031207379E+01  0.14595203579E+02  0.18663549246E+02  0.24369522449E+02  0.51100000000E-03 0. -1.
        -11    1    3    3    0    0 -0.52460957796E+01  0.93414458101E+01 -0.53121638636E+01  0.11958395207E+02  0.51100000000E-03 0.  1.
         12    1    3    3    0    0  0.13467787846E+02  0.43530479758E+01 -0.18096270489E+02  0.22974014489E+02  0.00000000000E+00 0. -1.
</event>
<event>
 7    1  0.3802554E-013  0.5930188E+02  0.7816164E-02  0.1266605E+00
        -11   -1    0    0    0    0  0.00000000000E+00  0.00000000000E+00  0.45593999997E+02  0.45594000000E+02  0.51100000000E-03 0. -1.
         11   -1    0    0    0    0 -0.00000000000E+00 -0.00000000000E+00 -0.45593999997E+02  0.45594000000E+02  0.51100000000E-03 0.  1.
    9900012    2    1    2    0    0  0.27094819739E+02  0.21661462838E+01 -0.16670427068E+02  0.59301880998E+02  0.49999885048E+02 0.  0.
        -12    1    1    2    0    0 -0.27094819739E+02 -0.21661462838E+01  0.16670427068E+02  0.31886119002E+02  0.00000000000E+00 0.  1.
         11    1    3    3    0    0  0.28798913547E+02  0.36036434444E+01 -0.70906170339E+00  0.29032162102E+02  0.51100000000E-03 0. -1.
        -11    1    3    3    0    0 -0.34571948858E+01 -0.11937866333E+02 -0.18074261704E+01  0.12559125714E+02  0.51100000000E-03 0.  1.
        -12    1    3    3    0    0  0.17531010775E+01  0.10500369173E+02 -0.14153939194E+02  0.17710593182E+02  0.00000000000E+00 0.  1.
</event>
<event>
 7    1  0.3802554E-013  0.5930200E+02  0.7816164E-02  0.1266605E+00
        -11   -1    0    0    0    0  0.00000000000E+00  0.00000000000E+00  0.45593999997E+02  0.45594000000E+02  0.51100000000E-03 0.  1.
         11   -1    0    0    0    0 -0.00000000000E+00 -0.00000000000E+00 -0.45593999997E+02  0.45594000000E+02  0.51100000000E-03 0. -1.
    9900012    2    1    2    0    0 -0.11999653973E+02  0.27152340532E+02 -0.11639407530E+02  0.59301998377E+02  0.50000099121E+02 0.  0.
        -12    1    1    2    0    0  0.11999653973E+02 -0.27152340532E+02  0.11639407530E+02  0.31886001623E+02  0.00000000000E+00 0.  1.
         11    1    3    3    0    0  0.64786138158E+01  0.17821274502E+02 -0.84094394737E+01  0.20743407010E+02  0.51100000000E-03 0. -1.
        -11    1    3    3    0    0  0.73050797501E+00  0.16893105947E+02  0.25996765675E+01  0.17107571100E+02  0.51100000000E-03 0.  1.
         12    1    3    3    0    0 -0.19208775764E+02 -0.75620399172E+01 -0.58296446236E+01  0.21451020267E+02  0.00000000000E+00 0. -1.
</event>
<event>
 7    1  0.3802554E-013  0.5930195E+02  0.7816164E-02  0.1266605E+00
        -11   -1    0    0    0    0  0.00000000000E+00  0.00000000000E+00  0.45593999997E+02  0.45594000000E+02  0.51100000000E-03 0.  1.
         11   -1    0    0    0    0 -0.00000000000E+00 -0.00000000000E+00 -0.45593999997E+02  0.45594000000E+02  0.51100000000E-03 0. -1.
    9900012    2    1    2    0    0 -0.10842242932E+02  0.17652584682E+02 -0.24239476923E+02  0.59301949456E+02  0.50000009900E+02 0.  0.
        -12    1    1    2    0    0  0.10842242932E+02 -0.17652584682E+02  0.24239476923E+02  0.31886050544E+02  0.00000000000E+00 0.  1.
         11    1    3    3    0    0  0.14253909572E+01  0.78484092939E+01 -0.36382788748E+01  0.87673451659E+01  0.51100000000E-03 0. -1.
        -11    1    3    3    0    0  0.11762952262E+01  0.24490222501E+02 -0.18083347384E+02  0.30465753256E+02  0.51100000000E-03 0.  1.
         12    1    3    3    0    0 -0.13443929115E+02 -0.14686047113E+02 -0.25178506647E+01  0.20068851034E+02  0.00000000000E+00 0. -1.
</event>
<event>
 7    1  0.3802554E-013  0.5930196E+02  0.7816164E-02  0.1266605E+00
        -11   -1    0    0    0    0  0.00000000000E+00  0.00000000000E+00  0.45593999997E+02  0.45594000000E+02  0.51100000000E-03 0. -1.
         11   -1    0    0    0    0 -0.00000000000E+00 -0.00000000000E+00 -0.45593999997E+02  0.45594000000E+02  0.51100000000E-03 0.  1.
    9900012    2    1    2    0    0  0.21300340263E+02  0.34523249171E+01  0.23475439443E+02  0.59301963876E+02  0.50000036199E+02 0.  0.
        -12    1    1    2    0    0 -0.21300340263E+02 -0.34523249171E+01 -0.23475439443E+02  0.31886036124E+02  0.00000000000E+00 0.  1.
         11    1    3    3    0    0 -0.73316716050E+01 -0.43957661104E+01  0.87249136565E+01  0.12214756927E+02  0.51100000000E-03 0. -1.
        -11    1    3    3    0    0  0.10416053296E+02  0.15205722441E+02 -0.51357448394E+01  0.19133322673E+02  0.51100000000E-03 0.  1.
         12    1    3    3    0    0  0.18215958572E+02 -0.73576314130E+01  0.19886270625E+02  0.27953884276E+02  0.00000000000E+00 0. -1.
</event>
<event>
 7    1  0.3802554E-013  0.5930195E+02  0.7816164E-02  0.1266605E+00
        -11   -1    0    0    0    0  0.00000000000E+00  0.00000000000E+00  0.45593999997E+02  0.45594000000E+02  0.51100000000E-03 0. -1.
         11   -1    0    0    0    0 -0.00000000000E+00 -0.00000000000E+00 -0.45593999997E+02  0.45594000000E+02  0.51100000000E-03 0.  1.
    9900012    2    1    2    0    0 -0.11772102314E+02 -0.62790593918E+01  0.28960510541E+02  0.59301950534E+02  0.50000011866E+02 0.  0.
        -12    1    1    2    0    0  0.11772102314E+02  0.62790593918E+01 -0.28960510541E+02  0.31886049466E+02  0.00000000000E+00 0.  1.
         11    1    3    3    0    0 -0.13818596983E+02  0.16442950237E+02  0.11496762066E+02  0.24361850778E+02  0.51100000000E-03 0. -1.
        -11    1    3    3    0    0  0.42599592006E+01  0.24326440373E+01  0.39589764559E+01  0.63038483677E+01  0.51100000000E-03 0.  1.
        -12    1    3    3    0    0 -0.22134645317E+01 -0.25154653666E+02  0.13504772019E+02  0.28636251388E+02  0.00000000000E+00 0.  1.
</event>
<event>
 7    1  0.3802554E-013  0.5930194E+02  0.7816164E-02  0.1266605E+00
        -11   -1    0    0    0    0  0.00000000000E+00  0.00000000000E+00  0.45593999997E+02  0.45594000000E+02  0.51100000000E-03 0.  1.
         11   -1    0    0    0    0 -0.00000000000E+00 -0.00000000000E+00 -0.45593999997E+02  0.45594000000E+02  0.51100000000E-03 0. -1.
    9900012    2    1    2    0    0 -0.13516513663E+02 -0.28705136723E+02  0.31685592981E+01  0.59301940602E+02  0.49999993752E+02 0.  0.
        -12    1    1    2    0    0  0.13516513663E+02  0.28705136723E+02 -0.31685592981E+01  0.31886059398E+02  0.00000000000E+00 0.  1.
         11    1    3    3    0    0 -0.14843126913E+02 -0.62706508738E+01 -0.66658745927E+01  0.17437699483E+02  0.51100000000E-03 0. -1.
        -11    1    3    3    0    0  0.14600354229E+02 -0.68779051255E+01 -0.46600115367E+01  0.16798560364E+02  0.51100000000E-03 0.  1.
         12    1    3    3    0    0 -0.13273740980E+02 -0.15556580724E+02  0.14494445427E+02  0.25065680754E+02  0.00000000000E+00 0. -1.
</event>
<event>
 7    1  0.3802554E-013  0.5930193E+02  0.7816164E-02  0.1266605E+00
        -11   -1    0    0    0    0  0.00000000000E+00  0.00000000000E+00  0.45593999997E+02  0.45594000000E+02  0.51100000000E-03 0.  1.
         11   -1    0    0    0    0 -0.00000000000E+00 -0.00000000000E+00 -0.45593999997E+02  0.45594000000E+02  0.51100000000E-03 0. -1.
    9900012    2    1    2    0    0  0.18452404690E+02  0.23970928674E+02  0.10080926208E+02  0.59301925711E+02  0.49999966595E+02 0.  0.
        -12    1    1    2    0    0 -0.18452404690E+02 -0.23970928674E+02 -0.10080926208E+02  0.31886074289E+02  0.00000000000E+00 0.  1.
         11    1    3    3    0    0  0.59154071864E+01 -0.55203752825E+01  0.56767770844E+00  0.81110322205E+01  0.51100000000E-03 0. -1.
        -11    1    3    3    0    0  0.22888906793E+02  0.15860809691E+02  0.16872560945E+02  0.32559954719E+02  0.51100000000E-03 0.  1.
         12    1    3    3    0    0 -0.10351909289E+02  0.13630494266E+02 -0.73593124454E+01  0.18630938772E+02  0.00000000000E+00 0. -1.
</event>
<event>
 7    1  0.3802554E-013  0.5930198E+02  0.7816164E-02  0.1266605E+00
        -11   -1    0    0    0    0  0.00000000000E+00  0.00000000000E+00  0.45593999997E+02  0.45594000000E+02  0.51100000000E-03 0.  1.
         11   -1    0    0    0    0 -0.00000000000E+00 -0.00000000000E+00 -0.45593999997E+02  0.45594000000E+02  0.51100000000E-03 0. -1.
    9900012    2    1    2    0    0 -0.23193841374E+02 -0.21744640343E+02 -0.24361445769E+01  0.59301977016E+02  0.50000060162E+02 0.  0.
        -12    1    1    2    0    0  0.23193841374E+02  0.21744640343E+02  0.24361445769E+01  0.31886022984E+02  0.00000000000E+00 0.  1.
         11    1    3    3    0    0 -0.31510229802E+01 -0.13751963956E+02 -0.18943054062E+02  0.23619584161E+02  0.51100000000E-03 0. -1.
        -11    1    3    3    0    0  0.41740253342E+01  0.24263863098E+01  0.53281740524E+00  0.48573380223E+01  0.51100000000E-03 0.  1.
         12    1    3    3    0    0 -0.24216843728E+02 -0.10419062697E+02  0.15974092080E+02  0.30825054833E+02  0.00000000000E+00 0. -1.
</event>
<event>
 7    1  0.3802554E-013  0.5930196E+02  0.7816164E-02  0.1266605E+00
        -11   -1    0    0    0    0  0.00000000000E+00  0.00000000000E+00  0.45593999997E+02  0.45594000000E+02  0.51100000000E-03 0.  1.
         11   -1    0    0    0    0 -0.00000000000E+00 -0.00000000000E+00 -0.45593999997E+02  0.45594000000E+02  0.51100000000E-03 0. -1.
    9900012    2    1    2    0    0 -0.67614883128E+01 -0.12338801421E+02 -0.28613906145E+02  0.59301962780E+02  0.50000034200E+02 0.  0.
        -12    1    1    2    0    0  0.67614883128E+01  0.12338801421E+02  0.28613906145E+02  0.31886037220E+02  0.00000000000E+00 0.  1.
         11    1    3    3    0    0 -0.47155947151E+01 -0.19972541708E+02 -0.28955363675E+02  0.35490172465E+02  0.51100000000E-03 0. -1.
        -11    1    3    3    0    0 -0.10248990392E+01 -0.85445456710E+00 -0.10173032792E+02  0.10260170910E+02  0.51100000000E-03 0.  1.
        -12    1    3    3    0    0 -0.10209945585E+01  0.84881948545E+01  0.10514490322E+02  0.13551619405E+02  0.00000000000E+00 0.  1.
</event>
<event>
 7    1  0.3802554E-013  0.5930190E+02  0.7816164E-02  0.1266605E+00
        -11   -1    0    0    0    0  0.00000000000E+00  0.00000000000E+00  0.45593999997E+02  0.45594000000E+02  0.51100000000E-03 0.  1.
         11   -1    0    0    0    0 -0.00000000000E+00 -0.00000000000E+00 -0.45593999997E+02  0.45594000000E+02  0.51100000000E-03 0. -1.
    9900012    2    1    2    0    0 -0.83748812429E+01  0.27019405719E+02  0.14715177205E+02  0.59301900185E+02  0.49999920041E+02 0.  0.
        -12    1    1    2    0    0  0.83748812429E+01 -0.27019405719E+02 -0.14715177205E+02  0.31886099815E+02  0.00000000000E+00 0.  1.
         11    1    3    3    0    0  0.35735360706E-02  0.16647727608E+02  0.26322367476E+01  0.16854539977E+02  0.51100000000E-03 0. -1.
        -11    1    3    3    0    0 -0.10078839667E+01  0.24539001463E+02  0.54642606863E+01  0.25160217964E+02  0.51100000000E-03 0.  1.
        -12    1    3    3    0    0 -0.73705708122E+01 -0.14167323351E+02  0.66186797713E+01  0.17287142244E+02  0.00000000000E+00 0.  1.
</event>
<event>
 7    1  0.3802554E-013  0.5930195E+02  0.7816164E-02  0.1266605E+00
        -11   -1    0    0    0    0  0.00000000000E+00  0.00000000000E+00  0.45593999997E+02  0.45594000000E+02  0.51100000000E-03 0. -1.
         11   -1    0    0    0    0 -0.00000000000E+00 -0.00000000000E+00 -0.45593999997E+02  0.45594000000E+02  0.51100000000E-03 0.  1.
    9900012    2    1    2    0    0 -0.19818818812E+02  0.24797528152E+02  0.30029087746E+01  0.59301945953E+02  0.50000003512E+02 0.  0.
        -12    1    1    2    0    0  0.19818818812E+02 -0.24797528152E+02 -0.30029087746E+01  0.31886054047E+02  0.00000000000E+00 0.  1.
         11    1    3    3    0    0 -0.10986407257E+01  0.14472785494E+02  0.96191674681E+01  0.17412550486E+02  0.51100000000E-03 0. -1.
        -11    1    3    3    0    0  0.10105673496E+02 -0.10901146849E+01 -0.34067523401E+01  0.10720025588E+02  0.51100000000E-03 0.  1.
         12    1    3    3    0    0 -0.28825851583E+02  0.11414857343E+02 -0.32095063535E+01  0.31169369879E+02  0.00000000000E+00 0. -1.
</event>
<event>
 7    1  0.3802554E-013  0.5930194E+02  0.7816164E-02  0.1266605E+00
        -11   -1    0    0    0    0  0.00000000000E+00  0.00000000000E+00  0.45593999997E+02  0.45594000000E+02  0.51100000000E-03 0.  1.
         11   -1    0    0    0    0 -0.00000000000E+00 -0.00000000000E+00 -0.45593999997E+02  0.45594000000E+02  0.51100000000E-03 0. -1.
    9900012    2    1    2    0    0 -0.30789749740E+02 -0.75215226363E+01  0.34840981434E+01  0.59301938285E+02  0.49999989527E+02 0.  0.
        -12    1    1    2    0    0  0.30789749740E+02  0.75215226363E+01 -0.34840981434E+01  0.31886061715E+02  0.00000000000E+00 0.  1.
         11    1    3    3    0    0 -0.19392557773E+00 -0.14076057943E+02 -0.35579186135E+01  0.14520048191E+02  0.51100000000E-03 0. -1.
        -11    1    3    3    0    0 -0.18549564088E+02 -0.35703226398E+01  0.17610963329E+02  0.25825947441E+02  0.51100000000E-03 0.  1.
        -12    1    3    3    0    0 -0.12046260074E+02  0.10124857947E+02 -0.10568946572E+02  0.18955942653E+02  0.00000000000E+00 0.  1.
</event>
<event>
 7    1  0.3802554E-013  0.5930197E+02  0.7816164E-02  0.1266605E+00
        -11   -1    0    0    0    0  0.00000000000E+00  0.00000000000E+00  0.45593999997E+02  0.45594000000E+02  0.51100000000E-03 0.  1.
         11   -1    0    0    0    0 -0.00000000000E+00 -0.00000000000E+00 -0.45593999997E+02  0.45594000000E+02  0.51100000000E-03 0. -1.
    9900012    2    1    2    0    0 -0.89622506968E+01 -0.23906495942E+02 -0.19101744485E+02  0.59301966566E+02  0.50000041105E+02 0.  0.
        -12    1    1    2    0    0  0.89622506968E+01  0.23906495942E+02  0.19101744485E+02  0.31886033434E+02  0.00000000000E+00 0.  1.
         11    1    3    3    0    0 -0.65236223645E+01 -0.10845181029E+02 -0.27090740236E+02  0.29901234207E+02  0.51100000000E-03 0. -1.
        -11    1    3    3    0    0  0.14438276278E+01 -0.20097723299E+02  0.45354849570E+01  0.20653661759E+02  0.51100000000E-03 0.  1.
        -12    1    3    3    0    0 -0.38824559601E+01  0.70364083864E+01  0.34535107944E+01  0.87470705993E+01  0.00000000000E+00 0.  1.
</event>
<event>
 7    1  0.3802554E-013  0.5930196E+02  0.7816164E-02  0.1266605E+00
        -11   -1    0    0    0    0  0.00000000000E+00  0.00000000000E+00  0.45593999997E+02  0.45594000000E+02  0.51100000000E-03 0. -1.
         11   -1    0    0    0    0 -0.00000000000E+00 -0.00000000000E+00 -0.45593999997E+02  0.45594000000E+02  0.51100000000E-03 0.  1.
    9900012    2    1    2    0    0  0.19392001087E+02 -0.15706549982E+02 -0.19848774374E+02  0.59301964457E+02  0.50000037258E+02 0.  0.
        -12    1    1    2    0    0 -0.19392001087E+02  0.15706549982E+02  0.19848774374E+02  0.31886035543E+02  0.00000000000E+00 0.  1.
         11    1    3    3    0    0  0.34456843064E+00  0.11808867522E+02 -0.20562117402E+01  0.11991500595E+02  0.51100000000E-03 0. -1.
        -11    1    3    3    0    0  0.61488294380E+01 -0.92794570620E+00  0.65445815702E+01  0.90277757439E+01  0.51100000000E-03 0.  1.
        -12    1    3    3    0    0  0.12898603218E+02 -0.26587471797E+02 -0.24337144204E+02  0.38282688118E+02  0.00000000000E+00 0.  1.
</event>
<event>
 7    1  0.3802554E-013  0.5930192E+02  0.7816164E-02  0.1266605E+00
        -11   -1    0    0    0    0  0.00000000000E+00  0.00000000000E+00  0.45593999997E+02  0.45594000000E+02  0.51100000000E-03 0.  1.
         11   -1    0    0    0    0 -0.00000000000E+00 -0.00000000000E+00 -0.45593999997E+02  0.45594000000E+02  0.51100000000E-03 0. -1.
    9900012    2    1    2    0    0  0.35301214879E+01  0.30232010768E+02 -0.95018769596E+01  0.59301923123E+02  0.49999961876E+02 0.  0.
        -12    1    1    2    0    0 -0.35301214879E+01 -0.30232010768E+02  0.95018769596E+01  0.31886076877E+02  0.00000000000E+00 0.  1.
         11    1    3    3    0    0 -0.33650008748E+01  0.62302893489E+01 -0.14058633249E+02  0.15741185005E+02  0.51100000000E-03 0. -1.
        -11    1    3    3    0    0 -0.13852421079E+02  0.38708656598E+01  0.22782301964E+01  0.14562400345E+02  0.51100000000E-03 0.  1.
        -12    1    3    3    0    0  0.20747543442E+02  0.20130855760E+02  0.22785260934E+01  0.28998337774E+02  0.00000000000E+00 0.  1.
</event>
<event>
 7    1  0.3802554E-013  0.5930196E+02  0.7816164E-02  0.1266605E+00
        -11   -1    0    0    0    0  0.00000000000E+00  0.00000000000E+00  0.45593999997E+02  0.45594000000E+02  0.51100000000E-03 0.  1.
         11   -1    0    0    0    0 -0.00000000000E+00 -0.00000000000E+00 -0.45593999997E+02  0.45594000000E+02  0.51100000000E-03 0. -1.
    9900012    2    1    2    0    0  0.54133212677E+01  0.27211562686E+01 -0.31305127050E+02  0.59301957313E+02  0.50000024229E+02 0.  0.
        -12    1    1    2    0    0 -0.54133212677E+01 -0.27211562686E+01  0.31305127050E+02  0.31886042687E+02  0.00000000000E+00 0.  1.
         11    1    3    3    0    0  0.78763850840E+01  0.39871570132E+01 -0.37274499647E+02  0.38305654768E+02  0.51100000000E-03 0. -1.
        -11    1    3    3    0    0 -0.45279049739E+01  0.28879885640E+01 -0.60636819902E+01  0.81000395639E+01  0.51100000000E-03 0.  1.
        -12    1    3    3    0    0  0.20648411576E+01 -0.41539893086E+01  0.12033054587E+02  0.12896262981E+02  0.00000000000E+00 0.  1.
</event>
<event>
 7    1  0.3802554E-013  0.5930195E+02  0.7816164E-02  0.1266605E+00
        -11   -1    0    0    0    0  0.00000000000E+00  0.00000000000E+00  0.45593999997E+02  0.45594000000E+02  0.51100000000E-03 0.  1.
         11   -1    0    0    0    0 -0.00000000000E+00 -0.00000000000E+00 -0.45593999997E+02  0.45594000000E+02  0.51100000000E-03 0. -1.
    9900012    2    1    2    0    0 -0.14182399460E+02  0.19978992277E+02 -0.20406358060E+02  0.59301952329E+02  0.50000015139E+02 0.  0.
        -12    1    1    2    0    0  0.14182399460E+02 -0.19978992277E+02  0.20406358060E+02  0.31886047671E+02  0.00000000000E+00 0.  1.
         11    1    3    3    0    0  0.60975985690E+01  0.17749380242E+01 -0.17183201549E+02  0.18319212020E+02  0.51100000000E-03 0. -1.
        -11    1    3    3    0    0  0.48753428964E+01  0.11171589243E+02  0.55986415714E+01  0.13413357607E+02  0.51100000000E-03 0.  1.
        -12    1    3    3    0    0 -0.25155340925E+02  0.70324650091E+01 -0.88217980822E+01  0.27569382702E+02  0.00000000000E+00 0.  1.
</event>
<event>
 7    1  0.3802554E-013  0.5930192E+02  0.7816164E-02  0.1266605E+00
        -11   -1    0    0    0    0  0.00000000000E+00  0.00000000000E+00  0.45593999997E+02  0.45594000000E+02  0.51100000000E-03 0. -1.
         11   -1    0    0    0    0 -0.00000000000E+00 -0.00000000000E+00 -0.45593999997E+02  0.45594000000E+02  0.51100000000E-03 0.  1.
    9900012    2    1    2    0    0 -0.11880088921E+02  0.29559750690E+02  0.13440645194E+01  0.59301923367E+02  0.49999962320E+02 0.  0.
        -12    1    1    2    0    0  0.11880088921E+02 -0.29559750690E+02 -0.13440645194E+01  0.31886076633E+02  0.00000000000E+00 0.  1.
         11    1    3    3    0    0 -0.77225221934E+01  0.16183007624E+02 -0.75281682138E+01  0.19447375188E+02  0.51100000000E-03 0. -1.
        -11    1    3    3    0    0 -0.16662168384E+02  0.12934760659E+01 -0.51809487990E+01  0.17496947343E+02  0.51100000000E-03 0.  1.
         12    1    3    3    0    0  0.12504601657E+02  0.12083267000E+02  0.14053181532E+02  0.22357600837E+02  0.00000000000E+00 0. -1.
</event>
<event>
 7    1  0.3802554E-013  0.5930196E+02  0.7816164E-02  0.1266605E+00
        -11   -1    0    0    0    0  0.00000000000E+00  0.00000000000E+00  0.45593999997E+02  0.45594000000E+02  0.51100000000E-03 0.  1.
         11   -1    0    0    0    0 -0.00000000000E+00 -0.00000000000E+00 -0.45593999997E+02  0.45594000000E+02  0.51100000000E-03 0. -1.
    9900012    2    1    2    0    0 -0.40304493376E+01  0.58116685106E+00 -0.31624942850E+02  0.59301964075E+02  0.50000036561E+02 0.  0.
        -12    1    1    2    0    0  0.40304493376E+01 -0.58116685106E+00  0.31624942850E+02  0.31886035925E+02  0.00000000000E+00 0.  1.
         11    1    3    3    0    0  0.95483978837E+01  0.14214728209E+01 -0.19510677977E+02  0.21768303620E+02  0.51100000000E-03 0. -1.
        -11    1    3    3    0    0  0.50539547190E+01  0.11761539000E+02 -0.64633593037E+01  0.14340546422E+02  0.51100000000E-03 0.  1.
        -12    1    3    3    0    0 -0.18632801940E+02 -0.12601844969E+02 -0.56509055692E+01  0.23193114033E+02  0.00000000000E+00 0.  1.
</event>
<event>
 7    1  0.3802554E-013  0.5930197E+02  0.7816164E-02  0.1266605E+00
        -11   -1    0    0    0    0  0.00000000000E+00  0.00000000000E+00  0.45593999997E+02  0.45594000000E+02  0.51100000000E-03 0.  1.
         11   -1    0    0    0    0 -0.00000000000E+00 -0.00000000000E+00 -0.45593999997E+02  0.45594000000E+02  0.51100000000E-03 0. -1.
    9900012    2    1    2    0    0  0.17585005462E+02  0.11886121994E+02 -0.23795090514E+02  0.59301974131E+02  0.50000054901E+02 0.  0.
        -12    1    1    2    0    0 -0.17585005462E+02 -0.11886121994E+02  0.23795090514E+02  0.31886025869E+02  0.00000000000E+00 0.  1.
         11    1    3    3    0    0  0.14452065780E+02  0.29113928128E+01 -0.14945328862E+02  0.20992886140E+02  0.51100000000E-03 0. -1.
        -11    1    3    3    0    0 -0.15013638906E+02  0.92286232540E+01 -0.97461179684E+01  0.20138611076E+02  0.51100000000E-03 0.  1.
         12    1    3    3    0    0  0.18146578589E+02 -0.25389407274E+00  0.89635631672E+00  0.18170476915E+02  0.00000000000E+00 0. -1.
</event>
<event>
 7    1  0.3802554E-013  0.5930181E+02  0.7816164E-02  0.1266605E+00
        -11   -1    0    0    0    0  0.00000000000E+00  0.00000000000E+00  0.45593999997E+02  0.45594000000E+02  0.51100000000E-03 0. -1.
         11   -1    0    0    0    0 -0.00000000000E+00 -0.00000000000E+00 -0.45593999997E+02  0.45594000000E+02  0.51100000000E-03 0.  1.
    9900012    2    1    2    0    0 -0.25997784111E+02 -0.14586493884E+02  0.11317179248E+02  0.59301809751E+02  0.49999755110E+02 0.  0.
        -12    1    1    2    0    0  0.25997784111E+02  0.14586493884E+02 -0.11317179248E+02  0.31886190249E+02  0.00000000000E+00 0.  1.
         11    1    3    3    0    0 -0.70191853691E+00 -0.43723967021E+00 -0.14734290182E+01  0.16896335385E+01  0.51100000000E-03 0. -1.
        -11    1    3    3    0    0 -0.12693521917E+02 -0.31046561257E+02  0.12141194330E+01  0.33563202333E+02  0.51100000000E-03 0.  1.
         12    1    3    3    0    0 -0.12602343656E+02  0.16897307044E+02  0.11576488833E+02  0.24048973879E+02  0.00000000000E+00 0. -1.
</event>
<event>
 7    1  0.3802554E-013  0.5930192E+02  0.7816164E-02  0.1266605E+00
        -11   -1    0    0    0    0  0.00000000000E+00  0.00000000000E+00  0.45593999997E+02  0.45594000000E+02  0.51100000000E-03 0.  1.
         11   -1    0    0    0    0 -0.00000000000E+00 -0.00000000000E+00 -0.45593999997E+02  0.45594000000E+02  0.51100000000E-03 0. -1.
    9900012    2    1    2    0    0 -0.17236378216E+02 -0.67411337910E+01 -0.25965106391E+02  0.59301915751E+02  0.49999948431E+02 0.  0.
        -12    1    1    2    0    0  0.17236378216E+02  0.67411337910E+01  0.25965106391E+02  0.31886084249E+02  0.00000000000E+00 0.  1.
         11    1    3    3    0    0 -0.12066885468E+02 -0.17886623507E+02 -0.21708273268E+02  0.30607027852E+02  0.51100000000E-03 0. -1.
        -11    1    3    3    0    0  0.67929192537E+01 -0.32155868165E+01  0.37049142421E+01  0.83791491432E+01  0.51100000000E-03 0.  1.
         12    1    3    3    0    0 -0.11962412002E+02  0.14361076533E+02 -0.79617473649E+01  0.20315738756E+02  0.00000000000E+00 0. -1.
</event>
<event>
 7    1  0.3802554E-013  0.5930194E+02  0.7816164E-02  0.1266605E+00
        -11   -1    0    0    0    0  0.00000000000E+00  0.00000000000E+00  0.45593999997E+02  0.45594000000E+02  0.51100000000E-03 0. -1.
         11   -1    0    0    0    0 -0.00000000000E+00 -0.00000000000E+00 -0.45593999997E+02  0.45594000000E+02  0.51100000000E-03 0.  1.
    9900012    2    1    2    0    0 -0.24948611104E+02  0.50520653974E+01  0.19203236399E+02  0.59301939581E+02  0.49999991891E+02 0.  0.
        -12    1    1    2    0    0  0.24948611104E+02 -0.50520653974E+01 -0.19203236399E+02  0.31886060419E+02  0.00000000000E+00 0.  1.
         11    1    3    3    0    0 -0.18137152939E+00 -0.16259689098E+01  0.28349732708E+02  0.28396901510E+02  0.51100000000E-03 0. -1.
        -11    1    3    3    0    0 -0.42112792772E+01 -0.42954766010E+01 -0.33818815131E+01  0.69009503121E+01  0.51100000000E-03 0.  1.
        -12    1    3    3    0    0 -0.20555960298E+02  0.10973510908E+02 -0.57646147952E+01  0.24004087759E+02  0.00000000000E+00 0.  1.
</event>
<event>
 7    1  0.3802554E-013  0.5930197E+02  0.7816164E-02  0.1266605E+00
        -11   -1    0    0    0    0  0.00000000000E+00  0.00000000000E+00  0.45593999997E+02  0.45594000000E+02  0.51100000000E-03 0. -1.
         11   -1    0    0    0    0 -0.00000000000E+00 -0.00000000000E+00 -0.45593999997E+02  0.45594000000E+02  0.51100000000E-03 0.  1.
    9900012    2    1    2    0    0  0.27488859044E+02  0.10047974556E+02  0.12653833348E+02  0.59301973866E+02  0.50000054417E+02 0.  0.
        -12    1    1    2    0    0 -0.27488859044E+02 -0.10047974556E+02 -0.12653833348E+02  0.31886026134E+02  0.00000000000E+00 0.  1.
         11    1    3    3    0    0  0.23191738473E+02  0.17916271581E+02  0.23522698548E+01  0.29400385958E+02  0.51100000000E-03 0. -1.
        -11    1    3    3    0    0  0.84892581442E+01  0.76488773397E+01  0.13574598380E+01  0.11507194526E+02  0.51100000000E-03 0.  1.
        -12    1    3    3    0    0 -0.41921375728E+01 -0.15517174364E+02  0.89441036557E+01  0.18394393382E+02  0.00000000000E+00 0.  1.
</event>
<event>
 7    1  0.3802554E-013  0.5930194E+02  0.7816164E-02  0.1266605E+00
        -11   -1    0    0    0    0  0.00000000000E+00  0.00000000000E+00  0.45593999997E+02  0.45594000000E+02  0.51100000000E-03 0.  1.
         11   -1    0    0    0    0 -0.00000000000E+00 -0.00000000000E+00 -0.45593999997E+02  0.45594000000E+02  0.51100000000E-03 0. -1.
    9900012    2    1    2    0    0  0.16318718296E+02 -0.18886161311E+02 -0.19842707471E+02  0.59301941986E+02  0.49999996276E+02 0.  0.
        -12    1    1    2    0    0 -0.16318718296E+02  0.18886161311E+02  0.19842707471E+02  0.31886058014E+02  0.00000000000E+00 0.  1.
         11    1    3    3    0    0  0.81373862518E+00  0.34070575924E+01  0.81737643082E+01  0.88927293456E+01  0.51100000000E-03 0.  1.
        -11    1    3    3    0    0  0.22647360824E+02 -0.59034390723E+01 -0.11532096245E+02  0.26091048067E+02  0.51100000000E-03 0. -1.
         12    1    3    3    0    0 -0.71423811529E+01 -0.16389779831E+02 -0.16484375535E+02  0.24318164573E+02  0.00000000000E+00 0. -1.
</event>
<event>
 7    1  0.3802554E-013  0.5930194E+02  0.7816164E-02  0.1266605E+00
        -11   -1    0    0    0    0  0.00000000000E+00  0.00000000000E+00  0.45593999997E+02  0.45594000000E+02  0.51100000000E-03 0. -1.
         11   -1    0    0    0    0 -0.00000000000E+00 -0.00000000000E+00 -0.45593999997E+02  0.45594000000E+02  0.51100000000E-03 0.  1.
    9900012    2    1    2    0    0  0.16959046153E+02  0.13048578025E+02  0.23639927112E+02  0.59301940527E+02  0.49999993615E+02 0.  0.
        -12    1    1    2    0    0 -0.16959046153E+02 -0.13048578025E+02 -0.23639927112E+02  0.31886059473E+02  0.00000000000E+00 0.  1.
         11    1    3    3    0    0 -0.16375526742E+02  0.60909698377E+01  0.46051149525E+01  0.18068338983E+02  0.51100000000E-03 0. -1.
        -11    1    3    3    0    0 -0.11988468910E+01 -0.37358906366E+00  0.90158507651E+00  0.15458520524E+01  0.51100000000E-03 0.  1.
         12    1    3    3    0    0  0.34533419786E+02  0.73311972506E+01  0.18133227083E+02  0.39687749491E+02  0.00000000000E+00 0. -1.
</event>
<event>
 7    1  0.3802554E-013  0.5930195E+02  0.7816164E-02  0.1266605E+00
        -11   -1    0    0    0    0  0.00000000000E+00  0.00000000000E+00  0.45593999997E+02  0.45594000000E+02  0.51100000000E-03 0.  1.
         11   -1    0    0    0    0 -0.00000000000E+00 -0.00000000000E+00 -0.45593999997E+02  0.45594000000E+02  0.51100000000E-03 0. -1.
    9900012    2    1    2    0    0 -0.14740492250E+02  0.20470902559E+02 -0.19503332261E+02  0.59301953951E+02  0.50000018098E+02 0.  0.
        -12    1    1    2    0    0  0.14740492250E+02 -0.20470902559E+02  0.19503332261E+02  0.31886046049E+02  0.00000000000E+00 0.  1.
         11    1    3    3    0    0 -0.88422349821E+01 -0.59947687995E+01  0.27744897447E+01  0.11037217314E+02  0.51100000000E-03 0. -1.
        -11    1    3    3    0    0 -0.15177187149E+02  0.22340013394E+02 -0.39273219777E+01  0.27291886458E+02  0.51100000000E-03 0.  1.
        -12    1    3    3    0    0  0.92789298812E+01  0.41256579635E+01 -0.18350500028E+02  0.20972850179E+02  0.00000000000E+00 0.  1.
</event>
<event>
 7    1  0.3802554E-013  0.5930196E+02  0.7816164E-02  0.1266605E+00
        -11   -1    0    0    0    0  0.00000000000E+00  0.00000000000E+00  0.45593999997E+02  0.45594000000E+02  0.51100000000E-03 0.  1.
         11   -1    0    0    0    0 -0.00000000000E+00 -0.00000000000E+00 -0.45593999997E+02  0.45594000000E+02  0.51100000000E-03 0. -1.
    9900012    2    1    2    0    0 -0.20546592440E+02  0.55821527123E+01 -0.23735981646E+02  0.59301957372E+02  0.50000024336E+02 0.  0.
        -12    1    1    2    0    0  0.20546592440E+02 -0.55821527123E+01  0.23735981646E+02  0.31886042628E+02  0.00000000000E+00 0.  1.
         11    1    3    3    0    0 -0.62683151609E+01 -0.18214634004E+01 -0.15744635963E+01  0.67147926068E+01  0.51100000000E-03 0. -1.
        -11    1    3    3    0    0 -0.30423266323E+02  0.25363363863E+01 -0.11425199333E+02  0.32596676458E+02  0.51100000000E-03 0.  1.
         12    1    3    3    0    0  0.16144989044E+02  0.48672797264E+01 -0.10736318717E+02  0.19990488307E+02  0.00000000000E+00 0. -1.
</event>
<event>
 7    1  0.3802554E-013  0.5930180E+02  0.7816164E-02  0.1266605E+00
        -11   -1    0    0    0    0  0.00000000000E+00  0.00000000000E+00  0.45593999997E+02  0.45594000000E+02  0.51100000000E-03 0.  1.
         11   -1    0    0    0    0 -0.00000000000E+00 -0.00000000000E+00 -0.45593999997E+02  0.45594000000E+02  0.51100000000E-03 0. -1.
    9900012    2    1    2    0    0  0.18533412647E+02  0.17493377791E+02 -0.19163084063E+02  0.59301804842E+02  0.49999746158E+02 0.  0.
        -12    1    1    2    0    0 -0.18533412647E+02 -0.17493377791E+02  0.19163084063E+02  0.31886195158E+02  0.00000000000E+00 0.  1.
         11    1    3    3    0    0  0.24080706647E+01  0.10594121129E+02 -0.44375353626E+01  0.11735669013E+02  0.51100000000E-03 0. -1.
        -11    1    3    3    0    0  0.13677203285E+02  0.23799224835E+02 -0.13092437332E+02  0.30411854729E+02  0.51100000000E-03 0.  1.
         12    1    3    3    0    0  0.24481386968E+01 -0.16899968173E+02 -0.16331113679E+01  0.17154281100E+02  0.00000000000E+00 0. -1.
</event>
<event>
 7    1  0.3802554E-013  0.5930186E+02  0.7816164E-02  0.1266605E+00
        -11   -1    0    0    0    0  0.00000000000E+00  0.00000000000E+00  0.45593999997E+02  0.45594000000E+02  0.51100000000E-03 0.  1.
         11   -1    0    0    0    0 -0.00000000000E+00 -0.00000000000E+00 -0.45593999997E+02  0.45594000000E+02  0.51100000000E-03 0. -1.
    9900012    2    1    2    0    0  0.16198593611E+02  0.18592202548E+02 -0.20215378996E+02  0.59301859147E+02  0.49999845198E+02 0.  0.
        -12    1    1    2    0    0 -0.16198593611E+02 -0.18592202548E+02  0.20215378996E+02  0.31886140853E+02  0.00000000000E+00 0.  1.
         11    1    3    3    0    0  0.75623959593E+01  0.14167406822E+02 -0.54827877397E+01  0.16969567182E+02  0.51100000000E-03 0. -1.
        -11    1    3    3    0    0  0.13398700645E+02  0.32943841241E+01 -0.26339979581E+02  0.29735041119E+02  0.51100000000E-03 0.  1.
        -12    1    3    3    0    0 -0.47625029932E+01  0.11304116017E+01  0.11607388325E+02  0.12597250846E+02  0.00000000000E+00 0.  1.
</event>
<event>
 7    1  0.3802554E-013  0.5930207E+02  0.7816164E-02  0.1266604E+00
        -11   -1    0    0    0    0  0.00000000000E+00  0.00000000000E+00  0.45593999997E+02  0.45594000000E+02  0.51100000000E-03 0. -1.
         11   -1    0    0    0    0 -0.00000000000E+00 -0.00000000000E+00 -0.45593999997E+02  0.45594000000E+02  0.51100000000E-03 0.  1.
    9900012    2    1    2    0    0 -0.18809716671E+02  0.25743426577E+02 -0.42813914479E+00  0.59302066483E+02  0.50000223328E+02 0.  0.
        -12    1    1    2    0    0  0.18809716671E+02 -0.25743426577E+02  0.42813914479E+00  0.31885933517E+02  0.00000000000E+00 0.  1.
         11    1    3    3    0    0  0.12927621625E+01 -0.41960428094E+01  0.46698498444E+01  0.64097977423E+01  0.51100000000E-03 0. -1.
        -11    1    3    3    0    0  0.72733467098E+01  0.13241032736E+02 -0.12927760176E+02  0.19883498276E+02  0.51100000000E-03 0.  1.
        -12    1    3    3    0    0 -0.27375825543E+02  0.16698436650E+02  0.78297711870E+01  0.33008770464E+02  0.00000000000E+00 0.  1.
</event>
<event>
 7    1  0.3802554E-013  0.5930194E+02  0.7816164E-02  0.1266605E+00
        -11   -1    0    0    0    0  0.00000000000E+00  0.00000000000E+00  0.45593999997E+02  0.45594000000E+02  0.51100000000E-03 0. -1.
         11   -1    0    0    0    0 -0.00000000000E+00 -0.00000000000E+00 -0.45593999997E+02  0.45594000000E+02  0.51100000000E-03 0.  1.
    9900012    2    1    2    0    0 -0.91591722543E+01  0.24987584485E+02  0.17562771705E+02  0.59301940903E+02  0.49999994301E+02 0.  0.
        -12    1    1    2    0    0  0.91591722543E+01 -0.24987584485E+02 -0.17562771705E+02  0.31886059097E+02  0.00000000000E+00 0.  1.
         11    1    3    3    0    0 -0.11551690274E+02  0.32468023029E+01  0.17791345596E+02  0.21459619096E+02  0.51100000000E-03 0. -1.
        -11    1    3    3    0    0  0.89608086442E+01  0.21828231666E+02  0.10047539315E+02  0.25646068622E+02  0.51100000000E-03 0.  1.
        -12    1    3    3    0    0 -0.65682906243E+01 -0.87449483905E-01 -0.10276113206E+02  0.12196253185E+02  0.00000000000E+00 0.  1.
</event>
<event>
 7    1  0.3802554E-013  0.5930191E+02  0.7816164E-02  0.1266605E+00
        -11   -1    0    0    0    0  0.00000000000E+00  0.00000000000E+00  0.45593999997E+02  0.45594000000E+02  0.51100000000E-03 0.  1.
         11   -1    0    0    0    0 -0.00000000000E+00 -0.00000000000E+00 -0.45593999997E+02  0.45594000000E+02  0.51100000000E-03 0. -1.
    9900012    2    1    2    0    0 -0.59972071782E+01  0.14911408791E+02 -0.27539173879E+02  0.59301910494E+02  0.49999938842E+02 0.  0.
        -12    1    1    2    0    0  0.59972071782E+01 -0.14911408791E+02  0.27539173879E+02  0.31886089506E+02  0.00000000000E+00 0.  1.
         11    1    3    3    0    0  0.10923897972E+02  0.37278984634E+00 -0.25352021197E+02  0.27607888333E+02  0.51100000000E-03 0. -1.
        -11    1    3    3    0    0 -0.77903652483E+01 -0.42986293060E+01  0.41562320137E+01  0.98205025037E+01  0.51100000000E-03 0.  1.
        -12    1    3    3    0    0 -0.91307399015E+01  0.18837248251E+02 -0.63433846952E+01  0.21873519657E+02  0.00000000000E+00 0.  1.
</event>
<event>
 7    1  0.3802554E-013  0.5930187E+02  0.7816164E-02  0.1266605E+00
        -11   -1    0    0    0    0  0.00000000000E+00  0.00000000000E+00  0.45593999997E+02  0.45594000000E+02  0.51100000000E-03 0. -1.
         11   -1    0    0    0    0 -0.00000000000E+00 -0.00000000000E+00 -0.45593999997E+02  0.45594000000E+02  0.51100000000E-03 0.  1.
    9900012    2    1    2    0    0 -0.10539662564E+02  0.89209188785E+01  0.28741227992E+02  0.59301867167E+02  0.49999859824E+02 0.  0.
        -12    1    1    2    0    0  0.10539662564E+02 -0.89209188785E+01 -0.28741227992E+02  0.31886132833E+02  0.00000000000E+00 0.  1.
         11    1    3    3    0    0  0.69722870319E+01  0.13514471794E+02  0.13964796794E+01  0.15271014704E+02  0.51100000000E-03 0. -1.
        -11    1    3    3    0    0 -0.96960132948E+01  0.96617514898E+01  0.23701701057E+02  0.27370289529E+02  0.51100000000E-03 0.  1.
        -12    1    3    3    0    0 -0.78159363014E+01 -0.14255304405E+02  0.36430472551E+01  0.16660562933E+02  0.00000000000E+00 0.  1.
</event>
<event>
 7    1  0.3802554E-013  0.5930195E+02  0.7816164E-02  0.1266605E+00
        -11   -1    0    0    0    0  0.00000000000E+00  0.00000000000E+00  0.45593999997E+02  0.45594000000E+02  0.51100000000E-03 0.  1.
         11   -1    0    0    0    0 -0.00000000000E+00 -0.00000000000E+00 -0.45593999997E+02  0.45594000000E+02  0.51100000000E-03 0. -1.
    9900012    2    1    2    0    0  0.19699409501E+02 -0.10680838829E+02 -0.22684199292E+02  0.59301953674E+02  0.50000017592E+02 0.  0.
        -12    1    1    2    0    0 -0.19699409501E+02  0.10680838829E+02  0.22684199292E+02  0.31886046326E+02  0.00000000000E+00 0.  1.
         11    1    3    3    0    0  0.96649813742E+01 -0.13924607242E+02 -0.19205473549E+02  0.25615557115E+02  0.51100000000E-03 0. -1.
        -11    1    3    3    0    0  0.47585631228E+01 -0.10777414680E+02 -0.11694989158E+02  0.16600281981E+02  0.51100000000E-03 0.  1.
         12    1    3    3    0    0  0.52758650042E+01  0.14021183094E+02  0.82162634137E+01  0.17086114578E+02  0.00000000000E+00 0. -1.
</event>
<event>
 7    1  0.3802554E-013  0.5930192E+02  0.7816164E-02  0.1266605E+00
        -11   -1    0    0    0    0  0.00000000000E+00  0.00000000000E+00  0.45593999997E+02  0.45594000000E+02  0.51100000000E-03 0.  1.
         11   -1    0    0    0    0 -0.00000000000E+00 -0.00000000000E+00 -0.45593999997E+02  0.45594000000E+02  0.51100000000E-03 0. -1.
    9900012    2    1    2    0    0  0.25454014228E+02 -0.97015830134E+01 -0.16573920233E+02  0.59301915493E+02  0.49999947960E+02 0.  0.
        -12    1    1    2    0    0 -0.25454014228E+02  0.97015830134E+01  0.16573920233E+02  0.31886084507E+02  0.00000000000E+00 0.  1.
         11    1    3    3    0    0  0.10711330788E+02 -0.12845591509E+02 -0.91687125129E+01  0.19073728473E+02  0.51100000000E-03 0. -1.
        -11    1    3    3    0    0  0.11797190398E+02 -0.11272398596E+02 -0.16276118090E+02  0.23046750134E+02  0.51100000000E-03 0.  1.
        -12    1    3    3    0    0  0.29454930419E+01  0.14416407091E+02  0.88709103699E+01  0.17181436886E+02  0.00000000000E+00 0.  1.
</event>
<event>
 7    1  0.3802554E-013  0.5930199E+02  0.7816164E-02  0.1266605E+00
        -11   -1    0    0    0    0  0.00000000000E+00  0.00000000000E+00  0.45593999997E+02  0.45594000000E+02  0.51100000000E-03 0. -1.
         11   -1    0    0    0    0 -0.00000000000E+00 -0.00000000000E+00 -0.45593999997E+02  0.45594000000E+02  0.51100000000E-03 0.  1.
    9900012    2    1    2    0    0 -0.29377944901E+02  0.11425741076E+02  0.48069069572E+01  0.59301991152E+02  0.50000085943E+02 0.  0.
        -12    1    1    2    0    0  0.29377944901E+02 -0.11425741076E+02 -0.48069069572E+01  0.31886008848E+02  0.00000000000E+00 0.  1.
         11    1    3    3    0    0 -0.15234386108E+02  0.10134144675E+02  0.89011588090E+01  0.20347433175E+02  0.51100000000E-03 0. -1.
        -11    1    3    3    0    0 -0.11176617789E+02  0.36444468025E+00 -0.19910426074E+02  0.22835819929E+02  0.51100000000E-03 0.  1.
         12    1    3    3    0    0 -0.29669410036E+01  0.92715172050E+00  0.15816174222E+02  0.16118738048E+02  0.00000000000E+00 0. -1.
</event>
<event>
 7    1  0.3802554E-013  0.5930200E+02  0.7816164E-02  0.1266605E+00
        -11   -1    0    0    0    0  0.00000000000E+00  0.00000000000E+00  0.45593999997E+02  0.45594000000E+02  0.51100000000E-03 0. -1.
         11   -1    0    0    0    0 -0.00000000000E+00 -0.00000000000E+00 -0.45593999997E+02  0.45594000000E+02  0.51100000000E-03 0.  1.
    9900012    2    1    2    0    0 -0.18961230676E+02  0.41202902493E+01  0.25302407403E+02  0.59302001805E+02  0.50000105373E+02 0.  0.
        -12    1    1    2    0    0  0.18961230676E+02 -0.41202902493E+01 -0.25302407403E+02  0.31885998195E+02  0.00000000000E+00 0.  1.
         11    1    3    3    0    0  0.41053092714E+01 -0.35646328918E+01  0.50944053369E+01  0.74507139164E+01  0.51100000000E-03 0. -1.
        -11    1    3    3    0    0  0.10404838234E+02 -0.54973731936E+01  0.54370734691E+01  0.12963160837E+02  0.51100000000E-03 0.  1.
        -12    1    3    3    0    0 -0.33471378181E+02  0.13182296335E+02  0.14770928597E+02  0.38888127052E+02  0.00000000000E+00 0.  1.
</event>
<event>
 7    1  0.3802554E-013  0.5930195E+02  0.7816164E-02  0.1266605E+00
        -11   -1    0    0    0    0  0.00000000000E+00  0.00000000000E+00  0.45593999997E+02  0.45594000000E+02  0.51100000000E-03 0.  1.
         11   -1    0    0    0    0 -0.00000000000E+00 -0.00000000000E+00 -0.45593999997E+02  0.45594000000E+02  0.51100000000E-03 0. -1.
    9900012    2    1    2    0    0 -0.87999081044E+01 -0.25227800503E+02  0.17402295883E+02  0.59301949713E+02  0.50000010369E+02 0.  0.
        -12    1    1    2    0    0  0.87999081044E+01  0.25227800503E+02 -0.17402295883E+02  0.31886050287E+02  0.00000000000E+00 0.  1.
         11    1    3    3    0    0  0.55969540266E+01 -0.17316676419E+02 -0.35505020969E+01  0.18541824127E+02  0.51100000000E-03 0. -1.
        -11    1    3    3    0    0 -0.11268171144E+02 -0.18576014092E+02  0.20124793283E+02  0.29614984136E+02  0.51100000000E-03 0.  1.
         12    1    3    3    0    0 -0.31286909868E+01  0.10664890007E+02  0.82800469726E+00  0.11145141450E+02  0.00000000000E+00 0. -1.
</event>
<event>
 7    1  0.3802554E-013  0.5930193E+02  0.7816164E-02  0.1266605E+00
        -11   -1    0    0    0    0  0.00000000000E+00  0.00000000000E+00  0.45593999997E+02  0.45594000000E+02  0.51100000000E-03 0.  1.
         11   -1    0    0    0    0 -0.00000000000E+00 -0.00000000000E+00 -0.45593999997E+02  0.45594000000E+02  0.51100000000E-03 0. -1.
    9900012    2    1    2    0    0 -0.19504098754E+01  0.15984022662E+02 -0.27521412082E+02  0.59301934044E+02  0.49999981792E+02 0.  0.
        -12    1    1    2    0    0  0.19504098754E+01 -0.15984022662E+02  0.27521412082E+02  0.31886065956E+02  0.00000000000E+00 0.  1.
         11    1    3    3    0    0  0.29692509130E+01  0.14196943175E+01 -0.17619803057E+02  0.17924548613E+02  0.51100000000E-03 0. -1.
        -11    1    3    3    0    0 -0.11056076845E+02 -0.99233748554E+01 -0.24604671410E+01  0.15058688606E+02  0.51100000000E-03 0.  1.
        -12    1    3    3    0    0  0.61364160565E+01  0.24487703200E+02 -0.74411418844E+01  0.26318696825E+02  0.00000000000E+00 0.  1.
</event>
<event>
 7    1  0.3802554E-013  0.5930184E+02  0.7816164E-02  0.1266605E+00
        -11   -1    0    0    0    0  0.00000000000E+00  0.00000000000E+00  0.45593999997E+02  0.45594000000E+02  0.51100000000E-03 0. -1.
         11   -1    0    0    0    0 -0.00000000000E+00 -0.00000000000E+00 -0.45593999997E+02  0.45594000000E+02  0.51100000000E-03 0.  1.
    9900012    2    1    2    0    0  0.30317149130E+02 -0.63348378700E+01 -0.75807266782E+01  0.59301841260E+02  0.49999812576E+02 0.  0.
        -12    1    1    2    0    0 -0.30317149130E+02  0.63348378700E+01  0.75807266782E+01  0.31886158740E+02  0.00000000000E+00 0.  1.
         11    1    3    3    0    0 -0.11085153981E+02  0.62127045874E+01 -0.57263543369E+01  0.13938058377E+02  0.51100000000E-03 0. -1.
        -11    1    3    3    0    0  0.24432767862E+02 -0.80420207289E+00  0.13335971024E+01  0.24482348087E+02  0.51100000000E-03 0.  1.
        -12    1    3    3    0    0  0.16969535249E+02 -0.11743340385E+02 -0.31879694437E+01  0.20881434796E+02  0.00000000000E+00 0.  1.
</event>
<event>
 7    1  0.3802554E-013  0.5930196E+02  0.7816164E-02  0.1266605E+00
        -11   -1    0    0    0    0  0.00000000000E+00  0.00000000000E+00  0.45593999997E+02  0.45594000000E+02  0.51100000000E-03 0. -1.
         11   -1    0    0    0    0 -0.00000000000E+00 -0.00000000000E+00 -0.45593999997E+02  0.45594000000E+02  0.51100000000E-03 0.  1.
    9900012    2    1    2    0    0 -0.31692713329E+02 -0.34192441281E+01  0.77455771809E+00  0.59301964683E+02  0.50000037671E+02 0.  0.
        -12    1    1    2    0    0  0.31692713329E+02  0.34192441281E+01 -0.77455771809E+00  0.31886035317E+02  0.00000000000E+00 0.  1.
         11    1    3    3    0    0  0.59110146363E+01  0.18731388929E+01  0.29031786758E+01  0.68466919040E+01  0.51100000000E-03 0.  1.
        -11    1    3    3    0    0 -0.13457446167E+02 -0.32831477077E+01 -0.18574792502E+02  0.23171206981E+02  0.51100000000E-03 0. -1.
         12    1    3    3    0    0 -0.24146281799E+02 -0.20092353134E+01  0.16446171544E+02  0.29284065799E+02  0.00000000000E+00 0. -1.
</event>
<event>
 7    1  0.3802554E-013  0.5930195E+02  0.7816164E-02  0.1266605E+00
        -11   -1    0    0    0    0  0.00000000000E+00  0.00000000000E+00  0.45593999997E+02  0.45594000000E+02  0.51100000000E-03 0. -1.
         11   -1    0    0    0    0 -0.00000000000E+00 -0.00000000000E+00 -0.45593999997E+02  0.45594000000E+02  0.51100000000E-03 0.  1.
    9900012    2    1    2    0    0 -0.17539282805E+02  0.59346621241E+01  0.25959073094E+02  0.59301950829E+02  0.50000012404E+02 0.  0.
        -12    1    1    2    0    0  0.17539282805E+02 -0.59346621241E+01 -0.25959073094E+02  0.31886049171E+02  0.00000000000E+00 0.  1.
         11    1    3    3    0    0 -0.53555119763E+01 -0.20011533140E+01 -0.11376271672E+02  0.12732072908E+02  0.51100000000E-03 0.  1.
        -11    1    3    3    0    0 -0.14817451614E+02 -0.17642895018E+01  0.11472502439E+02  0.18822537083E+02  0.51100000000E-03 0. -1.
        -12    1    3    3    0    0  0.26336807849E+01  0.97001049399E+01  0.25862842327E+02  0.27747340838E+02  0.00000000000E+00 0.  1.
</event>
<event>
 7    1  0.3802554E-013  0.5930195E+02  0.7816164E-02  0.1266605E+00
        -11   -1    0    0    0    0  0.00000000000E+00  0.00000000000E+00  0.45593999997E+02  0.45594000000E+02  0.51100000000E-03 0. -1.
         11   -1    0    0    0    0 -0.00000000000E+00 -0.00000000000E+00 -0.45593999997E+02  0.45594000000E+02  0.51100000000E-03 0.  1.
    9900012    2    1    2    0    0 -0.30753945603E+02 -0.35503223249E+01  0.76361238069E+01  0.59301947476E+02  0.50000006289E+02 0.  0.
        -12    1    1    2    0    0  0.30753945603E+02  0.35503223249E+01 -0.76361238069E+01  0.31886052524E+02  0.00000000000E+00 0.  1.
         11    1    3    3    0    0 -0.18864442151E+02  0.11112957284E+02 -0.71366184524E+01  0.23028163636E+02  0.51100000000E-03 0. -1.
        -11    1    3    3    0    0 -0.24680611005E+00 -0.19564216756E+01 -0.77028195622E+01  0.79512218242E+01  0.51100000000E-03 0.  1.
         12    1    3    3    0    0 -0.11642697342E+02 -0.12706857933E+02  0.22475561821E+02  0.28322562016E+02  0.00000000000E+00 0. -1.
</event>
<event>
 7    1  0.3802554E-013  0.5930198E+02  0.7816164E-02  0.1266605E+00
        -11   -1    0    0    0    0  0.00000000000E+00  0.00000000000E+00  0.45593999997E+02  0.45594000000E+02  0.51100000000E-03 0.  1.
         11   -1    0    0    0    0 -0.00000000000E+00 -0.00000000000E+00 -0.45593999997E+02  0.45594000000E+02  0.51100000000E-03 0. -1.
    9900012    2    1    2    0    0 -0.13726773268E+02 -0.86064977303E+01 -0.27463101628E+02  0.59301983338E+02  0.50000071693E+02 0.  0.
        -12    1    1    2    0    0  0.13726773268E+02  0.86064977303E+01  0.27463101628E+02  0.31886016662E+02  0.00000000000E+00 0.  1.
         11    1    3    3    0    0 -0.42008253378E+01 -0.14006813754E+02 -0.18616762479E+02  0.23673225604E+02  0.51100000000E-03 0. -1.
        -11    1    3    3    0    0 -0.18093706120E+02  0.76691442551E+01 -0.15098575575E+02  0.24782351773E+02  0.51100000000E-03 0.  1.
         12    1    3    3    0    0  0.85677581902E+01 -0.22688282317E+01  0.62522364251E+01  0.10846405961E+02  0.00000000000E+00 0. -1.
</event>
<event>
 7    1  0.3802554E-013  0.5930193E+02  0.7816164E-02  0.1266605E+00
        -11   -1    0    0    0    0  0.00000000000E+00  0.00000000000E+00  0.45593999997E+02  0.45594000000E+02  0.51100000000E-03 0. -1.
         11   -1    0    0    0    0 -0.00000000000E+00 -0.00000000000E+00 -0.45593999997E+02  0.45594000000E+02  0.51100000000E-03 0.  1.
    9900012    2    1    2    0    0 -0.16137679711E+02 -0.17469725164E+01  0.27445308485E+02  0.59301928162E+02  0.49999971065E+02 0.  0.
        -12    1    1    2    0    0  0.16137679711E+02  0.17469725164E+01 -0.27445308485E+02  0.31886071838E+02  0.00000000000E+00 0.  1.
         11    1    3    3    0    0 -0.98221496447E+01  0.26421761200E+01  0.22681989615E+02  0.24858165086E+02  0.51100000000E-03 0. -1.
        -11    1    3    3    0    0  0.61270530841E+01  0.12019546199E+02  0.25794285246E+01  0.13735491331E+02  0.51100000000E-03 0.  1.
         12    1    3    3    0    0 -0.12442583150E+02 -0.16408694835E+02  0.21838903457E+01  0.20708271746E+02  0.00000000000E+00 0. -1.
</event>
<event>
 7    1  0.3802554E-013  0.5930194E+02  0.7816164E-02  0.1266605E+00
        -11   -1    0    0    0    0  0.00000000000E+00  0.00000000000E+00  0.45593999997E+02  0.45594000000E+02  0.51100000000E-03 0. -1.
         11   -1    0    0    0    0 -0.00000000000E+00 -0.00000000000E+00 -0.45593999997E+02  0.45594000000E+02  0.51100000000E-03 0.  1.
    9900012    2    1    2    0    0 -0.20736025788E+02  0.24200745320E+02 -0.10303718069E+01  0.59301944967E+02  0.50000001712E+02 0.  0.
        -12    1    1    2    0    0  0.20736025788E+02 -0.24200745320E+02  0.10303718069E+01  0.31886055033E+02  0.00000000000E+00 0.  1.
         11    1    3    3    0    0 -0.30579772892E+02  0.85139217779E+01  0.11774686809E+02  0.33856352785E+02  0.51100000000E-03 0. -1.
        -11    1    3    3    0    0  0.28366428841E+01 -0.73834922304E+00  0.75081125652E+00  0.30257924964E+01  0.51100000000E-03 0.  1.
        -12    1    3    3    0    0  0.70071042202E+01  0.16425172765E+02 -0.13555869873E+02  0.22419799685E+02  0.00000000000E+00 0.  1.
</event>
<event>
 7    1  0.3802554E-013  0.5930195E+02  0.7816164E-02  0.1266605E+00
        -11   -1    0    0    0    0  0.00000000000E+00  0.00000000000E+00  0.45593999997E+02  0.45594000000E+02  0.51100000000E-03 0.  1.
         11   -1    0    0    0    0 -0.00000000000E+00 -0.00000000000E+00 -0.45593999997E+02  0.45594000000E+02  0.51100000000E-03 0. -1.
    9900012    2    1    2    0    0 -0.11459675716E+02  0.27875032238E+01 -0.29624749147E+02  0.59301951267E+02  0.50000013203E+02 0.  0.
        -12    1    1    2    0    0  0.11459675716E+02 -0.27875032238E+01  0.29624749147E+02  0.31886048733E+02  0.00000000000E+00 0.  1.
         11    1    3    3    0    0  0.29333812424E+01  0.10316091399E+02  0.49396590332E+01  0.11807908320E+02  0.51100000000E-03 0. -1.
        -11    1    3    3    0    0 -0.14696606117E+00  0.33487981215E+00  0.48442598812E+01  0.48580446241E+01  0.51100000000E-03 0.  1.
        -12    1    3    3    0    0 -0.14246090897E+02 -0.78634679872E+01 -0.39408668062E+02  0.42635998323E+02  0.00000000000E+00 0.  1.
</event>
<event>
 7    1  0.3802554E-013  0.5930194E+02  0.7816164E-02  0.1266605E+00
        -11   -1    0    0    0    0  0.00000000000E+00  0.00000000000E+00  0.45593999997E+02  0.45594000000E+02  0.51100000000E-03 0.  1.
         11   -1    0    0    0    0 -0.00000000000E+00 -0.00000000000E+00 -0.45593999997E+02  0.45594000000E+02  0.51100000000E-03 0. -1.
    9900012    2    1    2    0    0  0.31430498034E+02  0.43508229891E+01 -0.31487961198E+01  0.59301940595E+02  0.49999993740E+02 0.  0.
        -12    1    1    2    0    0 -0.31430498034E+02 -0.43508229891E+01  0.31487961198E+01  0.31886059405E+02  0.00000000000E+00 0.  1.
         11    1    3    3    0    0  0.11978190234E+02 -0.72373418940E+00 -0.38157818410E+01  0.12592101643E+02  0.51100000000E-03 0. -1.
        -11    1    3    3    0    0  0.21311896239E+02  0.13338390724E+02  0.15566625424E+02  0.29570752708E+02  0.51100000000E-03 0.  1.
         12    1    3    3    0    0 -0.18595884389E+01 -0.82638335452E+01 -0.14899639702E+02  0.17139086244E+02  0.00000000000E+00 0. -1.
</event>
<event>
 7    1  0.3802554E-013  0.5930193E+02  0.7816164E-02  0.1266605E+00
        -11   -1    0    0    0    0  0.00000000000E+00  0.00000000000E+00  0.45593999997E+02  0.45594000000E+02  0.51100000000E-03 0.  1.
         11   -1    0    0    0    0 -0.00000000000E+00 -0.00000000000E+00 -0.45593999997E+02  0.45594000000E+02  0.51100000000E-03 0. -1.
    9900012    2    1    2    0    0 -0.10183200073E+02  0.20428685274E+02 -0.22264158478E+02  0.59301929397E+02  0.49999973318E+02 0.  0.
        -12    1    1    2    0    0  0.10183200073E+02 -0.20428685274E+02  0.22264158478E+02  0.31886070603E+02  0.00000000000E+00 0.  1.
         11    1    3    3    0    0 -0.73122396239E+01  0.13786569055E+02 -0.22282834865E+02  0.27204100141E+02  0.51100000000E-03 0. -1.
        -11    1    3    3    0    0 -0.10316303995E+02  0.93810631723E+01 -0.11525528891E+02  0.18090558058E+02  0.51100000000E-03 0.  1.
        -12    1    3    3    0    0  0.74453435452E+01 -0.27389469538E+01  0.11544205278E+02  0.14007271198E+02  0.00000000000E+00 0.  1.
</event>
<event>
 7    1  0.3802554E-013  0.5930193E+02  0.7816164E-02  0.1266605E+00
        -11   -1    0    0    0    0  0.00000000000E+00  0.00000000000E+00  0.45593999997E+02  0.45594000000E+02  0.51100000000E-03 0.  1.
         11   -1    0    0    0    0 -0.00000000000E+00 -0.00000000000E+00 -0.45593999997E+02  0.45594000000E+02  0.51100000000E-03 0. -1.
    9900012    2    1    2    0    0  0.24841781365E+02 -0.62721247673E+00 -0.19980345018E+02  0.59301926490E+02  0.49999968015E+02 0.  0.
        -12    1    1    2    0    0 -0.24841781365E+02  0.62721247673E+00  0.19980345018E+02  0.31886073510E+02  0.00000000000E+00 0.  1.
         11    1    3    3    0    0 -0.17264820447E+01 -0.75795308449E+01 -0.93870269038E+01  0.12187957271E+02  0.51100000000E-03 0. -1.
        -11    1    3    3    0    0 -0.28077207495E+01 -0.11033448685E+02 -0.38262082271E+01  0.12010834914E+02  0.51100000000E-03 0.  1.
         12    1    3    3    0    0  0.29375984159E+02  0.17985767053E+02 -0.67671098867E+01  0.35103134305E+02  0.00000000000E+00 0. -1.
</event>
<event>
 7    1  0.3802554E-013  0.5930207E+02  0.7816164E-02  0.1266604E+00
        -11   -1    0    0    0    0  0.00000000000E+00  0.00000000000E+00  0.45593999997E+02  0.45594000000E+02  0.51100000000E-03 0.  1.
         11   -1    0    0    0    0 -0.00000000000E+00 -0.00000000000E+00 -0.45593999997E+02  0.45594000000E+02  0.51100000000E-03 0. -1.
    9900012    2    1    2    0    0 -0.16554019871E+02  0.16355940722E+02 -0.21798175415E+02  0.59302065449E+02  0.50000221442E+02 0.  0.
        -12    1    1    2    0    0  0.16554019871E+02 -0.16355940722E+02  0.21798175415E+02  0.31885934551E+02  0.00000000000E+00 0.  1.
         11    1    3    3    0    0 -0.64625334678E+01  0.61490182191E+01 -0.14508624818E+02  0.17031587074E+02  0.51100000000E-03 0. -1.
        -11    1    3    3    0    0 -0.30156373857E+01  0.18892551765E+02 -0.18363017976E+02  0.26518352334E+02  0.51100000000E-03 0.  1.
        -12    1    3    3    0    0 -0.70758490178E+01 -0.86856292629E+01  0.11073467379E+02  0.15752126041E+02  0.00000000000E+00 0.  1.
</event>
<event>
 7    1  0.3802554E-013  0.5930198E+02  0.7816164E-02  0.1266605E+00
        -11   -1    0    0    0    0  0.00000000000E+00  0.00000000000E+00  0.45593999997E+02  0.45594000000E+02  0.51100000000E-03 0. -1.
         11   -1    0    0    0    0 -0.00000000000E+00 -0.00000000000E+00 -0.45593999997E+02  0.45594000000E+02  0.51100000000E-03 0.  1.
    9900012    2    1    2    0    0  0.10775730847E+02 -0.13638029695E+02  0.26732118228E+02  0.59301978389E+02  0.50000062666E+02 0.  0.
        -12    1    1    2    0    0 -0.10775730847E+02  0.13638029695E+02 -0.26732118228E+02  0.31886021611E+02  0.00000000000E+00 0.  1.
         11    1    3    3    0    0  0.79428648254E+01 -0.23926679808E+02  0.22937020002E+02  0.34083456325E+02  0.51100000000E-03 0. -1.
        -11    1    3    3    0    0  0.39329708241E+00  0.17387263660E+01  0.12588124910E+02  0.12713722547E+02  0.51100000000E-03 0.  1.
        -12    1    3    3    0    0  0.24395689394E+01  0.85499237467E+01 -0.87930266842E+01  0.12504799517E+02  0.00000000000E+00 0.  1.
</event>
<event>
 7    1  0.3802554E-013  0.5930199E+02  0.7816164E-02  0.1266605E+00
        -11   -1    0    0    0    0  0.00000000000E+00  0.00000000000E+00  0.45593999997E+02  0.45594000000E+02  0.51100000000E-03 0. -1.
         11   -1    0    0    0    0 -0.00000000000E+00 -0.00000000000E+00 -0.45593999997E+02  0.45594000000E+02  0.51100000000E-03 0.  1.
    9900012    2    1    2    0    0  0.20254249742E+02  0.18842298465E+02  0.15857205006E+02  0.59301987476E+02  0.50000079239E+02 0.  0.
        -12    1    1    2    0    0 -0.20254249742E+02 -0.18842298465E+02 -0.15857205006E+02  0.31886012524E+02  0.00000000000E+00 0.  1.
         11    1    3    3    0    0  0.13406358348E+02  0.24724013314E+02  0.50727315717E+01  0.28578661346E+02  0.51100000000E-03 0. -1.
        -11    1    3    3    0    0  0.10521253608E+02  0.54371040186E+01  0.14057643933E+02  0.18381409924E+02  0.51100000000E-03 0.  1.
        -12    1    3    3    0    0 -0.36733622135E+01 -0.11318818868E+02 -0.32731704979E+01  0.12341916205E+02  0.00000000000E+00 0.  1.
</event>
<event>
 7    1  0.3802554E-013  0.5930195E+02  0.7816164E-02  0.1266605E+00
        -11   -1    0    0    0    0  0.00000000000E+00  0.00000000000E+00  0.45593999997E+02  0.45594000000E+02  0.51100000000E-03 0.  1.
         11   -1    0    0    0    0 -0.00000000000E+00 -0.00000000000E+00 -0.45593999997E+02  0.45594000000E+02  0.51100000000E-03 0. -1.
    9900012    2    1    2    0    0 -0.30969288043E+02 -0.67901022262E+01 -0.33937948533E+01  0.59301950799E+02  0.50000012349E+02 0.  0.
        -12    1    1    2    0    0  0.30969288043E+02  0.67901022262E+01  0.33937948533E+01  0.31886049201E+02  0.00000000000E+00 0.  1.
         11    1    3    3    0    0 -0.24995747945E+02 -0.12571844581E+02 -0.13017729874E+02  0.30859358108E+02  0.51100000000E-03 0. -1.
        -11    1    3    3    0    0 -0.75123383705E+01 -0.89888871616E+01  0.59740347036E+01  0.13150072665E+02  0.51100000000E-03 0.  1.
         12    1    3    3    0    0  0.15387982723E+01  0.14770629516E+02  0.36499003168E+01  0.15292520026E+02  0.00000000000E+00 0. -1.
</event>
<event>
 7    1  0.3802554E-013  0.5930194E+02  0.7816164E-02  0.1266605E+00
        -11   -1    0    0    0    0  0.00000000000E+00  0.00000000000E+00  0.45593999997E+02  0.45594000000E+02  0.51100000000E-03 0.  1.
         11   -1    0    0    0    0 -0.00000000000E+00 -0.00000000000E+00 -0.45593999997E+02  0.45594000000E+02  0.51100000000E-03 0. -1.
    9900012    2    1    2    0    0  0.16247704326E+00  0.51974017856E+01 -0.31459201084E+02  0.59301941652E+02  0.49999995667E+02 0.  0.
        -12    1    1    2    0    0 -0.16247704326E+00 -0.51974017856E+01  0.31459201084E+02  0.31886058348E+02  0.00000000000E+00 0.  1.
         11    1    3    3    0    0  0.14844990302E+02  0.28434937450E+01 -0.13541871414E+02  0.20293877781E+02  0.51100000000E-03 0. -1.
        -11    1    3    3    0    0  0.59102155157E+01 -0.82500539376E+01 -0.74832332367E+00  0.10176149835E+02  0.51100000000E-03 0.  1.
         12    1    3    3    0    0 -0.20592728774E+02  0.10603961978E+02 -0.17169006347E+02  0.28831914036E+02  0.00000000000E+00 0. -1.
</event>
<event>
 7    1  0.3802554E-013  0.5930194E+02  0.7816164E-02  0.1266605E+00
        -11   -1    0    0    0    0  0.00000000000E+00  0.00000000000E+00  0.45593999997E+02  0.45594000000E+02  0.51100000000E-03 0.  1.
         11   -1    0    0    0    0 -0.00000000000E+00 -0.00000000000E+00 -0.45593999997E+02  0.45594000000E+02  0.51100000000E-03 0. -1.
    9900012    2    1    2    0    0 -0.20204071708E+02  0.42890844756E+01 -0.24292392912E+02  0.59301935448E+02  0.49999984353E+02 0.  0.
        -12    1    1    2    0    0  0.20204071708E+02 -0.42890844756E+01  0.24292392912E+02  0.31886064552E+02  0.00000000000E+00 0.  1.
         11    1    3    3    0    0 -0.74901075224E+00  0.75889585401E+01 -0.11402147680E+02  0.13717225696E+02  0.51100000000E-03 0. -1.
        -11    1    3    3    0    0 -0.43949012527E+01  0.80302834978E+00  0.13888199093E+02  0.14589108467E+02  0.51100000000E-03 0.  1.
         12    1    3    3    0    0 -0.15060159703E+02 -0.41029024143E+01 -0.26778444326E+02  0.30995601285E+02  0.00000000000E+00 0. -1.
</event>
<event>
 7    1  0.3802554E-013  0.5930197E+02  0.7816164E-02  0.1266605E+00
        -11   -1    0    0    0    0  0.00000000000E+00  0.00000000000E+00  0.45593999997E+02  0.45594000000E+02  0.51100000000E-03 0. -1.
         11   -1    0    0    0    0 -0.00000000000E+00 -0.00000000000E+00 -0.45593999997E+02  0.45594000000E+02  0.51100000000E-03 0.  1.
    9900012    2    1    2    0    0  0.66464422122E+01  0.61285990440E+01  0.30577505502E+02  0.59301972291E+02  0.50000051545E+02 0.  0.
        -12    1    1    2    0    0 -0.66464422122E+01 -0.61285990440E+01 -0.30577505502E+02  0.31886027709E+02  0.00000000000E+00 0.  1.
         11    1    3    3    0    0  0.32392039729E+01  0.33223105332E+01  0.66311703026E+00  0.46872074963E+01  0.51100000000E-03 0. -1.
        -11    1    3    3    0    0  0.56289354309E+01 -0.19273936942E+02  0.39588224567E+01  0.20465625689E+02  0.51100000000E-03 0.  1.
         12    1    3    3    0    0 -0.22216971915E+01  0.22080225453E+02  0.25955566015E+02  0.34149139106E+02  0.00000000000E+00 0. -1.
</event>
<event>
 7    1  0.3802554E-013  0.5930198E+02  0.7816164E-02  0.1266605E+00
        -11   -1    0    0    0    0  0.00000000000E+00  0.00000000000E+00  0.45593999997E+02  0.45594000000E+02  0.51100000000E-03 0.  1.
         11   -1    0    0    0    0 -0.00000000000E+00 -0.00000000000E+00 -0.45593999997E+02  0.45594000000E+02  0.51100000000E-03 0. -1.
    9900012    2    1    2    0    0  0.38341168106E+01 -0.28018775207E+02 -0.14729767819E+02  0.59301979932E+02  0.50000065480E+02 0.  0.
        -12    1    1    2    0    0 -0.38341168106E+01  0.28018775207E+02  0.14729767819E+02  0.31886020068E+02  0.00000000000E+00 0.  1.
         11    1    3    3    0    0  0.63161887857E+01 -0.23644935078E+01 -0.14375123499E+02  0.15878578217E+02  0.51100000000E-03 0. -1.
        -11    1    3    3    0    0  0.14321932612E+02 -0.28709958796E+01 -0.32554372429E+01  0.14965234478E+02  0.51100000000E-03 0.  1.
        -12    1    3    3    0    0 -0.16804004587E+02 -0.22783285819E+02  0.29007929226E+01  0.28458167237E+02  0.00000000000E+00 0.  1.
</event>
<event>
 7    1  0.3802554E-013  0.5930194E+02  0.7816164E-02  0.1266605E+00
        -11   -1    0    0    0    0  0.00000000000E+00  0.00000000000E+00  0.45593999997E+02  0.45594000000E+02  0.51100000000E-03 0.  1.
         11   -1    0    0    0    0 -0.00000000000E+00 -0.00000000000E+00 -0.45593999997E+02  0.45594000000E+02  0.51100000000E-03 0. -1.
    9900012    2    1    2    0    0 -0.20302555078E+02  0.17387786703E+02  0.17383672495E+02  0.59301938177E+02  0.49999989331E+02 0.  0.
        -12    1    1    2    0    0  0.20302555078E+02 -0.17387786703E+02 -0.17383672495E+02  0.31886061823E+02  0.00000000000E+00 0.  1.
         11    1    3    3    0    0 -0.12289810123E+01  0.13598649807E+02  0.10050060436E+02  0.16953978469E+02  0.51100000000E-03 0.  1.
        -11    1    3    3    0    0  0.53158756824E+01  0.14077977852E+02  0.46041009644E+01  0.15736763982E+02  0.51100000000E-03 0. -1.
        -12    1    3    3    0    0 -0.24389449748E+02 -0.10288840955E+02  0.27295110954E+01  0.26611195727E+02  0.00000000000E+00 0.  1.
</event>
<event>
 7    1  0.3802554E-013  0.5930201E+02  0.7816164E-02  0.1266605E+00
        -11   -1    0    0    0    0  0.00000000000E+00  0.00000000000E+00  0.45593999997E+02  0.45594000000E+02  0.51100000000E-03 0.  1.
         11   -1    0    0    0    0 -0.00000000000E+00 -0.00000000000E+00 -0.45593999997E+02  0.45594000000E+02  0.51100000000E-03 0. -1.
    9900012    2    1    2    0    0  0.20060625455E+02 -0.21492724909E+02 -0.12343019184E+02  0.59302014987E+02  0.50000129413E+02 0.  0.
        -12    1    1    2    0    0 -0.20060625455E+02  0.21492724909E+02  0.12343019184E+02  0.31885985013E+02  0.00000000000E+00 0.  1.
         11    1    3    3    0    0  0.32763493967E+01 -0.59865561295E+01 -0.11995841333E+02  0.13801214773E+02  0.51100000000E-03 0. -1.
        -11    1    3    3    0    0  0.99664300761E+01 -0.28524460102E+02 -0.36604444008E+01  0.30436382933E+02  0.51100000000E-03 0.  1.
         12    1    3    3    0    0  0.68178459822E+01  0.13018291323E+02  0.33132665491E+01  0.15064417281E+02  0.00000000000E+00 0. -1.
</event>
<event>
 7    1  0.3802554E-013  0.5930195E+02  0.7816164E-02  0.1266605E+00
        -11   -1    0    0    0    0  0.00000000000E+00  0.00000000000E+00  0.45593999997E+02  0.45594000000E+02  0.51100000000E-03 0.  1.
         11   -1    0    0    0    0 -0.00000000000E+00 -0.00000000000E+00 -0.45593999997E+02  0.45594000000E+02  0.51100000000E-03 0. -1.
    9900012    2    1    2    0    0  0.13485514973E+02 -0.16411424309E+02 -0.23780790162E+02  0.59301953793E+02  0.50000017810E+02 0.  0.
        -12    1    1    2    0    0 -0.13485514973E+02  0.16411424309E+02  0.23780790162E+02  0.31886046207E+02  0.00000000000E+00 0.  1.
         11    1    3    3    0    0 -0.59675812399E+01  0.18887023870E+01  0.90549520261E+00  0.63244876776E+01  0.51100000000E-03 0. -1.
        -11    1    3    3    0    0 -0.10891305338E+02 -0.87822219211E+01 -0.25290402302E+01  0.14217735353E+02  0.51100000000E-03 0.  1.
         12    1    3    3    0    0  0.30344401551E+02 -0.95179047752E+01 -0.22157245135E+02  0.38759730762E+02  0.00000000000E+00 0. -1.
</event>
<event>
 7    1  0.3802554E-013  0.5930201E+02  0.7816164E-02  0.1266605E+00
        -11   -1    0    0    0    0  0.00000000000E+00  0.00000000000E+00  0.45593999997E+02  0.45594000000E+02  0.51100000000E-03 0.  1.
         11   -1    0    0    0    0 -0.00000000000E+00 -0.00000000000E+00 -0.45593999997E+02  0.45594000000E+02  0.51100000000E-03 0. -1.
    9900012    2    1    2    0    0  0.60457798601E+01  0.27716245157E+02 -0.14559360185E+02  0.59302005132E+02  0.50000111439E+02 0.  0.
        -12    1    1    2    0    0 -0.60457798601E+01 -0.27716245157E+02  0.14559360185E+02  0.31885994868E+02  0.00000000000E+00 0.  1.
         11    1    3    3    0    0 -0.75063305149E+01 -0.59966026635E+01 -0.13300168892E+02  0.16407276865E+02  0.51100000000E-03 0. -1.
        -11    1    3    3    0    0 -0.63445361584E+01  0.63643044013E+01  0.72829567790E+00  0.90159816122E+01  0.51100000000E-03 0.  1.
        -12    1    3    3    0    0  0.19896646533E+02  0.27348543419E+02 -0.19874869713E+01  0.33878746655E+02  0.00000000000E+00 0.  1.
</event>
<event>
 7    1  0.3802554E-013  0.5930195E+02  0.7816164E-02  0.1266605E+00
        -11   -1    0    0    0    0  0.00000000000E+00  0.00000000000E+00  0.45593999997E+02  0.45594000000E+02  0.51100000000E-03 0. -1.
         11   -1    0    0    0    0 -0.00000000000E+00 -0.00000000000E+00 -0.45593999997E+02  0.45594000000E+02  0.51100000000E-03 0.  1.
    9900012    2    1    2    0    0  0.31398993342E+02 -0.70636802582E+00  0.55067869513E+01  0.59301945976E+02  0.50000003553E+02 0.  0.
        -12    1    1    2    0    0 -0.31398993342E+02  0.70636802582E+00 -0.55067869513E+01  0.31886054024E+02  0.00000000000E+00 0.  1.
         11    1    3    3    0    0  0.88610767004E+01  0.15987166820E+02  0.98788556917E+01  0.20777390916E+02  0.51100000000E-03 0. -1.
        -11    1    3    3    0    0  0.27339244445E+01 -0.92695821460E+00  0.93118076670E+01  0.97490182422E+01  0.51100000000E-03 0.  1.
        -12    1    3    3    0    0  0.19803992198E+02 -0.15766576631E+02 -0.13683876407E+02  0.28775536818E+02  0.00000000000E+00 0.  1.
</event>
<event>
 7    1  0.3802554E-013  0.5930193E+02  0.7816164E-02  0.1266605E+00
        -11   -1    0    0    0    0  0.00000000000E+00  0.00000000000E+00  0.45593999997E+02  0.45594000000E+02  0.51100000000E-03 0.  1.
         11   -1    0    0    0    0 -0.00000000000E+00 -0.00000000000E+00 -0.45593999997E+02  0.45594000000E+02  0.51100000000E-03 0. -1.
    9900012    2    1    2    0    0 -0.28372352591E+02 -0.50944787970E+00 -0.14542059613E+02  0.59301930526E+02  0.49999975377E+02 0.  0.
        -12    1    1    2    0    0  0.28372352591E+02  0.50944787970E+00  0.14542059613E+02  0.31886069474E+02  0.00000000000E+00 0.  1.
         11    1    3    3    0    0 -0.12757839182E+02 -0.49702256051E+00 -0.28429957239E+02  0.31165236417E+02  0.51100000000E-03 0. -1.
        -11    1    3    3    0    0 -0.11293238045E+02 -0.43750823205E+01 -0.88001778143E+00  0.12143022787E+02  0.51100000000E-03 0.  1.
        -12    1    3    3    0    0 -0.43212753642E+01  0.43626570013E+01  0.14767915408E+02  0.15993671323E+02  0.00000000000E+00 0.  1.
</event>
<event>
 7    1  0.3802554E-013  0.5930195E+02  0.7816164E-02  0.1266605E+00
        -11   -1    0    0    0    0  0.00000000000E+00  0.00000000000E+00  0.45593999997E+02  0.45594000000E+02  0.51100000000E-03 0. -1.
         11   -1    0    0    0    0 -0.00000000000E+00 -0.00000000000E+00 -0.45593999997E+02  0.45594000000E+02  0.51100000000E-03 0.  1.
    9900012    2    1    2    0    0  0.92054409860E+01  0.28721877676E+02  0.10345716152E+02  0.59301949074E+02  0.50000009204E+02 0.  0.
        -12    1    1    2    0    0 -0.92054409860E+01 -0.28721877676E+02 -0.10345716152E+02  0.31886050926E+02  0.00000000000E+00 0.  1.
         11    1    3    3    0    0  0.12129425607E+02  0.17620460645E+02  0.14254238462E+02  0.25705775874E+02  0.51100000000E-03 0. -1.
        -11    1    3    3    0    0  0.12880002760E+02  0.59032189703E+01 -0.82590462382E+01  0.16399826534E+02  0.51100000000E-03 0.  1.
         12    1    3    3    0    0 -0.15803987381E+02  0.51981980604E+01  0.43505239274E+01  0.17196346666E+02  0.00000000000E+00 0. -1.
</event>
<event>
 7    1  0.3802554E-013  0.5930197E+02  0.7816164E-02  0.1266605E+00
        -11   -1    0    0    0    0  0.00000000000E+00  0.00000000000E+00  0.45593999997E+02  0.45594000000E+02  0.51100000000E-03 0. -1.
         11   -1    0    0    0    0 -0.00000000000E+00 -0.00000000000E+00 -0.45593999997E+02  0.45594000000E+02  0.51100000000E-03 0.  1.
    9900012    2    1    2    0    0 -0.25285791570E+02 -0.58159143927E+01  0.18534369293E+02  0.59301969193E+02  0.50000045895E+02 0.  0.
        -12    1    1    2    0    0  0.25285791570E+02  0.58159143927E+01 -0.18534369293E+02  0.31886030807E+02  0.00000000000E+00 0.  1.
         11    1    3    3    0    0 -0.18681033168E+02  0.97617638378E+01  0.13129010750E+02  0.24832316787E+02  0.51100000000E-03 0. -1.
        -11    1    3    3    0    0  0.29121400962E-01  0.81039001191E+01 -0.27526347634E+01  0.85586823518E+01  0.51100000000E-03 0.  1.
         12    1    3    3    0    0 -0.66338798027E+01 -0.23681578350E+02  0.81579933063E+01  0.25910970054E+02  0.00000000000E+00 0. -1.
</event>
<event>
 7    1  0.3802554E-013  0.5930188E+02  0.7816164E-02  0.1266605E+00
        -11   -1    0    0    0    0  0.00000000000E+00  0.00000000000E+00  0.45593999997E+02  0.45594000000E+02  0.51100000000E-03 0. -1.
         11   -1    0    0    0    0 -0.00000000000E+00 -0.00000000000E+00 -0.45593999997E+02  0.45594000000E+02  0.51100000000E-03 0.  1.
    9900012    2    1    2    0    0 -0.13284891172E+02  0.11215820250E+02  0.26729038470E+02  0.59301883039E+02  0.49999888771E+02 0.  0.
        -12    1    1    2    0    0  0.13284891172E+02 -0.11215820250E+02 -0.26729038470E+02  0.31886116961E+02  0.00000000000E+00 0.  1.
         11    1    3    3    0    0 -0.60912110509E+01  0.18287318083E+02  0.17612826901E+02  0.26110161364E+02  0.51100000000E-03 0. -1.
        -11    1    3    3    0    0  0.86867074914E+01  0.13070823360E+01 -0.52172977420E+01  0.10217022427E+02  0.51100000000E-03 0.  1.
         12    1    3    3    0    0 -0.15880387613E+02 -0.83785801693E+01  0.14333509311E+02  0.22974699248E+02  0.00000000000E+00 0. -1.
</event>
<event>
 7    1  0.3802554E-013  0.5930191E+02  0.7816164E-02  0.1266605E+00
        -11   -1    0    0    0    0  0.00000000000E+00  0.00000000000E+00  0.45593999997E+02  0.45594000000E+02  0.51100000000E-03 0. -1.
         11   -1    0    0    0    0 -0.00000000000E+00 -0.00000000000E+00 -0.45593999997E+02  0.45594000000E+02  0.51100000000E-03 0.  1.
    9900012    2    1    2    0    0 -0.28520174879E+02 -0.87544479008E+01 -0.11255310086E+02  0.59301909956E+02  0.49999937862E+02 0.  0.
        -12    1    1    2    0    0  0.28520174879E+02  0.87544479008E+01  0.11255310086E+02  0.31886090044E+02  0.00000000000E+00 0.  1.
         11    1    3    3    0    0 -0.34881478761E+00  0.14294753686E+00  0.15262960219E+02  0.15267614766E+02  0.51100000000E-03 0. -1.
        -11    1    3    3    0    0 -0.50135345971E+00 -0.26019609348E+01 -0.11748358647E+02  0.12043483182E+02  0.51100000000E-03 0.  1.
        -12    1    3    3    0    0 -0.27670006631E+02 -0.62954345028E+01 -0.14769911657E+02  0.31990812008E+02  0.00000000000E+00 0.  1.
</event>
<event>
 7    1  0.3802554E-013  0.5930195E+02  0.7816164E-02  0.1266605E+00
        -11   -1    0    0    0    0  0.00000000000E+00  0.00000000000E+00  0.45593999997E+02  0.45594000000E+02  0.51100000000E-03 0.  1.
         11   -1    0    0    0    0 -0.00000000000E+00 -0.00000000000E+00 -0.45593999997E+02  0.45594000000E+02  0.51100000000E-03 0. -1.
    9900012    2    1    2    0    0  0.29137509061E+02  0.17270223947E+01  0.12835234351E+02  0.59301948481E+02  0.50000008122E+02 0.  0.
        -12    1    1    2    0    0 -0.29137509061E+02 -0.17270223947E+01 -0.12835234351E+02  0.31886051519E+02  0.00000000000E+00 0.  1.
         11    1    3    3    0    0  0.63393932599E+01  0.83181544928E+01  0.12726460249E+02  0.16472473761E+02  0.51100000000E-03 0. -1.
        -11    1    3    3    0    0  0.24488906214E+02 -0.12335886381E+02  0.11676941177E+02  0.29803214187E+02  0.51100000000E-03 0.  1.
         12    1    3    3    0    0 -0.16907904128E+01  0.57447542834E+01 -0.11568167075E+02  0.13026260533E+02  0.00000000000E+00 0. -1.
</event>
<event>
 7    1  0.3802554E-013  0.5930195E+02  0.7816164E-02  0.1266605E+00
        -11   -1    0    0    0    0  0.00000000000E+00  0.00000000000E+00  0.45593999997E+02  0.45594000000E+02  0.51100000000E-03 0. -1.
         11   -1    0    0    0    0 -0.00000000000E+00 -0.00000000000E+00 -0.45593999997E+02  0.45594000000E+02  0.51100000000E-03 0.  1.
    9900012    2    1    2    0    0  0.86484309948E+01 -0.60845411912E+01  0.30081610313E+02  0.59301948516E+02  0.50000008186E+02 0.  0.
        -12    1    1    2    0    0 -0.86484309948E+01  0.60845411912E+01 -0.30081610313E+02  0.31886051484E+02  0.00000000000E+00 0.  1.
         11    1    3    3    0    0  0.17203895310E+02 -0.43399804992E+00  0.29017584394E+02  0.33736961518E+02  0.51100000000E-03 0. -1.
        -11    1    3    3    0    0 -0.49978279549E+01 -0.31438641112E+01  0.12230096709E+02  0.13580774337E+02  0.51100000000E-03 0.  1.
        -12    1    3    3    0    0 -0.35576363602E+01 -0.25066790301E+01 -0.11166070790E+02  0.11984212661E+02  0.00000000000E+00 0.  1.
</event>
<event>
 7    1  0.3802554E-013  0.5930195E+02  0.7816164E-02  0.1266605E+00
        -11   -1    0    0    0    0  0.00000000000E+00  0.00000000000E+00  0.45593999997E+02  0.45594000000E+02  0.51100000000E-03 0.  1.
         11   -1    0    0    0    0 -0.00000000000E+00 -0.00000000000E+00 -0.45593999997E+02  0.45594000000E+02  0.51100000000E-03 0. -1.
    9900012    2    1    2    0    0  0.13170638050E+02 -0.25713483544E+02 -0.13493388929E+02  0.59301945252E+02  0.50000002232E+02 0.  0.
        -12    1    1    2    0    0 -0.13170638050E+02  0.25713483544E+02  0.13493388929E+02  0.31886054748E+02  0.00000000000E+00 0.  1.
         11    1    3    3    0    0  0.14750680807E+02 -0.82125783625E+01 -0.14408937689E+02  0.22195641762E+02  0.51100000000E-03 0. -1.
        -11    1    3    3    0    0  0.65691759610E+01  0.68959090720E+01 -0.49361346369E+01  0.10727211201E+02  0.51100000000E-03 0.  1.
        -12    1    3    3    0    0 -0.81492187178E+01 -0.24396814253E+02  0.58516833965E+01  0.26379092289E+02  0.00000000000E+00 0.  1.
</event>
<event>
 7    1  0.3802554E-013  0.5930205E+02  0.7816164E-02  0.1266604E+00
        -11   -1    0    0    0    0  0.00000000000E+00  0.00000000000E+00  0.45593999997E+02  0.45594000000E+02  0.51100000000E-03 0. -1.
         11   -1    0    0    0    0 -0.00000000000E+00 -0.00000000000E+00 -0.45593999997E+02  0.45594000000E+02  0.51100000000E-03 0.  1.
    9900012    2    1    2    0    0  0.36353498244E+00 -0.71905420407E+00  0.31875772242E+02  0.59302046154E+02  0.50000186254E+02 0.  0.
        -12    1    1    2    0    0 -0.36353498244E+00  0.71905420407E+00 -0.31875772242E+02  0.31885953846E+02  0.00000000000E+00 0.  1.
         11    1    3    3    0    0  0.52280577051E+01 -0.10271789224E+02  0.20050854321E+02  0.23127451232E+02  0.51100000000E-03 0. -1.
        -11    1    3    3    0    0  0.12034658795E+02  0.84295260154E+00 -0.25616593801E+01  0.12333113169E+02  0.51100000000E-03 0.  1.
         12    1    3    3    0    0 -0.16899181517E+02  0.87097824187E+01  0.14386577301E+02  0.23841481753E+02  0.00000000000E+00 0. -1.
</event>
<event>
 7    1  0.3802554E-013  0.5930199E+02  0.7816164E-02  0.1266605E+00
        -11   -1    0    0    0    0  0.00000000000E+00  0.00000000000E+00  0.45593999997E+02  0.45594000000E+02  0.51100000000E-03 0.  1.
         11   -1    0    0    0    0 -0.00000000000E+00 -0.00000000000E+00 -0.45593999997E+02  0.45594000000E+02  0.51100000000E-03 0. -1.
    9900012    2    1    2    0    0 -0.13324136033E+02 -0.78659111524E+01 -0.27880319044E+02  0.59301994461E+02  0.50000091978E+02 0.  0.
        -12    1    1    2    0    0  0.13324136033E+02  0.78659111524E+01  0.27880319044E+02  0.31886005539E+02  0.00000000000E+00 0.  1.
         11    1    3    3    0    0 -0.10094469099E+01 -0.14650850973E+02 -0.49297684381E+01  0.15490933942E+02  0.51100000000E-03 0. -1.
        -11    1    3    3    0    0 -0.41444709181E+01 -0.26345743584E+01  0.85902565747E+01  0.98949547508E+01  0.51100000000E-03 0.  1.
        -12    1    3    3    0    0 -0.81702182046E+01  0.94195141786E+01 -0.31540807180E+02  0.33916105768E+02  0.00000000000E+00 0.  1.
</event>
<event>
 7    1  0.3802554E-013  0.5930194E+02  0.7816164E-02  0.1266605E+00
        -11   -1    0    0    0    0  0.00000000000E+00  0.00000000000E+00  0.45593999997E+02  0.45594000000E+02  0.51100000000E-03 0. -1.
         11   -1    0    0    0    0 -0.00000000000E+00 -0.00000000000E+00 -0.45593999997E+02  0.45594000000E+02  0.51100000000E-03 0.  1.
    9900012    2    1    2    0    0 -0.17052399174E+02 -0.25375226850E+02  0.90572967391E+01  0.59301935967E+02  0.49999985300E+02 0.  0.
        -12    1    1    2    0    0  0.17052399174E+02  0.25375226850E+02 -0.90572967391E+01  0.31886064033E+02  0.00000000000E+00 0.  1.
         11    1    3    3    0    0 -0.99443752134E+01 -0.19396447372E+02  0.20460767662E+01  0.21892902947E+02  0.51100000000E-03 0. -1.
        -11    1    3    3    0    0  0.83787643377E+01 -0.12854170477E+02 -0.55497241283E+01  0.16316642689E+02  0.51100000000E-03 0.  1.
        -12    1    3    3    0    0 -0.15486788299E+02  0.68753909994E+01  0.12560944101E+02  0.21092390332E+02  0.00000000000E+00 0.  1.
</event>
<event>
 7    1  0.3802554E-013  0.5930193E+02  0.7816164E-02  0.1266605E+00
        -11   -1    0    0    0    0  0.00000000000E+00  0.00000000000E+00  0.45593999997E+02  0.45594000000E+02  0.51100000000E-03 0.  1.
         11   -1    0    0    0    0 -0.00000000000E+00 -0.00000000000E+00 -0.45593999997E+02  0.45594000000E+02  0.51100000000E-03 0. -1.
    9900012    2    1    2    0    0  0.13223849643E+02 -0.28532467131E+02 -0.52677813878E+01  0.59301930930E+02  0.49999976113E+02 0.  0.
        -12    1    1    2    0    0 -0.13223849643E+02  0.28532467131E+02  0.52677813878E+01  0.31886069070E+02  0.00000000000E+00 0.  1.
         11    1    3    3    0    0  0.84367981536E+01 -0.13181590561E+02  0.89045168485E+00  0.15675675337E+02  0.51100000000E-03 0. -1.
        -11    1    3    3    0    0 -0.12674109012E+02 -0.15318365982E+02 -0.14170127151E+02  0.24414706210E+02  0.51100000000E-03 0.  1.
         12    1    3    3    0    0  0.17461160501E+02 -0.32510588676E-01  0.80118940785E+01  0.19211549383E+02  0.00000000000E+00 0. -1.
</event>
<event>
 7    1  0.3802554E-013  0.5930194E+02  0.7816164E-02  0.1266605E+00
        -11   -1    0    0    0    0  0.00000000000E+00  0.00000000000E+00  0.45593999997E+02  0.45594000000E+02  0.51100000000E-03 0. -1.
         11   -1    0    0    0    0 -0.00000000000E+00 -0.00000000000E+00 -0.45593999997E+02  0.45594000000E+02  0.51100000000E-03 0.  1.
    9900012    2    1    2    0    0 -0.21992759719E+02 -0.22956124567E+02 -0.24607718606E+01  0.59301944532E+02  0.50000000919E+02 0.  0.
        -12    1    1    2    0    0  0.21992759719E+02  0.22956124567E+02  0.24607718606E+01  0.31886055468E+02  0.00000000000E+00 0.  1.
         11    1    3    3    0    0 -0.15025162534E+02 -0.26512318539E+02 -0.10080143334E+02  0.32097785490E+02  0.51100000000E-03 0. -1.
        -11    1    3    3    0    0 -0.11711470981E+02 -0.46382402983E+01  0.11418781772E+02  0.17001776466E+02  0.51100000000E-03 0.  1.
        -12    1    3    3    0    0  0.47438737960E+01  0.81944342703E+01 -0.37994102986E+01  0.10202382576E+02  0.00000000000E+00 0.  1.
</event>
<event>
 7    1  0.3802554E-013  0.5930192E+02  0.7816164E-02  0.1266605E+00
        -11   -1    0    0    0    0  0.00000000000E+00  0.00000000000E+00  0.45593999997E+02  0.45594000000E+02  0.51100000000E-03 0. -1.
         11   -1    0    0    0    0 -0.00000000000E+00 -0.00000000000E+00 -0.45593999997E+02  0.45594000000E+02  0.51100000000E-03 0.  1.
    9900012    2    1    2    0    0  0.16705414718E+02  0.22875674642E+02  0.14640858807E+02  0.59301919685E+02  0.49999955605E+02 0.  0.
        -12    1    1    2    0    0 -0.16705414718E+02 -0.22875674642E+02 -0.14640858807E+02  0.31886080315E+02  0.00000000000E+00 0.  1.
         11    1    3    3    0    0  0.12615361184E+01  0.17625594073E+02 -0.95730620033E+01  0.20097177817E+02  0.51100000000E-03 0. -1.
        -11    1    3    3    0    0  0.23907796955E+01  0.40097681066E+01 -0.52075761975E+01  0.69937770864E+01  0.51100000000E-03 0.  1.
        -12    1    3    3    0    0  0.13053098904E+02  0.12403124625E+01  0.29421497008E+02  0.32210964782E+02  0.00000000000E+00 0.  1.
</event>
<event>
 7    1  0.3802554E-013  0.5930200E+02  0.7816164E-02  0.1266605E+00
        -11   -1    0    0    0    0  0.00000000000E+00  0.00000000000E+00  0.45593999997E+02  0.45594000000E+02  0.51100000000E-03 0.  1.
         11   -1    0    0    0    0 -0.00000000000E+00 -0.00000000000E+00 -0.45593999997E+02  0.45594000000E+02  0.51100000000E-03 0. -1.
    9900012    2    1    2    0    0  0.58897261158E+01  0.30135976863E+02 -0.85936520073E+01  0.59302002602E+02  0.50000106826E+02 0.  0.
        -12    1    1    2    0    0 -0.58897261158E+01 -0.30135976863E+02  0.85936520073E+01  0.31885997398E+02  0.00000000000E+00 0.  1.
         11    1    3    3    0    0  0.24420014202E+01  0.32581003642E+02  0.10547838903E+02  0.34332813387E+02  0.51100000000E-03 0.  1.
        -11    1    3    3    0    0  0.34235507700E+00  0.45837288971E+01 -0.28292470908E+00  0.46051953545E+01  0.51100000000E-03 0. -1.
        -12    1    3    3    0    0  0.31053696185E+01 -0.70287556758E+01 -0.18858566201E+02  0.20363993861E+02  0.00000000000E+00 0.  1.
</event>
<event>
 7    1  0.3802554E-013  0.5930195E+02  0.7816164E-02  0.1266605E+00
        -11   -1    0    0    0    0  0.00000000000E+00  0.00000000000E+00  0.45593999997E+02  0.45594000000E+02  0.51100000000E-03 0. -1.
         11   -1    0    0    0    0 -0.00000000000E+00 -0.00000000000E+00 -0.45593999997E+02  0.45594000000E+02  0.51100000000E-03 0.  1.
    9900012    2    1    2    0    0 -0.37998111936E+00 -0.12039324778E+02  0.29523391532E+02  0.59301947025E+02  0.50000005466E+02 0.  0.
        -12    1    1    2    0    0  0.37998111936E+00  0.12039324778E+02 -0.29523391532E+02  0.31886052975E+02  0.00000000000E+00 0.  1.
         11    1    3    3    0    0 -0.18404762511E+01 -0.60851588519E+01  0.15273228307E+01  0.65382892544E+01  0.51100000000E-03 0.  1.
        -11    1    3    3    0    0  0.11073330031E+02  0.93369430922E+01  0.31220129556E+02  0.34416473294E+02  0.51100000000E-03 0. -1.
         12    1    3    3    0    0 -0.96128348988E+01 -0.15291109018E+02 -0.32240608543E+01  0.18347184476E+02  0.00000000000E+00 0. -1.
</event>
<event>
 7    1  0.3802554E-013  0.5930192E+02  0.7816164E-02  0.1266605E+00
        -11   -1    0    0    0    0  0.00000000000E+00  0.00000000000E+00  0.45593999997E+02  0.45594000000E+02  0.51100000000E-03 0. -1.
         11   -1    0    0    0    0 -0.00000000000E+00 -0.00000000000E+00 -0.45593999997E+02  0.45594000000E+02  0.51100000000E-03 0.  1.
    9900012    2    1    2    0    0  0.22046090156E+02 -0.47480069592E+01  0.22542149563E+02  0.59301918896E+02  0.49999954165E+02 0.  0.
        -12    1    1    2    0    0 -0.22046090156E+02  0.47480069592E+01 -0.22542149563E+02  0.31886081104E+02  0.00000000000E+00 0.  1.
         11    1    3    3    0    0  0.16036594053E+02 -0.14309409973E+02  0.15393442800E+02  0.26436521029E+02  0.51100000000E-03 0. -1.
        -11    1    3    3    0    0  0.13330374560E+02  0.51768208080E+01 -0.73221173283E+01  0.16065857027E+02  0.51100000000E-03 0.  1.
        -12    1    3    3    0    0 -0.73208784576E+01  0.43845822062E+01  0.14470824091E+02  0.16799540839E+02  0.00000000000E+00 0.  1.
</event>
<event>
 7    1  0.3802554E-013  0.5930195E+02  0.7816164E-02  0.1266605E+00
        -11   -1    0    0    0    0  0.00000000000E+00  0.00000000000E+00  0.45593999997E+02  0.45594000000E+02  0.51100000000E-03 0. -1.
         11   -1    0    0    0    0 -0.00000000000E+00 -0.00000000000E+00 -0.45593999997E+02  0.45594000000E+02  0.51100000000E-03 0.  1.
    9900012    2    1    2    0    0  0.30426578791E+02  0.36886897219E+01 -0.87941426890E+01  0.59301951728E+02  0.50000014043E+02 0.  0.
        -12    1    1    2    0    0 -0.30426578791E+02 -0.36886897219E+01  0.87941426890E+01  0.31886048272E+02  0.00000000000E+00 0.  1.
         11    1    3    3    0    0  0.25457836741E+02  0.98765092698E+01 -0.30078820384E+01  0.27471698920E+02  0.51100000000E-03 0.  1.
        -11    1    3    3    0    0 -0.21779507520E+01  0.75466171124E+01  0.79185576587E+01  0.11153405533E+02  0.51100000000E-03 0. -1.
        -12    1    3    3    0    0  0.71466928014E+01 -0.13734436660E+02 -0.13704818309E+02  0.20676847276E+02  0.00000000000E+00 0.  1.
</event>
<event>
 7    1  0.3802554E-013  0.5930196E+02  0.7816164E-02  0.1266605E+00
        -11   -1    0    0    0    0  0.00000000000E+00  0.00000000000E+00  0.45593999997E+02  0.45594000000E+02  0.51100000000E-03 0.  1.
         11   -1    0    0    0    0 -0.00000000000E+00 -0.00000000000E+00 -0.45593999997E+02  0.45594000000E+02  0.51100000000E-03 0. -1.
    9900012    2    1    2    0    0 -0.12856267264E+01 -0.29841496431E+02 -0.11160277524E+02  0.59301960112E+02  0.50000029334E+02 0.  0.
        -12    1    1    2    0    0  0.12856267264E+01  0.29841496431E+02  0.11160277524E+02  0.31886039888E+02  0.00000000000E+00 0.  1.
         11    1    3    3    0    0  0.21662424664E+01 -0.32609506653E+02 -0.18311588790E+02  0.37461804746E+02  0.51100000000E-03 0. -1.
        -11    1    3    3    0    0 -0.90743225631E+01 -0.30594280416E+01 -0.18277551091E+01  0.97490573350E+01  0.51100000000E-03 0.  1.
        -12    1    3    3    0    0  0.56224533702E+01  0.58274382633E+01  0.89790663756E+01  0.12091098031E+02  0.00000000000E+00 0.  1.
</event>
<event>
 7    1  0.3802554E-013  0.5930193E+02  0.7816164E-02  0.1266605E+00
        -11   -1    0    0    0    0  0.00000000000E+00  0.00000000000E+00  0.45593999997E+02  0.45594000000E+02  0.51100000000E-03 0.  1.
         11   -1    0    0    0    0 -0.00000000000E+00 -0.00000000000E+00 -0.45593999997E+02  0.45594000000E+02  0.51100000000E-03 0. -1.
    9900012    2    1    2    0    0 -0.30947712665E+00 -0.22800585696E+02 -0.22288085275E+02  0.59301933616E+02  0.49999981012E+02 0.  0.
        -12    1    1    2    0    0  0.30947712665E+00  0.22800585696E+02  0.22288085275E+02  0.31886066384E+02  0.00000000000E+00 0.  1.
         11    1    3    3    0    0 -0.14348820796E+02 -0.11618867482E+02 -0.35117148297E+01  0.18794118258E+02  0.51100000000E-03 0. -1.
        -11    1    3    3    0    0 -0.47184507706E+01 -0.13071397147E+02  0.42689461821E-02  0.13896950008E+02  0.51100000000E-03 0.  1.
         12    1    3    3    0    0  0.18757794440E+02  0.18896789321E+01 -0.18780639392E+02  0.26610865350E+02  0.00000000000E+00 0. -1.
</event>
<event>
 7    1  0.3802554E-013  0.5930180E+02  0.7816164E-02  0.1266605E+00
        -11   -1    0    0    0    0  0.00000000000E+00  0.00000000000E+00  0.45593999997E+02  0.45594000000E+02  0.51100000000E-03 0. -1.
         11   -1    0    0    0    0 -0.00000000000E+00 -0.00000000000E+00 -0.45593999997E+02  0.45594000000E+02  0.51100000000E-03 0.  1.
    9900012    2    1    2    0    0 -0.15089710243E+02  0.12390004860E+02  0.25209491870E+02  0.59301795209E+02  0.49999728589E+02 0.  0.
        -12    1    1    2    0    0  0.15089710243E+02 -0.12390004860E+02 -0.25209491870E+02  0.31886204791E+02  0.00000000000E+00 0.  1.
         11    1    3    3    0    0 -0.26402108546E+01  0.64141749543E+00 -0.98937827303E+01  0.10260071478E+02  0.51100000000E-03 0. -1.
        -11    1    3    3    0    0  0.66370751948E+01  0.73415331440E+01  0.13124301021E+01  0.99835539304E+01  0.51100000000E-03 0.  1.
         12    1    3    3    0    0 -0.19086574583E+02  0.44070542203E+01  0.33790844499E+02  0.39058169800E+02  0.00000000000E+00 0. -1.
</event>
<event>
 7    1  0.3802554E-013  0.5930191E+02  0.7816164E-02  0.1266605E+00
        -11   -1    0    0    0    0  0.00000000000E+00  0.00000000000E+00  0.45593999997E+02  0.45594000000E+02  0.51100000000E-03 0. -1.
         11   -1    0    0    0    0 -0.00000000000E+00 -0.00000000000E+00 -0.45593999997E+02  0.45594000000E+02  0.51100000000E-03 0.  1.
    9900012    2    1    2    0    0  0.21393222482E+02  0.20210672108E+02  0.12271160003E+02  0.59301912077E+02  0.49999941729E+02 0.  0.
        -12    1    1    2    0    0 -0.21393222482E+02 -0.20210672108E+02 -0.12271160003E+02  0.31886087923E+02  0.00000000000E+00 0.  1.
         11    1    3    3    0    0 -0.61042335680E+01 -0.46322234204E+00  0.71260821307E+01  0.93945350702E+01  0.51100000000E-03 0. -1.
        -11    1    3    3    0    0  0.10985296875E+02  0.26539078816E+02  0.11950030135E+02  0.31109527035E+02  0.51100000000E-03 0.  1.
         12    1    3    3    0    0  0.16512159175E+02 -0.58651843656E+01 -0.68049522634E+01  0.18797849972E+02  0.00000000000E+00 0. -1.
</event>
<event>
 7    1  0.3802554E-013  0.5930193E+02  0.7816164E-02  0.1266605E+00
        -11   -1    0    0    0    0  0.00000000000E+00  0.00000000000E+00  0.45593999997E+02  0.45594000000E+02  0.51100000000E-03 0. -1.
         11   -1    0    0    0    0 -0.00000000000E+00 -0.00000000000E+00 -0.45593999997E+02  0.45594000000E+02  0.51100000000E-03 0.  1.
    9900012    2    1    2    0    0  0.45290152255E+00  0.27734407395E+02  0.15726373662E+02  0.59301932480E+02  0.49999978939E+02 0.  0.
        -12    1    1    2    0    0 -0.45290152255E+00 -0.27734407395E+02 -0.15726373662E+02  0.31886067520E+02  0.00000000000E+00 0.  1.
         11    1    3    3    0    0 -0.63513094624E+01 -0.67729816191E+01 -0.38790784266E+01  0.10062785976E+02  0.51100000000E-03 0. -1.
        -11    1    3    3    0    0  0.14706707332E+02  0.12223225972E+02  0.99399933912E+00  0.19148956333E+02  0.51100000000E-03 0.  1.
         12    1    3    3    0    0 -0.79024963471E+01  0.22284163043E+02  0.18611452750E+02  0.30090190170E+02  0.00000000000E+00 0. -1.
</event>
<event>
 7    1  0.3802554E-013  0.5930195E+02  0.7816164E-02  0.1266605E+00
        -11   -1    0    0    0    0  0.00000000000E+00  0.00000000000E+00  0.45593999997E+02  0.45594000000E+02  0.51100000000E-03 0. -1.
         11   -1    0    0    0    0 -0.00000000000E+00 -0.00000000000E+00 -0.45593999997E+02  0.45594000000E+02  0.51100000000E-03 0.  1.
    9900012    2    1    2    0    0  0.25414973224E+02  0.65371858065E+01  0.18112555776E+02  0.59301947579E+02  0.50000006477E+02 0.  0.
        -12    1    1    2    0    0 -0.25414973224E+02 -0.65371858065E+01 -0.18112555776E+02  0.31886052421E+02  0.00000000000E+00 0.  1.
         11    1    3    3    0    0  0.13909603803E+02  0.55112880701E+01 -0.12734832997E+00  0.14962205452E+02  0.51100000000E-03 0. -1.
        -11    1    3    3    0    0  0.17433424030E+02 -0.79674651763E+01  0.25090582854E+02  0.31574390302E+02  0.51100000000E-03 0.  1.
        -12    1    3    3    0    0 -0.59280546086E+01  0.89933629126E+01 -0.68506787478E+01  0.12765351825E+02  0.00000000000E+00 0.  1.
</event>
<event>
 7    1  0.3802554E-013  0.5930194E+02  0.7816164E-02  0.1266605E+00
        -11   -1    0    0    0    0  0.00000000000E+00  0.00000000000E+00  0.45593999997E+02  0.45594000000E+02  0.51100000000E-03 0.  1.
         11   -1    0    0    0    0 -0.00000000000E+00 -0.00000000000E+00 -0.45593999997E+02  0.45594000000E+02  0.51100000000E-03 0. -1.
    9900012    2    1    2    0    0  0.14347804490E+02  0.28403457560E+02 -0.20261044671E+01  0.59301937302E+02  0.49999987734E+02 0.  0.
        -12    1    1    2    0    0 -0.14347804490E+02 -0.28403457560E+02  0.20261044671E+01  0.31886062698E+02  0.00000000000E+00 0.  1.
         11    1    3    3    0    0  0.74198122189E+01  0.18538527316E+02 -0.57455599714E+01  0.20778403887E+02  0.51100000000E-03 0. -1.
        -11    1    3    3    0    0 -0.58863172082E+01  0.68233262203E+01  0.17361808507E+02  0.19561158092E+02  0.51100000000E-03 0.  1.
         12    1    3    3    0    0  0.12814309479E+02  0.30416040235E+01 -0.13642353003E+02  0.18962375324E+02  0.00000000000E+00 0. -1.
</event>
<event>
 7    1  0.3802554E-013  0.5930194E+02  0.7816164E-02  0.1266605E+00
        -11   -1    0    0    0    0  0.00000000000E+00  0.00000000000E+00  0.45593999997E+02  0.45594000000E+02  0.51100000000E-03 0. -1.
         11   -1    0    0    0    0 -0.00000000000E+00 -0.00000000000E+00 -0.45593999997E+02  0.45594000000E+02  0.51100000000E-03 0.  1.
    9900012    2    1    2    0    0 -0.26585211119E+02 -0.41263259519E+01  0.17114920932E+02  0.59301944512E+02  0.50000000883E+02 0.  0.
        -12    1    1    2    0    0  0.26585211119E+02  0.41263259519E+01 -0.17114920932E+02  0.31886055488E+02  0.00000000000E+00 0.  1.
         11    1    3    3    0    0 -0.63111652081E+01 -0.15678959417E+02  0.14185386074E+02  0.22065487826E+02  0.51100000000E-03 0. -1.
        -11    1    3    3    0    0 -0.16764385904E+02  0.76271842628E+01  0.15202441151E+02  0.23881641312E+02  0.51100000000E-03 0.  1.
        -12    1    3    3    0    0 -0.35096600066E+01  0.39254492023E+01 -0.12272906293E+02  0.13354815374E+02  0.00000000000E+00 0.  1.
</event>
<event>
 7    1  0.3802554E-013  0.5930195E+02  0.7816164E-02  0.1266605E+00
        -11   -1    0    0    0    0  0.00000000000E+00  0.00000000000E+00  0.45593999997E+02  0.45594000000E+02  0.51100000000E-03 0.  1.
         11   -1    0    0    0    0 -0.00000000000E+00 -0.00000000000E+00 -0.45593999997E+02  0.45594000000E+02  0.51100000000E-03 0. -1.
    9900012    2    1    2    0    0 -0.17583837673E+02 -0.25642685192E+02 -0.70697538979E+01  0.59301951776E+02  0.50000014131E+02 0.  0.
        -12    1    1    2    0    0  0.17583837673E+02  0.25642685192E+02  0.70697538979E+01  0.31886048224E+02  0.00000000000E+00 0.  1.
         11    1    3    3    0    0  0.99921662789E+01 -0.58680210938E+01 -0.33621288610E+01  0.12065693898E+02  0.51100000000E-03 0. -1.
        -11    1    3    3    0    0 -0.65084641823E+01 -0.76357828474E+01  0.13952275624E+02  0.17185205296E+02  0.51100000000E-03 0.  1.
         12    1    3    3    0    0 -0.21067539770E+02 -0.12138881250E+02 -0.17659900661E+02  0.30051052583E+02  0.00000000000E+00 0. -1.
</event>
<event>
 7    1  0.3802554E-013  0.5930194E+02  0.7816164E-02  0.1266605E+00
        -11   -1    0    0    0    0  0.00000000000E+00  0.00000000000E+00  0.45593999997E+02  0.45594000000E+02  0.51100000000E-03 0.  1.
         11   -1    0    0    0    0 -0.00000000000E+00 -0.00000000000E+00 -0.45593999997E+02  0.45594000000E+02  0.51100000000E-03 0. -1.
    9900012    2    1    2    0    0  0.11321565363E+02  0.18073202494E+01 -0.29753596592E+02  0.59301940994E+02  0.49999994467E+02 0.  0.
        -12    1    1    2    0    0 -0.11321565363E+02 -0.18073202494E+01  0.29753596592E+02  0.31886059006E+02  0.00000000000E+00 0.  1.
         11    1    3    3    0    0 -0.98677678975E+01  0.75254884879E+01 -0.27057794688E+02  0.29767937011E+02  0.51100000000E-03 0. -1.
        -11    1    3    3    0    0 -0.35849220017E+01  0.78053368149E+00 -0.12678400869E+01  0.38817930565E+01  0.51100000000E-03 0.  1.
        -12    1    3    3    0    0  0.24774255262E+02 -0.64987019200E+01 -0.14279618173E+01  0.25652210926E+02  0.00000000000E+00 0.  1.
</event>
<event>
 7    1  0.3802554E-013  0.5930195E+02  0.7816164E-02  0.1266605E+00
        -11   -1    0    0    0    0  0.00000000000E+00  0.00000000000E+00  0.45593999997E+02  0.45594000000E+02  0.51100000000E-03 0. -1.
         11   -1    0    0    0    0 -0.00000000000E+00 -0.00000000000E+00 -0.45593999997E+02  0.45594000000E+02  0.51100000000E-03 0.  1.
    9900012    2    1    2    0    0 -0.12661937244E+02 -0.90435073509E+01  0.27831827657E+02  0.59301948023E+02  0.50000007286E+02 0.  0.
        -12    1    1    2    0    0  0.12661937244E+02  0.90435073509E+01 -0.27831827657E+02  0.31886051977E+02  0.00000000000E+00 0.  1.
         11    1    3    3    0    0 -0.73532285269E+01 -0.66437246024E+01  0.16550884168E+02  0.19290951593E+02  0.51100000000E-03 0. -1.
        -11    1    3    3    0    0 -0.31976574112E+00 -0.68425191836E+01  0.24370713566E+02  0.25315094289E+02  0.51100000000E-03 0.  1.
        -12    1    3    3    0    0 -0.49889429757E+01  0.44427364351E+01 -0.13089770077E+02  0.14695902140E+02  0.00000000000E+00 0.  1.
</event>
<event>
 7    1  0.3802554E-013  0.5930203E+02  0.7816164E-02  0.1266604E+00
        -11   -1    0    0    0    0  0.00000000000E+00  0.00000000000E+00  0.45593999997E+02  0.45594000000E+02  0.51100000000E-03 0.  1.
         11   -1    0    0    0    0 -0.00000000000E+00 -0.00000000000E+00 -0.45593999997E+02  0.45594000000E+02  0.51100000000E-03 0. -1.
    9900012    2    1    2    0    0  0.15462656096E+02 -0.16055197888E+02 -0.22800268562E+02  0.59302025665E+02  0.50000148887E+02 0.  0.
        -12    1    1    2    0    0 -0.15462656096E+02  0.16055197888E+02  0.22800268562E+02  0.31885974335E+02  0.00000000000E+00 0.  1.
         11    1    3    3    0    0  0.10469167942E+01  0.54300770840E+01 -0.58377282808E+01  0.80411966555E+01  0.51100000000E-03 0. -1.
        -11    1    3    3    0    0 -0.90856564128E+01  0.69773652718E+01 -0.36732222439E+01  0.12030184558E+02  0.51100000000E-03 0.  1.
        -12    1    3    3    0    0  0.23501395715E+02 -0.28462640244E+02 -0.13289318037E+02  0.39230644452E+02  0.00000000000E+00 0.  1.
</event>
<event>
 7    1  0.3802554E-013  0.5930195E+02  0.7816164E-02  0.1266605E+00
        -11   -1    0    0    0    0  0.00000000000E+00  0.00000000000E+00  0.45593999997E+02  0.45594000000E+02  0.51100000000E-03 0. -1.
         11   -1    0    0    0    0 -0.00000000000E+00 -0.00000000000E+00 -0.45593999997E+02  0.45594000000E+02  0.51100000000E-03 0.  1.
    9900012    2    1    2    0    0 -0.15490385200E+01 -0.27338293188E+02  0.16338245019E+02  0.59301952188E+02  0.50000014882E+02 0.  0.
        -12    1    1    2    0    0  0.15490385200E+01  0.27338293188E+02 -0.16338245019E+02  0.31886047812E+02  0.00000000000E+00 0.  1.
         11    1    3    3    0    0 -0.97920186216E+01 -0.55493048721E+01  0.59983255890E+00  0.11271122952E+02  0.51100000000E-03 0. -1.
        -11    1    3    3    0    0 -0.78463079209E+00  0.82558532835E+01 -0.56738623411E+01  0.10048257214E+02  0.51100000000E-03 0.  1.
         12    1    3    3    0    0  0.90276108937E+01 -0.30044841599E+02  0.21412274801E+02  0.37982572021E+02  0.00000000000E+00 0. -1.
</event>
<event>
 7    1  0.3802554E-013  0.5930195E+02  0.7816164E-02  0.1266605E+00
        -11   -1    0    0    0    0  0.00000000000E+00  0.00000000000E+00  0.45593999997E+02  0.45594000000E+02  0.51100000000E-03 0.  1.
         11   -1    0    0    0    0 -0.00000000000E+00 -0.00000000000E+00 -0.45593999997E+02  0.45594000000E+02  0.51100000000E-03 0. -1.
    9900012    2    1    2    0    0 -0.67607667401E+01  0.13323872804E+02 -0.28168900249E+02  0.59301945139E+02  0.50000002026E+02 0.  0.
        -12    1    1    2    0    0  0.67607667401E+01 -0.13323872804E+02  0.28168900249E+02  0.31886054861E+02  0.00000000000E+00 0.  1.
         11    1    3    3    0    0 -0.24764141956E+01 -0.93083752313E+01 -0.21105837483E+01  0.98606815553E+01  0.51100000000E-03 0. -1.
        -11    1    3    3    0    0 -0.30747672210E+01 -0.89959750529E+01 -0.10527534175E+02  0.14184877041E+02  0.51100000000E-03 0.  1.
        -12    1    3    3    0    0 -0.12095853235E+01  0.31628223088E+02 -0.15530782325E+02  0.35256386542E+02  0.00000000000E+00 0.  1.
</event>
<event>
 7    1  0.3802554E-013  0.5930193E+02  0.7816164E-02  0.1266605E+00
        -11   -1    0    0    0    0  0.00000000000E+00  0.00000000000E+00  0.45593999997E+02  0.45594000000E+02  0.51100000000E-03 0. -1.
         11   -1    0    0    0    0 -0.00000000000E+00 -0.00000000000E+00 -0.45593999997E+02  0.45594000000E+02  0.51100000000E-03 0.  1.
    9900012    2    1    2    0    0 -0.52763072983E+01 -0.12273391210E+02  0.28952476905E+02  0.59301929853E+02  0.49999974148E+02 0.  0.
        -12    1    1    2    0    0  0.52763072983E+01  0.12273391210E+02 -0.28952476905E+02  0.31886070147E+02  0.00000000000E+00 0.  1.
         11    1    3    3    0    0  0.59009008121E+01  0.22372668700E+01  0.28236930236E+02  0.28933548397E+02  0.51100000000E-03 0. -1.
        -11    1    3    3    0    0 -0.24765792020E+01  0.24809817897E+01 -0.84824645080E+01  0.91782852198E+01  0.51100000000E-03 0.  1.
         12    1    3    3    0    0 -0.87006289084E+01 -0.16991639870E+02  0.91980111768E+01  0.21190096236E+02  0.00000000000E+00 0. -1.
</event>
<event>
 7    1  0.3802554E-013  0.5930194E+02  0.7816164E-02  0.1266605E+00
        -11   -1    0    0    0    0  0.00000000000E+00  0.00000000000E+00  0.45593999997E+02  0.45594000000E+02  0.51100000000E-03 0. -1.
         11   -1    0    0    0    0 -0.00000000000E+00 -0.00000000000E+00 -0.45593999997E+02  0.45594000000E+02  0.51100000000E-03 0.  1.
    9900012    2    1    2    0    0  0.21996787556E+02  0.84443806196E+01  0.21483828279E+02  0.59301935578E+02  0.49999984589E+02 0.  0.
        -12    1    1    2    0    0 -0.21996787556E+02 -0.84443806196E+01 -0.21483828279E+02  0.31886064422E+02  0.00000000000E+00 0.  1.
         11    1    3    3    0    0  0.22799012621E+01  0.26952657260E+02  0.61687332115E+01  0.27743412783E+02  0.51100000000E-03 0. -1.
        -11    1    3    3    0    0  0.31802884109E+01 -0.58052417899E+01  0.49920999944E+01  0.82907254949E+01  0.51100000000E-03 0.  1.
        -12    1    3    3    0    0  0.16536597883E+02 -0.12703034850E+02  0.10322995073E+02  0.23267797300E+02  0.00000000000E+00 0.  1.
</event>
<event>
 7    1  0.3802554E-013  0.5930194E+02  0.7816164E-02  0.1266605E+00
        -11   -1    0    0    0    0  0.00000000000E+00  0.00000000000E+00  0.45593999997E+02  0.45594000000E+02  0.51100000000E-03 0.  1.
         11   -1    0    0    0    0 -0.00000000000E+00 -0.00000000000E+00 -0.45593999997E+02  0.45594000000E+02  0.51100000000E-03 0. -1.
    9900012    2    1    2    0    0 -0.28127290003E+02 -0.13133491950E+02  0.72861167844E+01  0.59301944246E+02  0.50000000399E+02 0.  0.
        -12    1    1    2    0    0  0.28127290003E+02  0.13133491950E+02 -0.72861167844E+01  0.31886055754E+02  0.00000000000E+00 0.  1.
         11    1    3    3    0    0  0.80605326884E+00  0.48575433796E+00 -0.30456157768E+01  0.31877036986E+01  0.51100000000E-03 0. -1.
        -11    1    3    3    0    0 -0.17620196663E+02  0.12458980352E+02  0.16329503319E+02  0.27061969639E+02  0.51100000000E-03 0.  1.
        -12    1    3    3    0    0 -0.11313146609E+02 -0.26078226640E+02 -0.59977707577E+01  0.29052270908E+02  0.00000000000E+00 0.  1.
</event>
<event>
 7    1  0.3802554E-013  0.5930190E+02  0.7816164E-02  0.1266605E+00
        -11   -1    0    0    0    0  0.00000000000E+00  0.00000000000E+00  0.45593999997E+02  0.45594000000E+02  0.51100000000E-03 0.  1.
         11   -1    0    0    0    0 -0.00000000000E+00 -0.00000000000E+00 -0.45593999997E+02  0.45594000000E+02  0.51100000000E-03 0. -1.
    9900012    2    1    2    0    0  0.19337262025E+02  0.24761393104E+02  0.54467596937E+01  0.59301898290E+02  0.49999916586E+02 0.  0.
        -12    1    1    2    0    0 -0.19337262025E+02 -0.24761393104E+02 -0.54467596937E+01  0.31886101710E+02  0.00000000000E+00 0.  1.
         11    1    3    3    0    0 -0.14346023153E+01 -0.48311389227E+01 -0.71250745970E+01  0.87272375565E+01  0.51100000000E-03 0. -1.
        -11    1    3    3    0    0  0.17340065623E+02  0.82351402728E+01 -0.79314934538E+01  0.20770267206E+02  0.51100000000E-03 0.  1.
        -12    1    3    3    0    0  0.34317987166E+01  0.21357391754E+02  0.20503327745E+02  0.29804393528E+02  0.00000000000E+00 0.  1.
</event>
<event>
 7    1  0.3802554E-013  0.5930195E+02  0.7816164E-02  0.1266605E+00
        -11   -1    0    0    0    0  0.00000000000E+00  0.00000000000E+00  0.45593999997E+02  0.45594000000E+02  0.51100000000E-03 0. -1.
         11   -1    0    0    0    0 -0.00000000000E+00 -0.00000000000E+00 -0.45593999997E+02  0.45594000000E+02  0.51100000000E-03 0.  1.
    9900012    2    1    2    0    0 -0.26928143282E+02 -0.14369635834E+02  0.92254326582E+01  0.59301953798E+02  0.50000017820E+02 0.  0.
        -12    1    1    2    0    0  0.26928143282E+02  0.14369635834E+02 -0.92254326582E+01  0.31886046202E+02  0.00000000000E+00 0.  1.
         11    1    3    3    0    0 -0.65987935809E+01 -0.47133846765E+01 -0.11903205947E+00  0.81101319794E+01  0.51100000000E-03 0. -1.
        -11    1    3    3    0    0 -0.16937474251E+02 -0.24185611816E+02 -0.56239720713E+01  0.30057460223E+02  0.51100000000E-03 0.  1.
        -12    1    3    3    0    0 -0.33918754500E+01  0.14529360658E+02  0.14968436789E+02  0.21134361597E+02  0.00000000000E+00 0.  1.
</event>
<event>
 7    1  0.3802554E-013  0.5930194E+02  0.7816164E-02  0.1266605E+00
        -11   -1    0    0    0    0  0.00000000000E+00  0.00000000000E+00  0.45593999997E+02  0.45594000000E+02  0.51100000000E-03 0. -1.
         11   -1    0    0    0    0 -0.00000000000E+00 -0.00000000000E+00 -0.45593999997E+02  0.45594000000E+02  0.51100000000E-03 0.  1.
    9900012    2    1    2    0    0 -0.96133879049E+01 -0.14319158598E+02  0.26819119894E+02  0.59301941576E+02  0.49999995528E+02 0.  0.
        -12    1    1    2    0    0  0.96133879049E+01  0.14319158598E+02 -0.26819119894E+02  0.31886058424E+02  0.00000000000E+00 0.  1.
         11    1    3    3    0    0 -0.19356212909E+02 -0.29169401961E+01  0.83229029178E+01  0.21270689493E+02  0.51100000000E-03 0. -1.
        -11    1    3    3    0    0 -0.10517262790E+02 -0.14335328626E+01  0.50936995830E+01  0.11773428081E+02  0.51100000000E-03 0.  1.
        -12    1    3    3    0    0  0.20260087795E+02 -0.99686855392E+01  0.13402517393E+02  0.26257824001E+02  0.00000000000E+00 0.  1.
</event>
<event>
 7    1  0.3802554E-013  0.5930194E+02  0.7816164E-02  0.1266605E+00
        -11   -1    0    0    0    0  0.00000000000E+00  0.00000000000E+00  0.45593999997E+02  0.45594000000E+02  0.51100000000E-03 0.  1.
         11   -1    0    0    0    0 -0.00000000000E+00 -0.00000000000E+00 -0.45593999997E+02  0.45594000000E+02  0.51100000000E-03 0. -1.
    9900012    2    1    2    0    0 -0.13948717854E+02 -0.50232152615E+01 -0.28229793532E+02  0.59301942480E+02  0.49999997177E+02 0.  0.
        -12    1    1    2    0    0  0.13948717854E+02  0.50232152615E+01  0.28229793532E+02  0.31886057520E+02  0.00000000000E+00 0.  1.
         11    1    3    3    0    0 -0.86928518346E+01 -0.62735560800E+01 -0.15877859295E+02  0.19158016468E+02  0.51100000000E-03 0. -1.
        -11    1    3    3    0    0 -0.90782135086E+01 -0.16996635784E+02 -0.38326748559E+01  0.19646602386E+02  0.51100000000E-03 0.  1.
         12    1    3    3    0    0  0.38223474891E+01  0.18246976603E+02 -0.85192593804E+01  0.20497323627E+02  0.00000000000E+00 0. -1.
</event>
<event>
 7    1  0.3802554E-013  0.5930200E+02  0.7816164E-02  0.1266605E+00
        -11   -1    0    0    0    0  0.00000000000E+00  0.00000000000E+00  0.45593999997E+02  0.45594000000E+02  0.51100000000E-03 0. -1.
         11   -1    0    0    0    0 -0.00000000000E+00 -0.00000000000E+00 -0.45593999997E+02  0.45594000000E+02  0.51100000000E-03 0.  1.
    9900012    2    1    2    0    0 -0.22033272130E+02 -0.99027197450E+01  0.20813176474E+02  0.59301995954E+02  0.50000094700E+02 0.  0.
        -12    1    1    2    0    0  0.22033272130E+02  0.99027197450E+01 -0.20813176474E+02  0.31886004046E+02  0.00000000000E+00 0.  1.
         11    1    3    3    0    0  0.11317902345E+02 -0.40152831557E+00  0.38597355549E+01  0.11964685424E+02  0.51100000000E-03 0. -1.
        -11    1    3    3    0    0  0.28050663480E+01 -0.20801495349E+01  0.88976940744E+01  0.95584716041E+01  0.51100000000E-03 0.  1.
        -12    1    3    3    0    0 -0.36156240824E+02 -0.74210418945E+01  0.80557468445E+01  0.37778838925E+02  0.00000000000E+00 0.  1.
</event>
<event>
 7    1  0.3802554E-013  0.5930197E+02  0.7816164E-02  0.1266605E+00
        -11   -1    0    0    0    0  0.00000000000E+00  0.00000000000E+00  0.45593999997E+02  0.45594000000E+02  0.51100000000E-03 0. -1.
         11   -1    0    0    0    0 -0.00000000000E+00 -0.00000000000E+00 -0.45593999997E+02  0.45594000000E+02  0.51100000000E-03 0.  1.
    9900012    2    1    2    0    0  0.17018623530E+02  0.18513821068E+02  0.19604184823E+02  0.59301965754E+02  0.50000039623E+02 0.  0.
        -12    1    1    2    0    0 -0.17018623530E+02 -0.18513821068E+02 -0.19604184823E+02  0.31886034246E+02  0.00000000000E+00 0.  1.
         11    1    3    3    0    0 -0.26490568191E+01  0.31740591569E+01  0.20918697078E+02  0.21323321534E+02  0.51100000000E-03 0. -1.
        -11    1    3    3    0    0  0.13134565674E+02 -0.26050368179E+01  0.91350313137E+01  0.16209621514E+02  0.51100000000E-03 0.  1.
        -12    1    3    3    0    0  0.65331146744E+01  0.17944798729E+02 -0.10449543568E+02  0.21769022705E+02  0.00000000000E+00 0.  1.
</event>
<event>
 7    1  0.3802554E-013  0.5930192E+02  0.7816164E-02  0.1266605E+00
        -11   -1    0    0    0    0  0.00000000000E+00  0.00000000000E+00  0.45593999997E+02  0.45594000000E+02  0.51100000000E-03 0. -1.
         11   -1    0    0    0    0 -0.00000000000E+00 -0.00000000000E+00 -0.45593999997E+02  0.45594000000E+02  0.51100000000E-03 0.  1.
    9900012    2    1    2    0    0  0.24251423174E+02  0.15239883900E+02  0.14012002184E+02  0.59301924787E+02  0.49999964910E+02 0.  0.
        -12    1    1    2    0    0 -0.24251423174E+02 -0.15239883900E+02 -0.14012002184E+02  0.31886075213E+02  0.00000000000E+00 0.  1.
         11    1    3    3    0    0  0.14345564875E+02 -0.88197719824E+01 -0.44252130147E+01  0.17411666201E+02  0.51100000000E-03 0. -1.
        -11    1    3    3    0    0 -0.21484930082E+01  0.28500401380E+01 -0.62407585078E+01  0.71892849442E+01  0.51100000000E-03 0.  1.
        -12    1    3    3    0    0  0.12054351308E+02  0.21209615744E+02  0.24677973707E+02  0.34700973642E+02  0.00000000000E+00 0.  1.
</event>
<event>
 7    1  0.3802554E-013  0.5930192E+02  0.7816164E-02  0.1266605E+00
        -11   -1    0    0    0    0  0.00000000000E+00  0.00000000000E+00  0.45593999997E+02  0.45594000000E+02  0.51100000000E-03 0.  1.
         11   -1    0    0    0    0 -0.00000000000E+00 -0.00000000000E+00 -0.45593999997E+02  0.45594000000E+02  0.51100000000E-03 0. -1.
    9900012    2    1    2    0    0 -0.21082564834E+02  0.18345518974E+02 -0.15352172941E+02  0.59301924349E+02  0.49999964111E+02 0.  0.
        -12    1    1    2    0    0  0.21082564834E+02 -0.18345518974E+02  0.15352172941E+02  0.31886075651E+02  0.00000000000E+00 0.  1.
         11    1    3    3    0    0  0.38587690755E+01 -0.11251894836E+01  0.17177695237E+01  0.43711420189E+01  0.51100000000E-03 0. -1.
        -11    1    3    3    0    0 -0.19940650014E+02 -0.41312954242E+01  0.63257069731E+01  0.21323969936E+02  0.51100000000E-03 0.  1.
         12    1    3    3    0    0 -0.50006838956E+01  0.23602003882E+02 -0.23395649438E+02  0.33606812394E+02  0.00000000000E+00 0. -1.
</event>
<event>
 7    1  0.3802554E-013  0.5930193E+02  0.7816164E-02  0.1266605E+00
        -11   -1    0    0    0    0  0.00000000000E+00  0.00000000000E+00  0.45593999997E+02  0.45594000000E+02  0.51100000000E-03 0.  1.
         11   -1    0    0    0    0 -0.00000000000E+00 -0.00000000000E+00 -0.45593999997E+02  0.45594000000E+02  0.51100000000E-03 0. -1.
    9900012    2    1    2    0    0  0.19631773974E+02  0.11530478688E+02 -0.22324043016E+02  0.59301931182E+02  0.49999976572E+02 0.  0.
        -12    1    1    2    0    0 -0.19631773974E+02 -0.11530478688E+02  0.22324043016E+02  0.31886068818E+02  0.00000000000E+00 0.  1.
         11    1    3    3    0    0  0.24261673929E+02  0.33411835682E+01 -0.11481371290E+02  0.27048368092E+02  0.51100000000E-03 0. -1.
        -11    1    3    3    0    0  0.11648812898E+02  0.55782337048E+01 -0.78126177224E+00  0.12939161619E+02  0.51100000000E-03 0.  1.
        -12    1    3    3    0    0 -0.16278712854E+02  0.26110614152E+01 -0.10061409953E+02  0.19314401470E+02  0.00000000000E+00 0.  1.
</event>
<event>
 7    1  0.3802554E-013  0.5930155E+02  0.7816164E-02  0.1266606E+00
        -11   -1    0    0    0    0  0.00000000000E+00  0.00000000000E+00  0.45593999997E+02  0.45594000000E+02  0.51100000000E-03 0.  1.
         11   -1    0    0    0    0 -0.00000000000E+00 -0.00000000000E+00 -0.45593999997E+02  0.45594000000E+02  0.51100000000E-03 0. -1.
    9900012    2    1    2    0    0  0.17485347436E+02 -0.13747224378E+02 -0.22847803594E+02  0.59301550180E+02  0.49999281711E+02 0.  0.
        -12    1    1    2    0    0 -0.17485347436E+02  0.13747224378E+02  0.22847803594E+02  0.31886449820E+02  0.00000000000E+00 0.  1.
         11    1    3    3    0    0  0.27901815846E+01  0.47825240777E+01 -0.14703288536E+01  0.57288320824E+01  0.51100000000E-03 0. -1.
        -11    1    3    3    0    0 -0.69781138092E+01  0.10245107260E+02 -0.16623064992E+01  0.12506780491E+02  0.51100000000E-03 0.  1.
         12    1    3    3    0    0  0.21673279660E+02 -0.28774855715E+02 -0.19715168242E+02  0.41065937606E+02  0.00000000000E+00 0. -1.
</event>
<event>
 7    1  0.3802554E-013  0.5930195E+02  0.7816164E-02  0.1266605E+00
        -11   -1    0    0    0    0  0.00000000000E+00  0.00000000000E+00  0.45593999997E+02  0.45594000000E+02  0.51100000000E-03 0.  1.
         11   -1    0    0    0    0 -0.00000000000E+00 -0.00000000000E+00 -0.45593999997E+02  0.45594000000E+02  0.51100000000E-03 0. -1.
    9900012    2    1    2    0    0 -0.96333234319E+01 -0.24963561561E+02 -0.17341846111E+02  0.59301953637E+02  0.50000017524E+02 0.  0.
        -12    1    1    2    0    0  0.96333234319E+01  0.24963561561E+02  0.17341846111E+02  0.31886046363E+02  0.00000000000E+00 0.  1.
         11    1    3    3    0    0  0.75413840135E+01 -0.96216517936E+01 -0.92555358726E+01  0.15333414513E+02  0.51100000000E-03 0. -1.
        -11    1    3    3    0    0 -0.32190576007E+01 -0.17153294178E+02  0.10718303018E+02  0.20481207309E+02  0.51100000000E-03 0.  1.
         12    1    3    3    0    0 -0.13955649845E+02  0.18113844105E+01 -0.18804613256E+02  0.23487331815E+02  0.00000000000E+00 0. -1.
</event>
<event>
 7    1  0.3802554E-013  0.5930194E+02  0.7816164E-02  0.1266605E+00
        -11   -1    0    0    0    0  0.00000000000E+00  0.00000000000E+00  0.45593999997E+02  0.45594000000E+02  0.51100000000E-03 0.  1.
         11   -1    0    0    0    0 -0.00000000000E+00 -0.00000000000E+00 -0.45593999997E+02  0.45594000000E+02  0.51100000000E-03 0. -1.
    9900012    2    1    2    0    0 -0.27971526788E+02 -0.86348349384E+01 -0.12639383432E+02  0.59301941937E+02  0.49999996188E+02 0.  0.
        -12    1    1    2    0    0  0.27971526788E+02  0.86348349384E+01  0.12639383432E+02  0.31886058063E+02  0.00000000000E+00 0.  1.
         11    1    3    3    0    0 -0.46804484661E+01 -0.39737778562E+01 -0.42025011578E+01  0.74403309427E+01  0.51100000000E-03 0. -1.
        -11    1    3    3    0    0 -0.29761176009E+02  0.28083902824E-02 -0.21389555738E+02  0.36650248298E+02  0.51100000000E-03 0.  1.
        -12    1    3    3    0    0  0.64700976880E+01 -0.46638654725E+01  0.12952673464E+02  0.15211362697E+02  0.00000000000E+00 0.  1.
</event>
<event>
 7    1  0.3802554E-013  0.5930194E+02  0.7816164E-02  0.1266605E+00
        -11   -1    0    0    0    0  0.00000000000E+00  0.00000000000E+00  0.45593999997E+02  0.45594000000E+02  0.51100000000E-03 0. -1.
         11   -1    0    0    0    0 -0.00000000000E+00 -0.00000000000E+00 -0.45593999997E+02  0.45594000000E+02  0.51100000000E-03 0.  1.
    9900012    2    1    2    0    0  0.22367059656E+02 -0.22437050260E+02 -0.36075008489E+01  0.59301942790E+02  0.49999997743E+02 0.  0.
        -12    1    1    2    0    0 -0.22367059656E+02  0.22437050260E+02  0.36075008489E+01  0.31886057210E+02  0.00000000000E+00 0.  1.
         11    1    3    3    0    0  0.17137220815E+02 -0.32265126366E+01  0.16287951893E+01  0.17514214087E+02  0.51100000000E-03 0. -1.
        -11    1    3    3    0    0  0.10509151123E+02 -0.98832487558E+00 -0.16601017669E+02  0.19672641696E+02  0.51100000000E-03 0.  1.
        -12    1    3    3    0    0 -0.52793122813E+01 -0.18222212748E+02  0.11364721631E+02  0.22115087007E+02  0.00000000000E+00 0.  1.
</event>
<event>
 7    1  0.3802554E-013  0.5930192E+02  0.7816164E-02  0.1266605E+00
        -11   -1    0    0    0    0  0.00000000000E+00  0.00000000000E+00  0.45593999997E+02  0.45594000000E+02  0.51100000000E-03 0.  1.
         11   -1    0    0    0    0 -0.00000000000E+00 -0.00000000000E+00 -0.45593999997E+02  0.45594000000E+02  0.51100000000E-03 0. -1.
    9900012    2    1    2    0    0  0.18248615633E+02  0.14846198696E+02 -0.21524421291E+02  0.59301916826E+02  0.49999950391E+02 0.  0.
        -12    1    1    2    0    0 -0.18248615633E+02 -0.14846198696E+02  0.21524421291E+02  0.31886083174E+02  0.00000000000E+00 0.  1.
         11    1    3    3    0    0  0.17328706263E+02  0.10894781913E+02 -0.24809434740E+02  0.32163463528E+02  0.51100000000E-03 0. -1.
        -11    1    3    3    0    0 -0.68502188264E+01 -0.89468229835E+01 -0.14326379866E+01  0.11358855194E+02  0.51100000000E-03 0.  1.
         12    1    3    3    0    0  0.77701281966E+01  0.12898239766E+02  0.47176514363E+01  0.15779598104E+02  0.00000000000E+00 0. -1.
</event>
<event>
 7    1  0.3802554E-013  0.5930195E+02  0.7816164E-02  0.1266605E+00
        -11   -1    0    0    0    0  0.00000000000E+00  0.00000000000E+00  0.45593999997E+02  0.45594000000E+02  0.51100000000E-03 0. -1.
         11   -1    0    0    0    0 -0.00000000000E+00 -0.00000000000E+00 -0.45593999997E+02  0.45594000000E+02  0.51100000000E-03 0.  1.
    9900012    2    1    2    0    0 -0.13460360459E+02 -0.22696069947E+02  0.17900483360E+02  0.59301949770E+02  0.50000010473E+02 0.  0.
        -12    1    1    2    0    0  0.13460360459E+02  0.22696069947E+02 -0.17900483360E+02  0.31886050230E+02  0.00000000000E+00 0.  1.
         11    1    3    3    0    0 -0.24451668310E+02 -0.75093916151E+01  0.98492066328E+01  0.27409522381E+02  0.51100000000E-03 0. -1.
        -11    1    3    3    0    0  0.24556673666E+01  0.15853286461E+01 -0.71348041249E+01  0.77103177168E+01  0.51100000000E-03 0.  1.
         12    1    3    3    0    0  0.85356404850E+01 -0.16772006978E+02  0.15186080852E+02  0.24182109673E+02  0.00000000000E+00 0. -1.
</event>
<event>
 7    1  0.3802554E-013  0.5930194E+02  0.7816164E-02  0.1266605E+00
        -11   -1    0    0    0    0  0.00000000000E+00  0.00000000000E+00  0.45593999997E+02  0.45594000000E+02  0.51100000000E-03 0.  1.
         11   -1    0    0    0    0 -0.00000000000E+00 -0.00000000000E+00 -0.45593999997E+02  0.45594000000E+02  0.51100000000E-03 0. -1.
    9900012    2    1    2    0    0  0.29221180393E+02  0.46611127455E+01 -0.11879284382E+02  0.59301941086E+02  0.49999994635E+02 0.  0.
        -12    1    1    2    0    0 -0.29221180393E+02 -0.46611127455E+01  0.11879284382E+02  0.31886058914E+02  0.00000000000E+00 0.  1.
         11    1    3    3    0    0  0.76790192271E+01  0.57577824956E+00 -0.26151610244E+02  0.27261796997E+02  0.51100000000E-03 0. -1.
        -11    1    3    3    0    0  0.86850046094E+01 -0.43795935344E+01 -0.16810636984E+01  0.98709736100E+01  0.51100000000E-03 0.  1.
        -12    1    3    3    0    0  0.12857156557E+02  0.84649280304E+01  0.15953389560E+02  0.22169170479E+02  0.00000000000E+00 0.  1.
</event>
<event>
 7    1  0.3802554E-013  0.5930203E+02  0.7816164E-02  0.1266604E+00
        -11   -1    0    0    0    0  0.00000000000E+00  0.00000000000E+00  0.45593999997E+02  0.45594000000E+02  0.51100000000E-03 0.  1.
         11   -1    0    0    0    0 -0.00000000000E+00 -0.00000000000E+00 -0.45593999997E+02  0.45594000000E+02  0.51100000000E-03 0. -1.
    9900012    2    1    2    0    0 -0.28248598661E+02  0.28380361664E+01 -0.14514733729E+02  0.59302027053E+02  0.50000151417E+02 0.  0.
        -12    1    1    2    0    0  0.28248598661E+02 -0.28380361664E+01  0.14514733729E+02  0.31885972947E+02  0.00000000000E+00 0.  1.
         11    1    3    3    0    0 -0.63086005196E+01 -0.35711979511E+01 -0.39882639608E+01  0.82739437395E+01  0.51100000000E-03 0. -1.
        -11    1    3    3    0    0 -0.35386424738E+01 -0.14313023374E+02 -0.17066875106E+02  0.22553555259E+02  0.51100000000E-03 0.  1.
        -12    1    3    3    0    0 -0.18401355667E+02  0.20722257491E+02  0.65404053378E+01  0.28474528054E+02  0.00000000000E+00 0.  1.
</event>
<event>
 7    1  0.3802554E-013  0.5930194E+02  0.7816164E-02  0.1266605E+00
        -11   -1    0    0    0    0  0.00000000000E+00  0.00000000000E+00  0.45593999997E+02  0.45594000000E+02  0.51100000000E-03 0.  1.
         11   -1    0    0    0    0 -0.00000000000E+00 -0.00000000000E+00 -0.45593999997E+02  0.45594000000E+02  0.51100000000E-03 0. -1.
    9900012    2    1    2    0    0 -0.39575437662E+01 -0.29209813204E+02 -0.12159164021E+02  0.59301943333E+02  0.49999998733E+02 0.  0.
        -12    1    1    2    0    0  0.39575437662E+01  0.29209813204E+02  0.12159164021E+02  0.31886056667E+02  0.00000000000E+00 0.  1.
         11    1    3    3    0    0  0.10744478901E+02 -0.13395052472E+02 -0.68529672568E+01  0.18488764644E+02  0.51100000000E-03 0. -1.
        -11    1    3    3    0    0  0.23900108862E+01 -0.19920959839E+02 -0.10280866200E+02  0.22544467237E+02  0.51100000000E-03 0.  1.
        -12    1    3    3    0    0 -0.17092033553E+02  0.41061991067E+01  0.49746694365E+01  0.18268711451E+02  0.00000000000E+00 0.  1.
</event>
<event>
 7    1  0.3802554E-013  0.5930192E+02  0.7816164E-02  0.1266605E+00
        -11   -1    0    0    0    0  0.00000000000E+00  0.00000000000E+00  0.45593999997E+02  0.45594000000E+02  0.51100000000E-03 0.  1.
         11   -1    0    0    0    0 -0.00000000000E+00 -0.00000000000E+00 -0.45593999997E+02  0.45594000000E+02  0.51100000000E-03 0. -1.
    9900012    2    1    2    0    0 -0.15464501635E+01  0.87904947121E+01 -0.30611403467E+02  0.59301916396E+02  0.49999949606E+02 0.  0.
        -12    1    1    2    0    0  0.15464501635E+01 -0.87904947121E+01  0.30611403467E+02  0.31886083604E+02  0.00000000000E+00 0.  1.
         11    1    3    3    0    0 -0.24269088526E+01 -0.10230290139E+01  0.31179991037E+01  0.40814695409E+01  0.51100000000E-03 0. -1.
        -11    1    3    3    0    0 -0.15028854174E+02  0.95522124716E+01  0.13074230285E+00  0.17808096886E+02  0.51100000000E-03 0.  1.
         12    1    3    3    0    0  0.15909312863E+02  0.26131125438E+00 -0.33860144873E+02  0.37412349969E+02  0.00000000000E+00 0. -1.
</event>
<event>
 7    1  0.3802554E-013  0.5930199E+02  0.7816164E-02  0.1266605E+00
        -11   -1    0    0    0    0  0.00000000000E+00  0.00000000000E+00  0.45593999997E+02  0.45594000000E+02  0.51100000000E-03 0.  1.
         11   -1    0    0    0    0 -0.00000000000E+00 -0.00000000000E+00 -0.45593999997E+02  0.45594000000E+02  0.51100000000E-03 0. -1.
    9900012    2    1    2    0    0 -0.20450085511E+02  0.19162059826E+01 -0.24389336349E+02  0.59301990994E+02  0.50000085656E+02 0.  0.
        -12    1    1    2    0    0  0.20450085511E+02 -0.19162059826E+01  0.24389336349E+02  0.31886009006E+02  0.00000000000E+00 0.  1.
         11    1    3    3    0    0 -0.27921616246E+02  0.25869829979E+01 -0.68443946325E+01  0.28864422269E+02  0.51100000000E-03 0. -1.
        -11    1    3    3    0    0  0.40027799889E+01 -0.24119049178E+01  0.54145114644E+01  0.71523749644E+01  0.51100000000E-03 0.  1.
        -12    1    3    3    0    0  0.34687507455E+01  0.17411279025E+01 -0.22959453181E+02  0.23285193760E+02  0.00000000000E+00 0.  1.
</event>
<event>
 7    1  0.3802554E-013  0.5930197E+02  0.7816164E-02  0.1266605E+00
        -11   -1    0    0    0    0  0.00000000000E+00  0.00000000000E+00  0.45593999997E+02  0.45594000000E+02  0.51100000000E-03 0. -1.
         11   -1    0    0    0    0 -0.00000000000E+00 -0.00000000000E+00 -0.45593999997E+02  0.45594000000E+02  0.51100000000E-03 0.  1.
    9900012    2    1    2    0    0 -0.10897186295E+02  0.29509698230E+02 -0.52103812802E+01  0.59301968076E+02  0.50000043858E+02 0.  0.
        -12    1    1    2    0    0  0.10897186295E+02 -0.29509698230E+02  0.52103812802E+01  0.31886031924E+02  0.00000000000E+00 0.  1.
         11    1    3    3    0    0  0.13640106320E+02  0.23978922818E+01  0.89124787256E+01  0.16469203536E+02  0.51100000000E-03 0. -1.
        -11    1    3    3    0    0 -0.90768796996E+01  0.20514164275E+02 -0.13133367559E+02  0.25994346014E+02  0.51100000000E-03 0.  1.
        -12    1    3    3    0    0 -0.15460412915E+02  0.65976416732E+01 -0.98949244669E+00  0.16838418526E+02  0.00000000000E+00 0.  1.
</event>
<event>
 7    1  0.3802554E-013  0.5930195E+02  0.7816164E-02  0.1266605E+00
        -11   -1    0    0    0    0  0.00000000000E+00  0.00000000000E+00  0.45593999997E+02  0.45594000000E+02  0.51100000000E-03 0.  1.
         11   -1    0    0    0    0 -0.00000000000E+00 -0.00000000000E+00 -0.45593999997E+02  0.45594000000E+02  0.51100000000E-03 0. -1.
    9900012    2    1    2    0    0  0.25833224627E+02  0.27379388990E+01  0.18489691060E+02  0.59301945375E+02  0.50000002457E+02 0.  0.
        -12    1    1    2    0    0 -0.25833224627E+02 -0.27379388990E+01 -0.18489691060E+02  0.31886054625E+02  0.00000000000E+00 0.  1.
         11    1    3    3    0    0 -0.63409802863E+01 -0.65716726309E+01  0.40486465882E+01  0.99893168744E+01  0.51100000000E-03 0. -1.
        -11    1    3    3    0    0  0.21142035628E+01  0.79922148181E+01  0.17214007003E+02  0.19096266435E+02  0.51100000000E-03 0.  1.
        -12    1    3    3    0    0  0.30060001351E+02  0.13173967118E+01 -0.27729625311E+01  0.30216362066E+02  0.00000000000E+00 0.  1.
</event>
<event>
 7    1  0.3802554E-013  0.5930213E+02  0.7816164E-02  0.1266604E+00
        -11   -1    0    0    0    0  0.00000000000E+00  0.00000000000E+00  0.45593999997E+02  0.45594000000E+02  0.51100000000E-03 0.  1.
         11   -1    0    0    0    0 -0.00000000000E+00 -0.00000000000E+00 -0.45593999997E+02  0.45594000000E+02  0.51100000000E-03 0. -1.
    9900012    2    1    2    0    0  0.19326939522E+02  0.14436584616E+02 -0.20850969487E+02  0.59302133300E+02  0.50000345187E+02 0.  0.
        -12    1    1    2    0    0 -0.19326939522E+02 -0.14436584616E+02  0.20850969487E+02  0.31885866700E+02  0.00000000000E+00 0.  1.
         11    1    3    3    0    0  0.76395939948E+01 -0.90169627795E+01 -0.58899483795E+01  0.13204563845E+02  0.51100000000E-03 0. -1.
        -11    1    3    3    0    0 -0.81445669684E+01 -0.18425923726E+01  0.34724962166E+01  0.90436357728E+01  0.51100000000E-03 0.  1.
         12    1    3    3    0    0  0.19831912495E+02  0.25296139768E+02 -0.18433517324E+02  0.37053933682E+02  0.00000000000E+00 0. -1.
</event>
<event>
 7    1  0.3802554E-013  0.5930194E+02  0.7816164E-02  0.1266605E+00
        -11   -1    0    0    0    0  0.00000000000E+00  0.00000000000E+00  0.45593999997E+02  0.45594000000E+02  0.51100000000E-03 0. -1.
         11   -1    0    0    0    0 -0.00000000000E+00 -0.00000000000E+00 -0.45593999997E+02  0.45594000000E+02  0.51100000000E-03 0.  1.
    9900012    2    1    2    0    0  0.12467020677E+02 -0.29177274498E+02 -0.31592201802E+01  0.59301943112E+02  0.49999998331E+02 0.  0.
        -12    1    1    2    0    0 -0.12467020677E+02  0.29177274498E+02  0.31592201802E+01  0.31886056888E+02  0.00000000000E+00 0.  1.
         11    1    3    3    0    0  0.10380807729E+02 -0.36821128864E+01 -0.71178730147E+01  0.13114238099E+02  0.51100000000E-03 0. -1.
        -11    1    3    3    0    0  0.18553967014E+02 -0.11319807619E+02  0.95672941731E+01  0.23747017803E+02  0.51100000000E-03 0.  1.
         12    1    3    3    0    0 -0.16467754066E+02 -0.14175353993E+02 -0.56086413387E+01  0.22440687210E+02  0.00000000000E+00 0. -1.
</event>
<event>
 7    1  0.3802554E-013  0.5930195E+02  0.7816164E-02  0.1266605E+00
        -11   -1    0    0    0    0  0.00000000000E+00  0.00000000000E+00  0.45593999997E+02  0.45594000000E+02  0.51100000000E-03 0.  1.
         11   -1    0    0    0    0 -0.00000000000E+00 -0.00000000000E+00 -0.45593999997E+02  0.45594000000E+02  0.51100000000E-03 0. -1.
    9900012    2    1    2    0    0 -0.21911025960E+02  0.20361211040E+02 -0.11047535065E+02  0.59301952822E+02  0.50000016039E+02 0.  0.
        -12    1    1    2    0    0  0.21911025960E+02 -0.20361211040E+02  0.11047535065E+02  0.31886047178E+02  0.00000000000E+00 0.  1.
         11    1    3    3    0    0  0.67509260121E+00 -0.45702301373E+01  0.36101681279E+01  0.58631107529E+01  0.51100000000E-03 0. -1.
        -11    1    3    3    0    0 -0.20431375916E+01  0.65605985126E+01  0.12805221393E+02  0.14532362479E+02  0.51100000000E-03 0.  1.
         12    1    3    3    0    0 -0.20542980969E+02  0.18370842665E+02 -0.27462924585E+02  0.38906479590E+02  0.00000000000E+00 0. -1.
</event>
<event>
 7    1  0.3802554E-013  0.5930194E+02  0.7816164E-02  0.1266605E+00
        -11   -1    0    0    0    0  0.00000000000E+00  0.00000000000E+00  0.45593999997E+02  0.45594000000E+02  0.51100000000E-03 0. -1.
         11   -1    0    0    0    0 -0.00000000000E+00 -0.00000000000E+00 -0.45593999997E+02  0.45594000000E+02  0.51100000000E-03 0.  1.
    9900012    2    1    2    0    0  0.20704806383E+02 -0.18036046655E+02  0.16209037990E+02  0.59301938800E+02  0.49999990466E+02 0.  0.
        -12    1    1    2    0    0 -0.20704806383E+02  0.18036046655E+02 -0.16209037990E+02  0.31886061200E+02  0.00000000000E+00 0.  1.
         11    1    3    3    0    0 -0.95253786897E+00 -0.22651518485E+01 -0.46757165744E+01  0.52820987338E+01  0.51100000000E-03 0. -1.
        -11    1    3    3    0    0 -0.42719507883E+01  0.17748577771E+01 -0.93903630984E+01  0.10467979893E+02  0.51100000000E-03 0.  1.
         12    1    3    3    0    0  0.25929295040E+02 -0.17545752583E+02  0.30275117663E+02  0.43551860173E+02  0.00000000000E+00 0. -1.
</event>
<event>
 7    1  0.3802554E-013  0.5930193E+02  0.7816164E-02  0.1266605E+00
        -11   -1    0    0    0    0  0.00000000000E+00  0.00000000000E+00  0.45593999997E+02  0.45594000000E+02  0.51100000000E-03 0. -1.
         11   -1    0    0    0    0 -0.00000000000E+00 -0.00000000000E+00 -0.45593999997E+02  0.45594000000E+02  0.51100000000E-03 0.  1.
    9900012    2    1    2    0    0 -0.81020278375E+01  0.23190280522E+02  0.20329529309E+02  0.59301925803E+02  0.49999966763E+02 0.  0.
        -12    1    1    2    0    0  0.81020278375E+01 -0.23190280522E+02 -0.20329529309E+02  0.31886074197E+02  0.00000000000E+00 0.  1.
         11    1    3    3    0    0 -0.48458137447E+01  0.52095867743E+01  0.34526799671E+01  0.79083945541E+01  0.51100000000E-03 0. -1.
        -11    1    3    3    0    0 -0.17219739878E+02  0.26689290954E+02  0.13896837607E+02  0.34669291727E+02  0.51100000000E-03 0.  1.
        -12    1    3    3    0    0  0.13963525786E+02 -0.87085972059E+01  0.29800117342E+01  0.16724239522E+02  0.00000000000E+00 0.  1.
</event>
<event>
 7    1  0.3802554E-013  0.5930191E+02  0.7816164E-02  0.1266605E+00
        -11   -1    0    0    0    0  0.00000000000E+00  0.00000000000E+00  0.45593999997E+02  0.45594000000E+02  0.51100000000E-03 0. -1.
         11   -1    0    0    0    0 -0.00000000000E+00 -0.00000000000E+00 -0.45593999997E+02  0.45594000000E+02  0.51100000000E-03 0.  1.
    9900012    2    1    2    0    0 -0.24457279294E+02  0.90830551038E+01  0.18331994914E+02  0.59301914664E+02  0.49999946448E+02 0.  0.
        -12    1    1    2    0    0  0.24457279294E+02 -0.90830551038E+01 -0.18331994914E+02  0.31886085336E+02  0.00000000000E+00 0.  1.
         11    1    3    3    0    0 -0.23491454776E+02  0.10439728595E+02 -0.35292894867E+01  0.25947875928E+02  0.51100000000E-03 0. -1.
        -11    1    3    3    0    0 -0.76725085358E+01  0.94528188070E+01  0.81519014771E+01  0.14651848640E+02  0.51100000000E-03 0.  1.
        -12    1    3    3    0    0  0.67066840169E+01 -0.10809492299E+02  0.13709382924E+02  0.18702190096E+02  0.00000000000E+00 0.  1.
</event>
<event>
 7    1  0.3802554E-013  0.5930194E+02  0.7816164E-02  0.1266605E+00
        -11   -1    0    0    0    0  0.00000000000E+00  0.00000000000E+00  0.45593999997E+02  0.45594000000E+02  0.51100000000E-03 0.  1.
         11   -1    0    0    0    0 -0.00000000000E+00 -0.00000000000E+00 -0.45593999997E+02  0.45594000000E+02  0.51100000000E-03 0. -1.
    9900012    2    1    2    0    0  0.20776855703E+02 -0.58193718859E+01 -0.23477174901E+02  0.59301944060E+02  0.50000000059E+02 0.  0.
        -12    1    1    2    0    0 -0.20776855703E+02  0.58193718859E+01  0.23477174901E+02  0.31886055940E+02  0.00000000000E+00 0.  1.
         11    1    3    3    0    0  0.20802196534E+02 -0.91422937357E+01 -0.41479071490E+01  0.23098009641E+02  0.51100000000E-03 0. -1.
        -11    1    3    3    0    0  0.35682291398E+01  0.13394597138E+01  0.78447783506E+01  0.87216374123E+01  0.51100000000E-03 0.  1.
        -12    1    3    3    0    0 -0.35935699708E+01  0.19834621360E+01 -0.27174046103E+02  0.27482297007E+02  0.00000000000E+00 0.  1.
</event>
<event>
 7    1  0.3802554E-013  0.5930190E+02  0.7816164E-02  0.1266605E+00
        -11   -1    0    0    0    0  0.00000000000E+00  0.00000000000E+00  0.45593999997E+02  0.45594000000E+02  0.51100000000E-03 0.  1.
         11   -1    0    0    0    0 -0.00000000000E+00 -0.00000000000E+00 -0.45593999997E+02  0.45594000000E+02  0.51100000000E-03 0. -1.
    9900012    2    1    2    0    0 -0.45573535528E+01 -0.31443841545E+02 -0.26904415147E+01  0.59301904001E+02  0.49999927001E+02 0.  0.
        -12    1    1    2    0    0  0.45573535528E+01  0.31443841545E+02  0.26904415147E+01  0.31886095999E+02  0.00000000000E+00 0.  1.
         11    1    3    3    0    0  0.18151089713E+00 -0.27558184523E+01  0.81930057487E+01  0.86459716057E+01  0.51100000000E-03 0. -1.
        -11    1    3    3    0    0  0.92710359355E+01 -0.32183098656E+02 -0.13262100363E+02  0.36022038431E+02  0.51100000000E-03 0.  1.
         12    1    3    3    0    0 -0.14009900385E+02  0.34950755631E+01  0.23786530995E+01  0.14633893965E+02  0.00000000000E+00 0. -1.
</event>
<event>
 7    1  0.3802554E-013  0.5930205E+02  0.7816164E-02  0.1266604E+00
        -11   -1    0    0    0    0  0.00000000000E+00  0.00000000000E+00  0.45593999997E+02  0.45594000000E+02  0.51100000000E-03 0.  1.
         11   -1    0    0    0    0 -0.00000000000E+00 -0.00000000000E+00 -0.45593999997E+02  0.45594000000E+02  0.51100000000E-03 0. -1.
    9900012    2    1    2    0    0  0.48913371232E+01 -0.48470110100E+01 -0.31133503096E+02  0.59302051533E+02  0.50000196064E+02 0.  0.
        -12    1    1    2    0    0 -0.48913371232E+01  0.48470110100E+01  0.31133503096E+02  0.31885948467E+02  0.00000000000E+00 0.  1.
         11    1    3    3    0    0 -0.60243482533E+01  0.11587690959E+02 -0.14778219229E+01  0.13143489321E+02  0.51100000000E-03 0.  1.
        -11    1    3    3    0    0  0.11479949693E+02  0.20755786919E+01 -0.24179938014E+02  0.26847098064E+02  0.51100000000E-03 0. -1.
        -12    1    3    3    0    0 -0.56426431616E+00 -0.18510280661E+02 -0.54757431594E+01  0.19311464148E+02  0.00000000000E+00 0.  1.
</event>
<event>
 7    1  0.3802554E-013  0.5930195E+02  0.7816164E-02  0.1266605E+00
        -11   -1    0    0    0    0  0.00000000000E+00  0.00000000000E+00  0.45593999997E+02  0.45594000000E+02  0.51100000000E-03 0.  1.
         11   -1    0    0    0    0 -0.00000000000E+00 -0.00000000000E+00 -0.45593999997E+02  0.45594000000E+02  0.51100000000E-03 0. -1.
    9900012    2    1    2    0    0 -0.25280668538E+02  0.65798056179E+01 -0.18284259383E+02  0.59301949996E+02  0.50000010884E+02 0.  0.
        -12    1    1    2    0    0  0.25280668538E+02 -0.65798056179E+01  0.18284259383E+02  0.31886050004E+02  0.00000000000E+00 0.  1.
         11    1    3    3    0    0  0.11722967588E+01 -0.32136067281E+01 -0.88863450267E+01  0.95220100866E+01  0.51100000000E-03 0. -1.
        -11    1    3    3    0    0 -0.86155853764E+01  0.29747505160E+01  0.15753642566E+02  0.18200404017E+02  0.51100000000E-03 0.  1.
         12    1    3    3    0    0 -0.17837379920E+02  0.68186618300E+01 -0.25151556923E+02  0.31579535893E+02  0.00000000000E+00 0. -1.
</event>
<event>
 7    1  0.3802554E-013  0.5930194E+02  0.7816164E-02  0.1266605E+00
        -11   -1    0    0    0    0  0.00000000000E+00  0.00000000000E+00  0.45593999997E+02  0.45594000000E+02  0.51100000000E-03 0. -1.
         11   -1    0    0    0    0 -0.00000000000E+00 -0.00000000000E+00 -0.45593999997E+02  0.45594000000E+02  0.51100000000E-03 0.  1.
    9900012    2    1    2    0    0 -0.19801635554E+02  0.88158108232E+01  0.23385840574E+02  0.59301939872E+02  0.49999992422E+02 0.  0.
        -12    1    1    2    0    0  0.19801635554E+02 -0.88158108232E+01 -0.23385840574E+02  0.31886060128E+02  0.00000000000E+00 0.  1.
         11    1    3    3    0    0  0.58684539376E+01  0.90344331678E+01  0.13457692168E+02  0.17238596609E+02  0.51100000000E-03 0. -1.
        -11    1    3    3    0    0  0.86210358147E+00  0.46030671265E+01 -0.82886717368E+01  0.95201643356E+01  0.51100000000E-03 0.  1.
        -12    1    3    3    0    0 -0.26532193073E+02 -0.48216894711E+01  0.18216820143E+02  0.32543178928E+02  0.00000000000E+00 0.  1.
</event>
<event>
 7    1  0.4638074E-013  0.5930196E+02  0.7816164E-02  0.1266605E+00
        -11   -1    0    0    0    0  0.00000000000E+00  0.00000000000E+00  0.45593999997E+02  0.45594000000E+02  0.51100000000E-03 0. -1.
         11   -1    0    0    0    0 -0.00000000000E+00 -0.00000000000E+00 -0.45593999997E+02  0.45594000000E+02  0.51100000000E-03 0.  1.
    9900012    2    1    2    0    0  0.12745882790E+02 -0.27828479279E+01  0.29094976200E+02  0.59301962134E+02  0.50000033022E+02 0.  0.
        -12    1    1    2    0    0 -0.12745882790E+02  0.27828479279E+01 -0.29094976200E+02  0.31886037866E+02  0.00000000000E+00 0.  1.
         11    1    3    3    0    0  0.19839057711E+02 -0.74290802609E+01  0.15270531303E+02  0.26114527966E+02  0.51100000000E-03 0. -1.
        -11    1    3    3    0    0  0.26612552678E+00 -0.13167272521E+01 -0.86734983406E+01  0.87769110271E+01  0.51100000000E-03 0.  1.
        -12    1    3    3    0    0 -0.73593004471E+01  0.59629595851E+01  0.22497943238E+02  0.24410523141E+02  0.00000000000E+00 0.  1.
</event>
<event>
 7    1  0.3802554E-013  0.5930194E+02  0.7816164E-02  0.1266605E+00
        -11   -1    0    0    0    0  0.00000000000E+00  0.00000000000E+00  0.45593999997E+02  0.45594000000E+02  0.51100000000E-03 0.  1.
         11   -1    0    0    0    0 -0.00000000000E+00 -0.00000000000E+00 -0.45593999997E+02  0.45594000000E+02  0.51100000000E-03 0. -1.
    9900012    2    1    2    0    0  0.87507929624E+01 -0.20444353477E+02 -0.22851104963E+02  0.59301937769E+02  0.49999988586E+02 0.  0.
        -12    1    1    2    0    0 -0.87507929624E+01  0.20444353477E+02  0.22851104963E+02  0.31886062231E+02  0.00000000000E+00 0.  1.
         11    1    3    3    0    0  0.25155886566E+01  0.18743399368E+01 -0.40317219223E+01  0.51084360040E+01  0.51100000000E-03 0. -1.
        -11    1    3    3    0    0  0.89301205140E+01 -0.30791482034E+01  0.13504743441E+02  0.16480482448E+02  0.51100000000E-03 0.  1.
         12    1    3    3    0    0 -0.26949162082E+01 -0.19239545210E+02 -0.32324126481E+02  0.37713019317E+02  0.00000000000E+00 0. -1.
</event>
<event>
 7    1  0.3802554E-013  0.5930193E+02  0.7816164E-02  0.1266605E+00
        -11   -1    0    0    0    0  0.00000000000E+00  0.00000000000E+00  0.45593999997E+02  0.45594000000E+02  0.51100000000E-03 0.  1.
         11   -1    0    0    0    0 -0.00000000000E+00 -0.00000000000E+00 -0.45593999997E+02  0.45594000000E+02  0.51100000000E-03 0. -1.
    9900012    2    1    2    0    0 -0.24353218754E+02  0.15155131855E+02 -0.13927107801E+02  0.59301927540E+02  0.49999969931E+02 0.  0.
        -12    1    1    2    0    0  0.24353218754E+02 -0.15155131855E+02  0.13927107801E+02  0.31886072460E+02  0.00000000000E+00 0.  1.
         11    1    3    3    0    0  0.65647555186E+01  0.19857988733E+01 -0.16055068634E+02  0.17458655197E+02  0.51100000000E-03 0. -1.
        -11    1    3    3    0    0 -0.14125223593E+02 -0.66220032689E+01 -0.13361241752E+01  0.15657525249E+02  0.51100000000E-03 0.  1.
        -12    1    3    3    0    0 -0.16792750679E+02  0.19791336250E+02  0.34640850082E+01  0.26185747094E+02  0.00000000000E+00 0.  1.
</event>
<event>
 7    1  0.3802554E-013  0.5930189E+02  0.7816164E-02  0.1266605E+00
        -11   -1    0    0    0    0  0.00000000000E+00  0.00000000000E+00  0.45593999997E+02  0.45594000000E+02  0.51100000000E-03 0.  1.
         11   -1    0    0    0    0 -0.00000000000E+00 -0.00000000000E+00 -0.45593999997E+02  0.45594000000E+02  0.51100000000E-03 0. -1.
    9900012    2    1    2    0    0  0.92187839756E+01  0.10208244596E+02 -0.28766819025E+02  0.59301888407E+02  0.49999898561E+02 0.  0.
        -12    1    1    2    0    0 -0.92187839756E+01 -0.10208244596E+02  0.28766819025E+02  0.31886111593E+02  0.00000000000E+00 0.  1.
         11    1    3    3    0    0  0.22877072314E+02  0.68305005401E+01 -0.12711476169E+01  0.23908826651E+02  0.51100000000E-03 0.  1.
        -11    1    3    3    0    0  0.25362383465E+01  0.81779383368E+00 -0.13726093629E+02  0.13982379564E+02  0.51100000000E-03 0. -1.
        -12    1    3    3    0    0 -0.16194526685E+02  0.25599502220E+01 -0.13769577779E+02  0.21410682192E+02  0.00000000000E+00 0.  1.
</event>
<event>
 7    1  0.3802554E-013  0.5930195E+02  0.7816164E-02  0.1266605E+00
        -11   -1    0    0    0    0  0.00000000000E+00  0.00000000000E+00  0.45593999997E+02  0.45594000000E+02  0.51100000000E-03 0. -1.
         11   -1    0    0    0    0 -0.00000000000E+00 -0.00000000000E+00 -0.45593999997E+02  0.45594000000E+02  0.51100000000E-03 0.  1.
    9900012    2    1    2    0    0  0.23967558236E+02 -0.32287461485E+01  0.20781035098E+02  0.59301951809E+02  0.50000014191E+02 0.  0.
        -12    1    1    2    0    0 -0.23967558236E+02  0.32287461485E+01 -0.20781035098E+02  0.31886048191E+02  0.00000000000E+00 0.  1.
         11    1    3    3    0    0  0.16587023465E+02 -0.12373899509E+02  0.12691482604E+01  0.20732907998E+02  0.51100000000E-03 0. -1.
        -11    1    3    3    0    0  0.12846294929E+02  0.20267212158E+01 -0.38331360714E+01  0.13558312015E+02  0.51100000000E-03 0.  1.
         12    1    3    3    0    0 -0.54657601587E+01  0.71184321449E+01  0.23345022909E+02  0.25010731796E+02  0.00000000000E+00 0. -1.
</event>
<event>
 7    1  0.3802554E-013  0.5930225E+02  0.7816164E-02  0.1266604E+00
        -11   -1    0    0    0    0  0.00000000000E+00  0.00000000000E+00  0.45593999997E+02  0.45594000000E+02  0.51100000000E-03 0. -1.
         11   -1    0    0    0    0 -0.00000000000E+00 -0.00000000000E+00 -0.45593999997E+02  0.45594000000E+02  0.51100000000E-03 0.  1.
    9900012    2    1    2    0    0  0.10608057649E+02 -0.11894710508E+02  0.27616769338E+02  0.59302251243E+02  0.50000560284E+02 0.  0.
        -12    1    1    2    0    0 -0.10608057649E+02  0.11894710508E+02 -0.27616769338E+02  0.31885748757E+02  0.00000000000E+00 0.  1.
         11    1    3    3    0    0 -0.37940109275E+01 -0.37111226547E+01 -0.28736064595E+01  0.60352766814E+01  0.51100000000E-03 0.  1.
        -11    1    3    3    0    0  0.85984034133E+01  0.16225223748E+02  0.10240156764E+02  0.21025014572E+02  0.51100000000E-03 0. -1.
         12    1    3    3    0    0  0.58036651628E+01 -0.24408811601E+02  0.20250219033E+02  0.32241959990E+02  0.00000000000E+00 0. -1.
</event>
<event>
 7    1  0.3802554E-013  0.5930195E+02  0.7816164E-02  0.1266605E+00
        -11   -1    0    0    0    0  0.00000000000E+00  0.00000000000E+00  0.45593999997E+02  0.45594000000E+02  0.51100000000E-03 0. -1.
         11   -1    0    0    0    0 -0.00000000000E+00 -0.00000000000E+00 -0.45593999997E+02  0.45594000000E+02  0.51100000000E-03 0.  1.
    9900012    2    1    2    0    0 -0.20595825199E+02 -0.11615190439E+02  0.21392039921E+02  0.59301952322E+02  0.50000015127E+02 0.  0.
        -12    1    1    2    0    0  0.20595825199E+02  0.11615190439E+02 -0.21392039921E+02  0.31886047678E+02  0.00000000000E+00 0.  1.
         11    1    3    3    0    0 -0.47497199711E+01  0.32644615785E+01  0.26482910428E+02  0.27102787573E+02  0.51100000000E-03 0. -1.
        -11    1    3    3    0    0 -0.63825437927E+00  0.13210721975E+01  0.68281414372E+01  0.69839899879E+01  0.51100000000E-03 0.  1.
        -12    1    3    3    0    0 -0.15207850849E+02 -0.16200724215E+02 -0.11919011945E+02  0.25215174762E+02  0.00000000000E+00 0.  1.
</event>
<event>
 7    1  0.3802554E-013  0.5930191E+02  0.7816164E-02  0.1266605E+00
        -11   -1    0    0    0    0  0.00000000000E+00  0.00000000000E+00  0.45593999997E+02  0.45594000000E+02  0.51100000000E-03 0.  1.
         11   -1    0    0    0    0 -0.00000000000E+00 -0.00000000000E+00 -0.45593999997E+02  0.45594000000E+02  0.51100000000E-03 0. -1.
    9900012    2    1    2    0    0  0.69023259448E+01 -0.26756130113E+02 -0.15911949221E+02  0.59301910085E+02  0.49999938096E+02 0.  0.
        -12    1    1    2    0    0 -0.69023259448E+01  0.26756130113E+02  0.15911949221E+02  0.31886089915E+02  0.00000000000E+00 0.  1.
         11    1    3    3    0    0  0.31641272157E+01 -0.28690886435E+02  0.37572317511E+01  0.29108339976E+02  0.51100000000E-03 0. -1.
        -11    1    3    3    0    0 -0.48402139977E+01 -0.64381336472E+01 -0.11542979662E+01  0.81369306534E+01  0.51100000000E-03 0.  1.
         12    1    3    3    0    0  0.85784127268E+01  0.83728899692E+01 -0.18514883006E+02  0.22056639456E+02  0.00000000000E+00 0. -1.
</event>
<event>
 7    1  0.3802554E-013  0.5930194E+02  0.7816164E-02  0.1266605E+00
        -11   -1    0    0    0    0  0.00000000000E+00  0.00000000000E+00  0.45593999997E+02  0.45594000000E+02  0.51100000000E-03 0.  1.
         11   -1    0    0    0    0 -0.00000000000E+00 -0.00000000000E+00 -0.45593999997E+02  0.45594000000E+02  0.51100000000E-03 0. -1.
    9900012    2    1    2    0    0  0.16541889944E+02 -0.24692491840E+02  0.11548486991E+02  0.59301939912E+02  0.49999992493E+02 0.  0.
        -12    1    1    2    0    0 -0.16541889944E+02  0.24692491840E+02 -0.11548486991E+02  0.31886060088E+02  0.00000000000E+00 0.  1.
         11    1    3    3    0    0  0.27809775410E+01 -0.18272680167E+02 -0.11181978623E+01  0.18516885356E+02  0.51100000000E-03 0. -1.
        -11    1    3    3    0    0 -0.78109381242E+01 -0.12001578290E+02  0.11683376849E+02  0.18481069522E+02  0.51100000000E-03 0.  1.
         12    1    3    3    0    0  0.21571850527E+02  0.55817666174E+01  0.98330800485E+00  0.22303985033E+02  0.00000000000E+00 0. -1.
</event>
<event>
 7    1  0.3802554E-013  0.5930195E+02  0.7816164E-02  0.1266605E+00
        -11   -1    0    0    0    0  0.00000000000E+00  0.00000000000E+00  0.45593999997E+02  0.45594000000E+02  0.51100000000E-03 0.  1.
         11   -1    0    0    0    0 -0.00000000000E+00 -0.00000000000E+00 -0.45593999997E+02  0.45594000000E+02  0.51100000000E-03 0. -1.
    9900012    2    1    2    0    0  0.45332170980E+01 -0.19972966171E+02 -0.24438717215E+02  0.59301947657E+02  0.50000006618E+02 0.  0.
        -12    1    1    2    0    0 -0.45332170980E+01  0.19972966171E+02  0.24438717215E+02  0.31886052343E+02  0.00000000000E+00 0.  1.
         11    1    3    3    0    0  0.48198432184E+01  0.41183157489E+00  0.49758754222E+01  0.69397284078E+01  0.51100000000E-03 0. -1.
        -11    1    3    3    0    0 -0.58289197012E+01 -0.11038600004E+02  0.70340012597E+01  0.14328439165E+02  0.51100000000E-03 0.  1.
         12    1    3    3    0    0  0.55422935808E+01 -0.93461977418E+01 -0.36448593897E+02  0.38033780084E+02  0.00000000000E+00 0. -1.
</event>
<event>
 7    1  0.3802554E-013  0.5930193E+02  0.7816164E-02  0.1266605E+00
        -11   -1    0    0    0    0  0.00000000000E+00  0.00000000000E+00  0.45593999997E+02  0.45594000000E+02  0.51100000000E-03 0. -1.
         11   -1    0    0    0    0 -0.00000000000E+00 -0.00000000000E+00 -0.45593999997E+02  0.45594000000E+02  0.51100000000E-03 0.  1.
    9900012    2    1    2    0    0 -0.93721113881E+01 -0.30472849632E+02  0.53903748523E+00  0.59301927837E+02  0.49999970471E+02 0.  0.
        -12    1    1    2    0    0  0.93721113881E+01  0.30472849632E+02 -0.53903748523E+00  0.31886072163E+02  0.00000000000E+00 0.  1.
         11    1    3    3    0    0 -0.12704545695E+02  0.97640343363E+01 -0.68078529189E+01  0.17409443112E+02  0.51100000000E-03 0.  1.
        -11    1    3    3    0    0  0.30107476710E+01 -0.13797898864E+02  0.62086549672E+01  0.15427054527E+02  0.51100000000E-03 0. -1.
        -12    1    3    3    0    0  0.32168663638E+00 -0.26438985105E+02  0.11382354369E+01  0.26465430198E+02  0.00000000000E+00 0.  1.
</event>
<event>
 7    1  0.3802554E-013  0.5930195E+02  0.7816164E-02  0.1266605E+00
        -11   -1    0    0    0    0  0.00000000000E+00  0.00000000000E+00  0.45593999997E+02  0.45594000000E+02  0.51100000000E-03 0. -1.
         11   -1    0    0    0    0 -0.00000000000E+00 -0.00000000000E+00 -0.45593999997E+02  0.45594000000E+02  0.51100000000E-03 0.  1.
    9900012    2    1    2    0    0  0.62912359631E+01 -0.18234484575E+00  0.31258717602E+02  0.59301947787E+02  0.50000006857E+02 0.  0.
        -12    1    1    2    0    0 -0.62912359631E+01  0.18234484575E+00 -0.31258717602E+02  0.31886052213E+02  0.00000000000E+00 0.  1.
         11    1    3    3    0    0  0.58159900876E+01 -0.95317776709E+00 -0.20311927849E+01  0.62337815927E+01  0.51100000000E-03 0.  1.
        -11    1    3    3    0    0 -0.20284934535E+02 -0.19126935677E+00  0.19416528706E+02  0.28080540242E+02  0.51100000000E-03 0. -1.
         12    1    3    3    0    0  0.20760180410E+02  0.96210227811E+00  0.13873381681E+02  0.24987625952E+02  0.00000000000E+00 0. -1.
</event>
<event>
 7    1  0.3802554E-013  0.5930194E+02  0.7816164E-02  0.1266605E+00
        -11   -1    0    0    0    0  0.00000000000E+00  0.00000000000E+00  0.45593999997E+02  0.45594000000E+02  0.51100000000E-03 0.  1.
         11   -1    0    0    0    0 -0.00000000000E+00 -0.00000000000E+00 -0.45593999997E+02  0.45594000000E+02  0.51100000000E-03 0. -1.
    9900012    2    1    2    0    0 -0.36977581016E+01  0.22405842417E+02  0.22383600529E+02  0.59301940946E+02  0.49999994379E+02 0.  0.
        -12    1    1    2    0    0  0.36977581016E+01 -0.22405842417E+02 -0.22383600529E+02  0.31886059054E+02  0.00000000000E+00 0.  1.
         11    1    3    3    0    0 -0.46452822264E+01  0.77231236525E+00  0.87219779693E+01  0.99120135851E+01  0.51100000000E-03 0. -1.
        -11    1    3    3    0    0 -0.14785114093E+02  0.27038919515E+02  0.83803706435E+01  0.31936395846E+02  0.51100000000E-03 0.  1.
        -12    1    3    3    0    0  0.15732638217E+02 -0.54053894633E+01  0.52812519164E+01  0.17453531515E+02  0.00000000000E+00 0.  1.
</event>
<event>
 7    1  0.3802554E-013  0.5930196E+02  0.7816164E-02  0.1266605E+00
        -11   -1    0    0    0    0  0.00000000000E+00  0.00000000000E+00  0.45593999997E+02  0.45594000000E+02  0.51100000000E-03 0.  1.
         11   -1    0    0    0    0 -0.00000000000E+00 -0.00000000000E+00 -0.45593999997E+02  0.45594000000E+02  0.51100000000E-03 0. -1.
    9900012    2    1    2    0    0 -0.47337649723E+01 -0.10589469881E+02 -0.29701416504E+02  0.59301960022E+02  0.50000029169E+02 0.  0.
        -12    1    1    2    0    0  0.47337649723E+01  0.10589469881E+02  0.29701416504E+02  0.31886039978E+02  0.00000000000E+00 0.  1.
         11    1    3    3    0    0 -0.15477415171E+02 -0.25312913131E+00  0.88536660191E+01  0.17832606567E+02  0.51100000000E-03 0.  1.
        -11    1    3    3    0    0  0.35499586742E+01 -0.16897033720E+01 -0.12091330311E+02  0.12714463143E+02  0.51100000000E-03 0. -1.
        -12    1    3    3    0    0  0.71936915245E+01 -0.86466373774E+01 -0.26463752212E+02  0.28754890311E+02  0.00000000000E+00 0.  1.
</event>
<event>
 7    1  0.3802554E-013  0.5930196E+02  0.7816164E-02  0.1266605E+00
        -11   -1    0    0    0    0  0.00000000000E+00  0.00000000000E+00  0.45593999997E+02  0.45594000000E+02  0.51100000000E-03 0. -1.
         11   -1    0    0    0    0 -0.00000000000E+00 -0.00000000000E+00 -0.45593999997E+02  0.45594000000E+02  0.51100000000E-03 0.  1.
    9900012    2    1    2    0    0  0.92659701297E+01 -0.30442443455E+02  0.20294767505E+01  0.59301963215E+02  0.50000034993E+02 0.  0.
        -12    1    1    2    0    0 -0.92659701297E+01  0.30442443455E+02 -0.20294767505E+01  0.31886036785E+02  0.00000000000E+00 0.  1.
         11    1    3    3    0    0 -0.13942942516E+02 -0.13786499131E+02 -0.47318546851E+01  0.20170861492E+02  0.51100000000E-03 0. -1.
        -11    1    3    3    0    0  0.24128615486E+00  0.52486471551E+01 -0.28395418886E+01  0.59723960322E+01  0.51100000000E-03 0.  1.
         12    1    3    3    0    0  0.22967626491E+02 -0.21904591480E+02  0.96008733242E+01  0.33158705691E+02  0.00000000000E+00 0. -1.
</event>
<event>
 7    1  0.3802554E-013  0.5930195E+02  0.7816164E-02  0.1266605E+00
        -11   -1    0    0    0    0  0.00000000000E+00  0.00000000000E+00  0.45593999997E+02  0.45594000000E+02  0.51100000000E-03 0.  1.
         11   -1    0    0    0    0 -0.00000000000E+00 -0.00000000000E+00 -0.45593999997E+02  0.45594000000E+02  0.51100000000E-03 0. -1.
    9900012    2    1    2    0    0  0.25628752937E+02  0.10148471129E+02  0.16027971675E+02  0.59301947887E+02  0.50000007038E+02 0.  0.
        -12    1    1    2    0    0 -0.25628752937E+02 -0.10148471129E+02 -0.16027971675E+02  0.31886052113E+02  0.00000000000E+00 0.  1.
         11    1    3    3    0    0 -0.58505231805E+01 -0.39223825886E+01 -0.67335442174E+01  0.97444509669E+01  0.51100000000E-03 0. -1.
        -11    1    3    3    0    0 -0.96303101598E-01  0.53828366862E+01  0.14949856600E+02  0.15889695330E+02  0.51100000000E-03 0.  1.
         12    1    3    3    0    0  0.31575579219E+02  0.86880170313E+01  0.78116592923E+01  0.33667801589E+02  0.00000000000E+00 0. -1.
</event>
<event>
 7    1  0.3802554E-013  0.5930201E+02  0.7816164E-02  0.1266605E+00
        -11   -1    0    0    0    0  0.00000000000E+00  0.00000000000E+00  0.45593999997E+02  0.45594000000E+02  0.51100000000E-03 0.  1.
         11   -1    0    0    0    0 -0.00000000000E+00 -0.00000000000E+00 -0.45593999997E+02  0.45594000000E+02  0.51100000000E-03 0. -1.
    9900012    2    1    2    0    0  0.45083707397E+01  0.11201595798E+02 -0.29511272826E+02  0.59302009676E+02  0.50000119726E+02 0.  0.
        -12    1    1    2    0    0 -0.45083707397E+01 -0.11201595798E+02  0.29511272826E+02  0.31885990324E+02  0.00000000000E+00 0.  1.
         11    1    3    3    0    0  0.14540123964E+01  0.40422188991E+00  0.82573537628E+01  0.83941312124E+01  0.51100000000E-03 0. -1.
        -11    1    3    3    0    0 -0.11029007723E+02  0.22535386675E+01 -0.18709883988E+01  0.11411312182E+02  0.51100000000E-03 0.  1.
         12    1    3    3    0    0  0.14083366066E+02  0.85438352401E+01 -0.35897638190E+02  0.39496566281E+02  0.00000000000E+00 0. -1.
</event>
<event>
 7    1  0.3802554E-013  0.5930185E+02  0.7816164E-02  0.1266605E+00
        -11   -1    0    0    0    0  0.00000000000E+00  0.00000000000E+00  0.45593999997E+02  0.45594000000E+02  0.51100000000E-03 0.  1.
         11   -1    0    0    0    0 -0.00000000000E+00 -0.00000000000E+00 -0.45593999997E+02  0.45594000000E+02  0.51100000000E-03 0. -1.
    9900012    2    1    2    0    0 -0.98776931633E+01 -0.23776217514E+02 -0.18810884080E+02  0.59301847811E+02  0.49999824524E+02 0.  0.
        -12    1    1    2    0    0  0.98776931633E+01  0.23776217514E+02  0.18810884080E+02  0.31886152189E+02  0.00000000000E+00 0.  1.
         11    1    3    3    0    0 -0.17896308573E+01  0.21630122460E+01  0.25430642242E+00  0.28188778972E+01  0.51100000000E-03 0. -1.
        -11    1    3    3    0    0  0.28466771195E+01 -0.52819120772E+01 -0.30060120460E+02  0.30653107643E+02  0.51100000000E-03 0.  1.
         12    1    3    3    0    0 -0.10934739426E+02 -0.20657317683E+02  0.10994929958E+02  0.25829862271E+02  0.00000000000E+00 0. -1.
</event>
<event>
 7    1  0.3802554E-013  0.5930195E+02  0.7816164E-02  0.1266605E+00
        -11   -1    0    0    0    0  0.00000000000E+00  0.00000000000E+00  0.45593999997E+02  0.45594000000E+02  0.51100000000E-03 0. -1.
         11   -1    0    0    0    0 -0.00000000000E+00 -0.00000000000E+00 -0.45593999997E+02  0.45594000000E+02  0.51100000000E-03 0.  1.
    9900012    2    1    2    0    0  0.17247416645E+02 -0.24576146134E+02  0.10735905129E+02  0.59301952916E+02  0.50000016209E+02 0.  0.
        -12    1    1    2    0    0 -0.17247416645E+02  0.24576146134E+02 -0.10735905129E+02  0.31886047084E+02  0.00000000000E+00 0.  1.
         11    1    3    3    0    0 -0.87397493405E+01 -0.14649979499E+02  0.10472464017E+01  0.17090987190E+02  0.51100000000E-03 0.  1.
        -11    1    3    3    0    0  0.23502700148E+02 -0.17913792878E+02  0.14112448572E+02  0.32748161697E+02  0.51100000000E-03 0. -1.
         12    1    3    3    0    0  0.24844658368E+01  0.79876262430E+01 -0.44237898447E+01  0.94628040285E+01  0.00000000000E+00 0. -1.
</event>
<event>
 7    1  0.3802554E-013  0.5930194E+02  0.7816164E-02  0.1266605E+00
        -11   -1    0    0    0    0  0.00000000000E+00  0.00000000000E+00  0.45593999997E+02  0.45594000000E+02  0.51100000000E-03 0.  1.
         11   -1    0    0    0    0 -0.00000000000E+00 -0.00000000000E+00 -0.45593999997E+02  0.45594000000E+02  0.51100000000E-03 0. -1.
    9900012    2    1    2    0    0 -0.27887054625E+02 -0.10483725961E+02 -0.11363295612E+02  0.59301940149E+02  0.49999992926E+02 0.  0.
        -12    1    1    2    0    0  0.27887054625E+02  0.10483725961E+02  0.11363295612E+02  0.31886059851E+02  0.00000000000E+00 0.  1.
         11    1    3    3    0    0 -0.27032272246E+00 -0.23929926668E+01  0.81877634860E+01  0.85345743562E+01  0.51100000000E-03 0. -1.
        -11    1    3    3    0    0  0.30245050697E+01  0.98643189251E+00  0.79772035938E+01  0.85881579069E+01  0.51100000000E-03 0.  1.
         12    1    3    3    0    0 -0.30641236972E+02 -0.90771651865E+01 -0.27528262692E+02  0.42179207886E+02  0.00000000000E+00 0. -1.
</event>
<event>
 7    1  0.3802554E-013  0.5930194E+02  0.7816164E-02  0.1266605E+00
        -11   -1    0    0    0    0  0.00000000000E+00  0.00000000000E+00  0.45593999997E+02  0.45594000000E+02  0.51100000000E-03 0.  1.
         11   -1    0    0    0    0 -0.00000000000E+00 -0.00000000000E+00 -0.45593999997E+02  0.45594000000E+02  0.51100000000E-03 0. -1.
    9900012    2    1    2    0    0  0.22730011334E+02  0.88379095646E+00 -0.22344712280E+02  0.59301942411E+02  0.49999997051E+02 0.  0.
        -12    1    1    2    0    0 -0.22730011334E+02 -0.88379095646E+00  0.22344712280E+02  0.31886057589E+02  0.00000000000E+00 0.  1.
         11    1    3    3    0    0  0.11722588139E+02 -0.51505125371E+01 -0.20410931970E+02  0.24094667381E+02  0.51100000000E-03 0. -1.
        -11    1    3    3    0    0  0.64907914977E+01  0.15723076994E+02 -0.11766311635E+02  0.20683123898E+02  0.51100000000E-03 0.  1.
        -12    1    3    3    0    0  0.45166316973E+01 -0.96887735007E+01  0.98325313244E+01  0.14524151131E+02  0.00000000000E+00 0.  1.
</event>
<event>
 7    1  0.3802554E-013  0.5930194E+02  0.7816164E-02  0.1266605E+00
        -11   -1    0    0    0    0  0.00000000000E+00  0.00000000000E+00  0.45593999997E+02  0.45594000000E+02  0.51100000000E-03 0. -1.
         11   -1    0    0    0    0 -0.00000000000E+00 -0.00000000000E+00 -0.45593999997E+02  0.45594000000E+02  0.51100000000E-03 0.  1.
    9900012    2    1    2    0    0 -0.50951912268E+01 -0.59643769695E+01  0.30906085635E+02  0.59301938852E+02  0.49999990561E+02 0.  0.
        -12    1    1    2    0    0  0.50951912268E+01  0.59643769695E+01 -0.30906085635E+02  0.31886061148E+02  0.00000000000E+00 0.  1.
         11    1    3    3    0    0 -0.62822175882E+00 -0.21562142793E+02  0.24579000775E+02  0.32702414953E+02  0.51100000000E-03 0. -1.
        -11    1    3    3    0    0 -0.81048231382E+01 -0.12527436310E+01  0.42477438693E+01  0.92358460872E+01  0.51100000000E-03 0.  1.
        -12    1    3    3    0    0  0.36378536702E+01  0.16850509455E+02  0.20793409903E+01  0.17363677812E+02  0.00000000000E+00 0.  1.
</event>
<event>
 7    1  0.3802554E-013  0.5930197E+02  0.7816164E-02  0.1266605E+00
        -11   -1    0    0    0    0  0.00000000000E+00  0.00000000000E+00  0.45593999997E+02  0.45594000000E+02  0.51100000000E-03 0.  1.
         11   -1    0    0    0    0 -0.00000000000E+00 -0.00000000000E+00 -0.45593999997E+02  0.45594000000E+02  0.51100000000E-03 0. -1.
    9900012    2    1    2    0    0  0.13544581067E+02  0.16897950363E+02 -0.23403474277E+02  0.59301968404E+02  0.50000044456E+02 0.  0.
        -12    1    1    2    0    0 -0.13544581067E+02 -0.16897950363E+02  0.23403474277E+02  0.31886031596E+02  0.00000000000E+00 0.  1.
         11    1    3    3    0    0  0.23771634851E+02  0.95974628579E+01 -0.17256279760E+02  0.30902768618E+02  0.51100000000E-03 0. -1.
        -11    1    3    3    0    0  0.96164544136E+00  0.13495217434E+02 -0.76164166086E+01  0.15525960768E+02  0.51100000000E-03 0.  1.
        -12    1    3    3    0    0 -0.11188699226E+02 -0.61947299288E+01  0.14692220923E+01  0.12873239018E+02  0.00000000000E+00 0.  1.
</event>
<event>
 7    1  0.3802554E-013  0.5930195E+02  0.7816164E-02  0.1266605E+00
        -11   -1    0    0    0    0  0.00000000000E+00  0.00000000000E+00  0.45593999997E+02  0.45594000000E+02  0.51100000000E-03 0.  1.
         11   -1    0    0    0    0 -0.00000000000E+00 -0.00000000000E+00 -0.45593999997E+02  0.45594000000E+02  0.51100000000E-03 0. -1.
    9900012    2    1    2    0    0 -0.67427383067E+01 -0.19544012210E+02 -0.24275245232E+02  0.59301945616E+02  0.50000002896E+02 0.  0.
        -12    1    1    2    0    0  0.67427383067E+01  0.19544012210E+02  0.24275245232E+02  0.31886054384E+02  0.00000000000E+00 0.  1.
         11    1    3    3    0    0 -0.99419916720E+01  0.68540684315E+01 -0.16092310936E+02  0.20119242630E+02  0.51100000000E-03 0. -1.
        -11    1    3    3    0    0 -0.20726749368E+01  0.50901710630E+01 -0.43852661108E+01  0.70311010494E+01  0.51100000000E-03 0.  1.
        -12    1    3    3    0    0  0.52719283021E+01 -0.31488251704E+02 -0.37976681848E+01  0.32151601936E+02  0.00000000000E+00 0.  1.
</event>
<event>
 7    1  0.3802554E-013  0.5930155E+02  0.7816164E-02  0.1266606E+00
        -11   -1    0    0    0    0  0.00000000000E+00  0.00000000000E+00  0.45593999997E+02  0.45594000000E+02  0.51100000000E-03 0. -1.
         11   -1    0    0    0    0 -0.00000000000E+00 -0.00000000000E+00 -0.45593999997E+02  0.45594000000E+02  0.51100000000E-03 0.  1.
    9900012    2    1    2    0    0  0.18518569131E+02 -0.98614553631E+01  0.24011669810E+02  0.59301545327E+02  0.49999272861E+02 0.  0.
        -12    1    1    2    0    0 -0.18518569131E+02  0.98614553631E+01 -0.24011669810E+02  0.31886454673E+02  0.00000000000E+00 0.  1.
         11    1    3    3    0    0  0.13427941692E+02  0.16448852272E+01  0.23917052553E+02  0.27478003358E+02  0.51100000000E-03 0. -1.
        -11    1    3    3    0    0  0.11709598042E+02  0.28255580859E+00  0.97252891316E+01  0.15224183822E+02  0.51100000000E-03 0.  1.
        -12    1    3    3    0    0 -0.66189706032E+01 -0.11788896399E+02 -0.96306718744E+01  0.16599358147E+02  0.00000000000E+00 0.  1.
</event>
<event>
 7    1  0.3802554E-013  0.5930197E+02  0.7816164E-02  0.1266605E+00
        -11   -1    0    0    0    0  0.00000000000E+00  0.00000000000E+00  0.45593999997E+02  0.45594000000E+02  0.51100000000E-03 0. -1.
         11   -1    0    0    0    0 -0.00000000000E+00 -0.00000000000E+00 -0.45593999997E+02  0.45594000000E+02  0.51100000000E-03 0.  1.
    9900012    2    1    2    0    0 -0.24248525569E+02 -0.65336821384E+00  0.20695431685E+02  0.59301972105E+02  0.50000051205E+02 0.  0.
        -12    1    1    2    0    0  0.24248525569E+02  0.65336821384E+00 -0.20695431685E+02  0.31886027895E+02  0.00000000000E+00 0.  1.
         11    1    3    3    0    0 -0.87906405815E+01 -0.14363953742E+01 -0.19291047526E+01  0.91137280468E+01  0.51100000000E-03 0. -1.
        -11    1    3    3    0    0 -0.15796861481E+02  0.17487002556E+02  0.20066960176E+01  0.23650854535E+02  0.51100000000E-03 0.  1.
         12    1    3    3    0    0  0.33897649326E+00 -0.16703975396E+02  0.20617840420E+02  0.26537389523E+02  0.00000000000E+00 0. -1.
</event>
<event>
 7    1  0.3802554E-013  0.5930187E+02  0.7816164E-02  0.1266605E+00
        -11   -1    0    0    0    0  0.00000000000E+00  0.00000000000E+00  0.45593999997E+02  0.45594000000E+02  0.51100000000E-03 0.  1.
         11   -1    0    0    0    0 -0.00000000000E+00 -0.00000000000E+00 -0.45593999997E+02  0.45594000000E+02  0.51100000000E-03 0. -1.
    9900012    2    1    2    0    0 -0.18178950021E+02  0.12302148661E+02 -0.23128078796E+02  0.59301872697E+02  0.49999869911E+02 0.  0.
        -12    1    1    2    0    0  0.18178950021E+02 -0.12302148661E+02  0.23128078796E+02  0.31886127303E+02  0.00000000000E+00 0.  1.
         11    1    3    3    0    0 -0.17917028380E+01 -0.20709440739E+01  0.70526474219E+01  0.75656357522E+01  0.51100000000E-03 0. -1.
        -11    1    3    3    0    0 -0.87735194326E+01  0.10690343386E+02  0.56363988209E+01  0.14934091096E+02  0.51100000000E-03 0.  1.
         12    1    3    3    0    0 -0.76137277501E+01  0.36827493493E+01 -0.35817125039E+02  0.36802145849E+02  0.00000000000E+00 0. -1.
</event>
<event>
 7    1  0.3802554E-013  0.5930194E+02  0.7816164E-02  0.1266605E+00
        -11   -1    0    0    0    0  0.00000000000E+00  0.00000000000E+00  0.45593999997E+02  0.45594000000E+02  0.51100000000E-03 0.  1.
         11   -1    0    0    0    0 -0.00000000000E+00 -0.00000000000E+00 -0.45593999997E+02  0.45594000000E+02  0.51100000000E-03 0. -1.
    9900012    2    1    2    0    0  0.16105753879E+02 -0.27094344470E+02 -0.48189209986E+01  0.59301940195E+02  0.49999993010E+02 0.  0.
        -12    1    1    2    0    0 -0.16105753879E+02  0.27094344470E+02  0.48189209986E+01  0.31886059805E+02  0.00000000000E+00 0.  1.
         11    1    3    3    0    0  0.27658349065E+02 -0.18576857004E+02 -0.44746518567E+01  0.33617055175E+02  0.51100000000E-03 0. -1.
        -11    1    3    3    0    0  0.47103956302E+01  0.15714374076E+01 -0.37800976314E+01  0.62407035568E+01  0.51100000000E-03 0.  1.
        -12    1    3    3    0    0 -0.16262990815E+02 -0.10088924873E+02  0.34358284896E+01  0.19444181463E+02  0.00000000000E+00 0.  1.
</event>
<event>
 7    1  0.3802554E-013  0.5930195E+02  0.7816164E-02  0.1266605E+00
        -11   -1    0    0    0    0  0.00000000000E+00  0.00000000000E+00  0.45593999997E+02  0.45594000000E+02  0.51100000000E-03 0.  1.
         11   -1    0    0    0    0 -0.00000000000E+00 -0.00000000000E+00 -0.45593999997E+02  0.45594000000E+02  0.51100000000E-03 0. -1.
    9900012    2    1    2    0    0  0.53121908550E+01 -0.94053534931E+01 -0.30000664343E+02  0.59301954353E+02  0.50000018831E+02 0.  0.
        -12    1    1    2    0    0 -0.53121908550E+01  0.94053534931E+01  0.30000664343E+02  0.31886045647E+02  0.00000000000E+00 0.  1.
         11    1    3    3    0    0  0.96019877972E+00 -0.94343928515E+01 -0.15201367507E+02  0.17916788901E+02  0.51100000000E-03 0. -1.
        -11    1    3    3    0    0 -0.20788686016E+01 -0.16876752621E+02 -0.15878641726E+02  0.23265376356E+02  0.51100000000E-03 0.  1.
        -12    1    3    3    0    0  0.64308606769E+01  0.16905791979E+02  0.10793448902E+01  0.18119789096E+02  0.00000000000E+00 0.  1.
</event>
<event>
 7    1  0.3802554E-013  0.5930197E+02  0.7816164E-02  0.1266605E+00
        -11   -1    0    0    0    0  0.00000000000E+00  0.00000000000E+00  0.45593999997E+02  0.45594000000E+02  0.51100000000E-03 0.  1.
         11   -1    0    0    0    0 -0.00000000000E+00 -0.00000000000E+00 -0.45593999997E+02  0.45594000000E+02  0.51100000000E-03 0. -1.
    9900012    2    1    2    0    0 -0.23001990513E+02  0.80099538567E+01 -0.20578339668E+02  0.59301968703E+02  0.50000045003E+02 0.  0.
        -12    1    1    2    0    0  0.23001990513E+02 -0.80099538567E+01  0.20578339668E+02  0.31886031297E+02  0.00000000000E+00 0.  1.
         11    1    3    3    0    0 -0.19163356811E+02  0.11972857863E+02 -0.10054268241E+02  0.24732001128E+02  0.51100000000E-03 0. -1.
        -11    1    3    3    0    0 -0.63477463006E+01 -0.72720844633E+01  0.98415428936E+01  0.13785247997E+02  0.51100000000E-03 0.  1.
        -12    1    3    3    0    0  0.25091125984E+01  0.33091804573E+01 -0.20365614320E+02  0.20784719579E+02  0.00000000000E+00 0.  1.
</event>
<event>
 7    1  0.3802554E-013  0.5930191E+02  0.7816164E-02  0.1266605E+00
        -11   -1    0    0    0    0  0.00000000000E+00  0.00000000000E+00  0.45593999997E+02  0.45594000000E+02  0.51100000000E-03 0.  1.
         11   -1    0    0    0    0 -0.00000000000E+00 -0.00000000000E+00 -0.45593999997E+02  0.45594000000E+02  0.51100000000E-03 0. -1.
    9900012    2    1    2    0    0  0.24924085980E+02 -0.19865694023E+02 -0.93109084955E+00  0.59301909127E+02  0.49999936350E+02 0.  0.
        -12    1    1    2    0    0 -0.24924085980E+02  0.19865694023E+02  0.93109084955E+00  0.31886090873E+02  0.00000000000E+00 0.  1.
         11    1    3    3    0    0  0.12951634915E+02 -0.14523980696E+02 -0.19733808806E+02  0.27714870963E+02  0.51100000000E-03 0. -1.
        -11    1    3    3    0    0 -0.55525868877E+01 -0.19449849015E+01  0.32130604276E+00  0.58921494590E+01  0.51100000000E-03 0.  1.
        -12    1    3    3    0    0  0.17525037954E+02 -0.33967284258E+01  0.18481411914E+02  0.25694888706E+02  0.00000000000E+00 0.  1.
</event>
<event>
 7    1  0.3802554E-013  0.5930191E+02  0.7816164E-02  0.1266605E+00
        -11   -1    0    0    0    0  0.00000000000E+00  0.00000000000E+00  0.45593999997E+02  0.45594000000E+02  0.51100000000E-03 0.  1.
         11   -1    0    0    0    0 -0.00000000000E+00 -0.00000000000E+00 -0.45593999997E+02  0.45594000000E+02  0.51100000000E-03 0. -1.
    9900012    2    1    2    0    0  0.11210093603E+02 -0.28555505762E+02 -0.86971205236E+01  0.59301905643E+02  0.49999929996E+02 0.  0.
        -12    1    1    2    0    0 -0.11210093603E+02  0.28555505762E+02  0.86971205236E+01  0.31886094357E+02  0.00000000000E+00 0.  1.
         11    1    3    3    0    0  0.21127715440E+02 -0.16669725259E+02 -0.20088339603E+01  0.26986950811E+02  0.51100000000E-03 0. -1.
        -11    1    3    3    0    0  0.96093880653E+01 -0.32178913360E+01 -0.34588200862E+01  0.10707875620E+02  0.51100000000E-03 0.  1.
        -12    1    3    3    0    0 -0.19527009903E+02 -0.86678891672E+01 -0.32294664770E+01  0.21607079212E+02  0.00000000000E+00 0.  1.
</event>
<event>
 7    1  0.3802554E-013  0.5930196E+02  0.7816164E-02  0.1266605E+00
        -11   -1    0    0    0    0  0.00000000000E+00  0.00000000000E+00  0.45593999997E+02  0.45594000000E+02  0.51100000000E-03 0.  1.
         11   -1    0    0    0    0 -0.00000000000E+00 -0.00000000000E+00 -0.45593999997E+02  0.45594000000E+02  0.51100000000E-03 0. -1.
    9900012    2    1    2    0    0  0.54962974219E+00 -0.29766388315E+01 -0.31742038612E+02  0.59301960941E+02  0.50000030847E+02 0.  0.
        -12    1    1    2    0    0 -0.54962974219E+00  0.29766388315E+01  0.31742038612E+02  0.31886039059E+02  0.00000000000E+00 0.  1.
         11    1    3    3    0    0 -0.46374641260E+01  0.96514313216E+01  0.18605293596E+01  0.10868199935E+02  0.51100000000E-03 0.  1.
        -11    1    3    3    0    0 -0.77206436028E+01 -0.13735396213E+02 -0.42047522500E+01  0.16307954762E+02  0.51100000000E-03 0. -1.
         12    1    3    3    0    0  0.12907737471E+02  0.11073260601E+01 -0.29397815722E+02  0.32125806244E+02  0.00000000000E+00 0. -1.
</event>
<event>
 7    1  0.3802554E-013  0.5930193E+02  0.7816164E-02  0.1266605E+00
        -11   -1    0    0    0    0  0.00000000000E+00  0.00000000000E+00  0.45593999997E+02  0.45594000000E+02  0.51100000000E-03 0.  1.
         11   -1    0    0    0    0 -0.00000000000E+00 -0.00000000000E+00 -0.45593999997E+02  0.45594000000E+02  0.51100000000E-03 0. -1.
    9900012    2    1    2    0    0 -0.66447738343E+01  0.11526289500E+02 -0.28977798668E+02  0.59301934319E+02  0.49999982294E+02 0.  0.
        -12    1    1    2    0    0  0.66447738343E+01 -0.11526289500E+02  0.28977798668E+02  0.31886065681E+02  0.00000000000E+00 0.  1.
         11    1    3    3    0    0 -0.10805295949E+02  0.93158908117E+01 -0.18698789055E+01  0.14388769563E+02  0.51100000000E-03 0. -1.
        -11    1    3    3    0    0  0.14144103162E+02  0.19061907002E+01  0.17469232324E+01  0.14378489429E+02  0.51100000000E-03 0.  1.
         12    1    3    3    0    0 -0.99835810466E+01  0.30420798796E+00 -0.28854842995E+02  0.30534675326E+02  0.00000000000E+00 0. -1.
</event>
<event>
 7    1  0.3802554E-013  0.5930181E+02  0.7816164E-02  0.1266605E+00
        -11   -1    0    0    0    0  0.00000000000E+00  0.00000000000E+00  0.45593999997E+02  0.45594000000E+02  0.51100000000E-03 0.  1.
         11   -1    0    0    0    0 -0.00000000000E+00 -0.00000000000E+00 -0.45593999997E+02  0.45594000000E+02  0.51100000000E-03 0. -1.
    9900012    2    1    2    0    0  0.12035159953E+02 -0.10416856247E+02 -0.27629210206E+02  0.59301808227E+02  0.49999752332E+02 0.  0.
        -12    1    1    2    0    0 -0.12035159953E+02  0.10416856247E+02  0.27629210206E+02  0.31886191773E+02  0.00000000000E+00 0.  1.
         11    1    3    3    0    0  0.10856585965E+02 -0.15891657649E+02 -0.12287414374E+02  0.22833983312E+02  0.51100000000E-03 0. -1.
        -11    1    3    3    0    0 -0.38253932268E+01 -0.60761483905E+01 -0.21345829709E+02  0.22521049239E+02  0.51100000000E-03 0.  1.
         12    1    3    3    0    0  0.50039672150E+01  0.11550949792E+02  0.60040338761E+01  0.13946775677E+02  0.00000000000E+00 0. -1.
</event>
<event>
 7    1  0.3802554E-013  0.5930196E+02  0.7816164E-02  0.1266605E+00
        -11   -1    0    0    0    0  0.00000000000E+00  0.00000000000E+00  0.45593999997E+02  0.45594000000E+02  0.51100000000E-03 0.  1.
         11   -1    0    0    0    0 -0.00000000000E+00 -0.00000000000E+00 -0.45593999997E+02  0.45594000000E+02  0.51100000000E-03 0. -1.
    9900012    2    1    2    0    0  0.82968268082E+01 -0.22361247011E+02 -0.21162635350E+02  0.59301955436E+02  0.50000020806E+02 0.  0.
        -12    1    1    2    0    0 -0.82968268082E+01  0.22361247011E+02  0.21162635350E+02  0.31886044564E+02  0.00000000000E+00 0.  1.
         11    1    3    3    0    0  0.81436534335E+01  0.49236022778E+01 -0.38501755651E+01  0.10265710047E+02  0.51100000000E-03 0. -1.
        -11    1    3    3    0    0  0.33497041533E+01 -0.89277538622E+01 -0.26570494104E+02  0.28229708892E+02  0.51100000000E-03 0.  1.
        -12    1    3    3    0    0 -0.31965307786E+01 -0.18357095427E+02  0.92580343188E+01  0.20806536497E+02  0.00000000000E+00 0.  1.
</event>
<event>
 7    1  0.3802554E-013  0.5930195E+02  0.7816164E-02  0.1266605E+00
        -11   -1    0    0    0    0  0.00000000000E+00  0.00000000000E+00  0.45593999997E+02  0.45594000000E+02  0.51100000000E-03 0. -1.
         11   -1    0    0    0    0 -0.00000000000E+00 -0.00000000000E+00 -0.45593999997E+02  0.45594000000E+02  0.51100000000E-03 0.  1.
    9900012    2    1    2    0    0  0.68470738844E+01 -0.27251192334E+02  0.15073502312E+02  0.59301946994E+02  0.50000005409E+02 0.  0.
        -12    1    1    2    0    0 -0.68470738844E+01  0.27251192334E+02 -0.15073502312E+02  0.31886053006E+02  0.00000000000E+00 0.  1.
         11    1    3    3    0    0  0.12931670834E+02 -0.13944768014E+02  0.31544755446E+01  0.19277846917E+02  0.51100000000E-03 0. -1.
        -11    1    3    3    0    0  0.78059826951E+01 -0.20861631839E+02  0.85368286210E+01  0.23854108493E+02  0.51100000000E-03 0.  1.
        -12    1    3    3    0    0 -0.13890579645E+02  0.75552075197E+01  0.33821981460E+01  0.16169991584E+02  0.00000000000E+00 0.  1.
</event>
<event>
 7    1  0.3802554E-013  0.5930199E+02  0.7816164E-02  0.1266605E+00
        -11   -1    0    0    0    0  0.00000000000E+00  0.00000000000E+00  0.45593999997E+02  0.45594000000E+02  0.51100000000E-03 0. -1.
         11   -1    0    0    0    0 -0.00000000000E+00 -0.00000000000E+00 -0.45593999997E+02  0.45594000000E+02  0.51100000000E-03 0.  1.
    9900012    2    1    2    0    0 -0.20254025920E+02 -0.17810620677E+02  0.17008059464E+02  0.59301986427E+02  0.50000077326E+02 0.  0.
        -12    1    1    2    0    0  0.20254025920E+02  0.17810620677E+02 -0.17008059464E+02  0.31886013573E+02  0.00000000000E+00 0.  1.
         11    1    3    3    0    0 -0.16357252295E+02 -0.10641000931E+02 -0.25801281489E+01  0.19683690330E+02  0.51100000000E-03 0. -1.
        -11    1    3    3    0    0 -0.10627677944E+02 -0.15723312775E+02  0.22011393270E+01  0.19105368819E+02  0.51100000000E-03 0.  1.
         12    1    3    3    0    0  0.67309043194E+01  0.85536930298E+01  0.17387048286E+02  0.20512927278E+02  0.00000000000E+00 0. -1.
</event>
<event>
 7    1  0.3802554E-013  0.5930194E+02  0.7816164E-02  0.1266605E+00
        -11   -1    0    0    0    0  0.00000000000E+00  0.00000000000E+00  0.45593999997E+02  0.45594000000E+02  0.51100000000E-03 0. -1.
         11   -1    0    0    0    0 -0.00000000000E+00 -0.00000000000E+00 -0.45593999997E+02  0.45594000000E+02  0.51100000000E-03 0.  1.
    9900012    2    1    2    0    0  0.30100957020E+02 -0.49698507607E+01  0.92711241868E+01  0.59301940761E+02  0.49999994042E+02 0.  0.
        -12    1    1    2    0    0 -0.30100957020E+02  0.49698507607E+01 -0.92711241868E+01  0.31886059239E+02  0.00000000000E+00 0.  1.
         11    1    3    3    0    0  0.14443927349E+02 -0.16840338161E+02  0.74478281550E+01  0.23402866729E+02  0.51100000000E-03 0. -1.
        -11    1    3    3    0    0  0.34519428732E+00  0.27927145716E+01  0.14033768674E+02  0.14313108580E+02  0.51100000000E-03 0.  1.
         12    1    3    3    0    0  0.15311835384E+02  0.90777728292E+01 -0.12210472642E+02  0.21585965452E+02  0.00000000000E+00 0. -1.
</event>
<event>
 7    1  0.3802554E-013  0.5930195E+02  0.7816164E-02  0.1266605E+00
        -11   -1    0    0    0    0  0.00000000000E+00  0.00000000000E+00  0.45593999997E+02  0.45594000000E+02  0.51100000000E-03 0. -1.
         11   -1    0    0    0    0 -0.00000000000E+00 -0.00000000000E+00 -0.45593999997E+02  0.45594000000E+02  0.51100000000E-03 0.  1.
    9900012    2    1    2    0    0 -0.19238800874E+02 -0.24603423288E+02  0.64234131972E+01  0.59301950799E+02  0.50000012349E+02 0.  0.
        -12    1    1    2    0    0  0.19238800874E+02  0.24603423288E+02 -0.64234131972E+01  0.31886049201E+02  0.00000000000E+00 0.  1.
         11    1    3    3    0    0 -0.72544402598E+01  0.22730747441E+01  0.13004239200E+02  0.15063333287E+02  0.51100000000E-03 0. -1.
        -11    1    3    3    0    0 -0.25601666447E+01  0.60089407911E+01  0.48880493670E+01  0.81581155640E+01  0.51100000000E-03 0.  1.
         12    1    3    3    0    0 -0.94241939697E+01 -0.32885438823E+02 -0.11468875370E+02  0.36080501948E+02  0.00000000000E+00 0. -1.
</event>
<event>
 7    1  0.3802554E-013  0.5930206E+02  0.7816164E-02  0.1266604E+00
        -11   -1    0    0    0    0  0.00000000000E+00  0.00000000000E+00  0.45593999997E+02  0.45594000000E+02  0.51100000000E-03 0.  1.
         11   -1    0    0    0    0 -0.00000000000E+00 -0.00000000000E+00 -0.45593999997E+02  0.45594000000E+02  0.51100000000E-03 0. -1.
    9900012    2    1    2    0    0 -0.16936043837E+02  0.13718562574E+02 -0.23274119967E+02  0.59302059521E+02  0.50000210632E+02 0.  0.
        -12    1    1    2    0    0  0.16936043837E+02 -0.13718562574E+02  0.23274119967E+02  0.31885940479E+02  0.00000000000E+00 0.  1.
         11    1    3    3    0    0 -0.35785044595E+01 -0.18704603768E+00  0.68564201747E+00  0.36483949380E+01  0.51100000000E-03 0.  1.
        -11    1    3    3    0    0 -0.11180681703E+02 -0.10902081538E+02 -0.26356681761E+02  0.30635562651E+02  0.51100000000E-03 0. -1.
        -12    1    3    3    0    0 -0.21768576740E+01  0.24807690149E+02  0.23969197765E+01  0.25018101932E+02  0.00000000000E+00 0.  1.
</event>
<event>
 7    1  0.3802554E-013  0.5930200E+02  0.7816164E-02  0.1266605E+00
        -11   -1    0    0    0    0  0.00000000000E+00  0.00000000000E+00  0.45593999997E+02  0.45594000000E+02  0.51100000000E-03 0.  1.
         11   -1    0    0    0    0 -0.00000000000E+00 -0.00000000000E+00 -0.45593999997E+02  0.45594000000E+02  0.51100000000E-03 0. -1.
    9900012    2    1    2    0    0 -0.86594000584E+01  0.16346068362E+02 -0.25971863890E+02  0.59302001910E+02  0.50000105563E+02 0.  0.
        -12    1    1    2    0    0  0.86594000584E+01 -0.16346068362E+02  0.25971863890E+02  0.31885998090E+02  0.00000000000E+00 0.  1.
         11    1    3    3    0    0  0.10801721072E+00  0.29667093556E+01 -0.14584625065E+02  0.14883693112E+02  0.51100000000E-03 0. -1.
        -11    1    3    3    0    0 -0.99873012071E+01  0.22643362148E+02 -0.19916510542E+02  0.31766891998E+02  0.51100000000E-03 0.  1.
        -12    1    3    3    0    0  0.12198839380E+01 -0.92640031416E+01  0.85292717166E+01  0.12651416800E+02  0.00000000000E+00 0.  1.
</event>
<event>
 7    1  0.3802554E-013  0.5930195E+02  0.7816164E-02  0.1266605E+00
        -11   -1    0    0    0    0  0.00000000000E+00  0.00000000000E+00  0.45593999997E+02  0.45594000000E+02  0.51100000000E-03 0. -1.
         11   -1    0    0    0    0 -0.00000000000E+00 -0.00000000000E+00 -0.45593999997E+02  0.45594000000E+02  0.51100000000E-03 0.  1.
    9900012    2    1    2    0    0 -0.24048086855E+02 -0.19361096254E+02 -0.79723161486E+01  0.59301947338E+02  0.50000006038E+02 0.  0.
        -12    1    1    2    0    0  0.24048086855E+02  0.19361096254E+02  0.79723161486E+01  0.31886052662E+02  0.00000000000E+00 0.  1.
         11    1    3    3    0    0 -0.18832140707E+02 -0.62380266899E+00  0.14150001626E+02  0.23563980981E+02  0.51100000000E-03 0. -1.
        -11    1    3    3    0    0  0.59506744044E+01 -0.51717464770E+01 -0.53236605370E+00  0.79019555406E+01  0.51100000000E-03 0.  1.
        -12    1    3    3    0    0 -0.11166620552E+02 -0.13565547108E+02 -0.21589951721E+02  0.27836010817E+02  0.00000000000E+00 0.  1.
</event>
<event>
 7    1  0.3802554E-013  0.5930194E+02  0.7816164E-02  0.1266605E+00
        -11   -1    0    0    0    0  0.00000000000E+00  0.00000000000E+00  0.45593999997E+02  0.45594000000E+02  0.51100000000E-03 0. -1.
         11   -1    0    0    0    0 -0.00000000000E+00 -0.00000000000E+00 -0.45593999997E+02  0.45594000000E+02  0.51100000000E-03 0.  1.
    9900012    2    1    2    0    0 -0.15466046305E+02 -0.23564698767E+02  0.14907285499E+02  0.59301940707E+02  0.49999993943E+02 0.  0.
        -12    1    1    2    0    0  0.15466046305E+02  0.23564698767E+02 -0.14907285499E+02  0.31886059293E+02  0.00000000000E+00 0.  1.
         11    1    3    3    0    0 -0.15903344133E+02 -0.86137056687E+01  0.80299833980E+01  0.19788706718E+02  0.51100000000E-03 0. -1.
        -11    1    3    3    0    0  0.48424067769E+01 -0.22570660753E+02 -0.60595232957E+01  0.23866324666E+02  0.51100000000E-03 0.  1.
        -12    1    3    3    0    0 -0.44051089497E+01  0.76196676543E+01  0.12936825396E+02  0.15646909323E+02  0.00000000000E+00 0.  1.
</event>
<event>
 7    1  0.3802554E-013  0.5930195E+02  0.7816164E-02  0.1266605E+00
        -11   -1    0    0    0    0  0.00000000000E+00  0.00000000000E+00  0.45593999997E+02  0.45594000000E+02  0.51100000000E-03 0.  1.
         11   -1    0    0    0    0 -0.00000000000E+00 -0.00000000000E+00 -0.45593999997E+02  0.45594000000E+02  0.51100000000E-03 0. -1.
    9900012    2    1    2    0    0 -0.25232008648E+02  0.56495922925E+01 -0.18658722165E+02  0.59301951855E+02  0.50000014275E+02 0.  0.
        -12    1    1    2    0    0  0.25232008648E+02 -0.56495922925E+01  0.18658722165E+02  0.31886048145E+02  0.00000000000E+00 0.  1.
         11    1    3    3    0    0 -0.35135468446E+01 -0.63169988090E+01 -0.80873343025E+01  0.10846864144E+02  0.51100000000E-03 0. -1.
        -11    1    3    3    0    0 -0.18867881919E+02 -0.10086066924E+02 -0.14539855499E+02  0.25867607394E+02  0.51100000000E-03 0.  1.
        -12    1    3    3    0    0 -0.28505798839E+01  0.22052658025E+02  0.39684676363E+01  0.22587480316E+02  0.00000000000E+00 0.  1.
</event>
<event>
 7    1  0.3802554E-013  0.5930198E+02  0.7816164E-02  0.1266605E+00
        -11   -1    0    0    0    0  0.00000000000E+00  0.00000000000E+00  0.45593999997E+02  0.45594000000E+02  0.51100000000E-03 0.  1.
         11   -1    0    0    0    0 -0.00000000000E+00 -0.00000000000E+00 -0.45593999997E+02  0.45594000000E+02  0.51100000000E-03 0. -1.
    9900012    2    1    2    0    0  0.23351821294E+02 -0.20065982868E+02  0.82925979549E+01  0.59301977874E+02  0.50000061727E+02 0.  0.
        -12    1    1    2    0    0 -0.23351821294E+02  0.20065982868E+02 -0.82925979549E+01  0.31886022126E+02  0.00000000000E+00 0.  1.
         11    1    3    3    0    0  0.18622901437E+01 -0.31501087606E+01 -0.15384434815E+02  0.15813669550E+02  0.51100000000E-03 0.  1.
        -11    1    3    3    0    0  0.94443000292E+01 -0.15287459120E+02  0.12915708235E+01  0.18015808748E+02  0.51100000000E-03 0. -1.
        -12    1    3    3    0    0  0.12045231121E+02 -0.16284149882E+01  0.22385461946E+02  0.25472499577E+02  0.00000000000E+00 0.  1.
</event>
<event>
 7    1  0.3802554E-013  0.5930193E+02  0.7816164E-02  0.1266605E+00
        -11   -1    0    0    0    0  0.00000000000E+00  0.00000000000E+00  0.45593999997E+02  0.45594000000E+02  0.51100000000E-03 0.  1.
         11   -1    0    0    0    0 -0.00000000000E+00 -0.00000000000E+00 -0.45593999997E+02  0.45594000000E+02  0.51100000000E-03 0. -1.
    9900012    2    1    2    0    0  0.13368053519E+01 -0.35758248250E+01 -0.31656720113E+02  0.59301929373E+02  0.49999973273E+02 0.  0.
        -12    1    1    2    0    0 -0.13368053519E+01  0.35758248250E+01  0.31656720113E+02  0.31886070627E+02  0.00000000000E+00 0.  1.
         11    1    3    3    0    0 -0.22663043791E+01 -0.54092887740E+00  0.27045948255E+01  0.35698141437E+01  0.51100000000E-03 0. -1.
        -11    1    3    3    0    0  0.87746501537E+01  0.11001381199E+00  0.86352912984E+01  0.12311573597E+02  0.51100000000E-03 0.  1.
         12    1    3    3    0    0 -0.51715404227E+01 -0.31449097596E+01 -0.42996606237E+02  0.43420541632E+02  0.00000000000E+00 0. -1.
</event>
<event>
 7    1  0.3802554E-013  0.5930194E+02  0.7816164E-02  0.1266605E+00
        -11   -1    0    0    0    0  0.00000000000E+00  0.00000000000E+00  0.45593999997E+02  0.45594000000E+02  0.51100000000E-03 0.  1.
         11   -1    0    0    0    0 -0.00000000000E+00 -0.00000000000E+00 -0.45593999997E+02  0.45594000000E+02  0.51100000000E-03 0. -1.
    9900012    2    1    2    0    0 -0.27426514706E+02 -0.15163402814E+02 -0.58803266147E+01  0.59301941371E+02  0.49999995155E+02 0.  0.
        -12    1    1    2    0    0  0.27426514706E+02  0.15163402814E+02  0.58803266147E+01  0.31886058629E+02  0.00000000000E+00 0.  1.
         11    1    3    3    0    0 -0.61757092543E+01  0.11595430793E+01 -0.55751265323E+00  0.63083076626E+01  0.51100000000E-03 0. -1.
        -11    1    3    3    0    0 -0.10556915269E+02 -0.45404431770E+01  0.20011710537E+02  0.23076668805E+02  0.51100000000E-03 0.  1.
         12    1    3    3    0    0 -0.10693890182E+02 -0.11782502716E+02 -0.25334524499E+02  0.29916964904E+02  0.00000000000E+00 0. -1.
</event>
<event>
 7    1  0.3802554E-013  0.5930194E+02  0.7816164E-02  0.1266605E+00
        -11   -1    0    0    0    0  0.00000000000E+00  0.00000000000E+00  0.45593999997E+02  0.45594000000E+02  0.51100000000E-03 0. -1.
         11   -1    0    0    0    0 -0.00000000000E+00 -0.00000000000E+00 -0.45593999997E+02  0.45594000000E+02  0.51100000000E-03 0.  1.
    9900012    2    1    2    0    0  0.79715415762E+00 -0.28312143141E+02 -0.14646082377E+02  0.59301942969E+02  0.49999998069E+02 0.  0.
        -12    1    1    2    0    0 -0.79715415762E+00  0.28312143141E+02  0.14646082377E+02  0.31886057031E+02  0.00000000000E+00 0.  1.
         11    1    3    3    0    0  0.23213744689E+01 -0.26014522622E+02 -0.19589268787E+01  0.26191249712E+02  0.51100000000E-03 0. -1.
        -11    1    3    3    0    0  0.84261816367E+01  0.10960981662E+02 -0.39852059156E+01  0.14388381508E+02  0.51100000000E-03 0.  1.
         12    1    3    3    0    0 -0.99504019480E+01 -0.13258602181E+02 -0.87019495823E+01  0.18722311749E+02  0.00000000000E+00 0. -1.
</event>
<event>
 7    1  0.3802554E-013  0.5930196E+02  0.7816164E-02  0.1266605E+00
        -11   -1    0    0    0    0  0.00000000000E+00  0.00000000000E+00  0.45593999997E+02  0.45594000000E+02  0.51100000000E-03 0. -1.
         11   -1    0    0    0    0 -0.00000000000E+00 -0.00000000000E+00 -0.45593999997E+02  0.45594000000E+02  0.51100000000E-03 0.  1.
    9900012    2    1    2    0    0 -0.61091230015E+01 -0.29744420731E+02 -0.97297195216E+01  0.59301962453E+02  0.50000033604E+02 0.  0.
        -12    1    1    2    0    0  0.61091230015E+01  0.29744420731E+02  0.97297195216E+01  0.31886037547E+02  0.00000000000E+00 0.  1.
         11    1    3    3    0    0  0.86391014134E+01  0.64856156592E+01  0.46120736403E+01  0.11745999627E+02  0.51100000000E-03 0. -1.
        -11    1    3    3    0    0  0.34775427033E+01 -0.48889180671E+01 -0.91345946353E+01  0.10928661516E+02  0.51100000000E-03 0.  1.
        -12    1    3    3    0    0 -0.18225767118E+02 -0.31341118323E+02 -0.52071985266E+01  0.36627301310E+02  0.00000000000E+00 0.  1.
</event>
<event>
 7    1  0.3802554E-013  0.5930195E+02  0.7816164E-02  0.1266605E+00
        -11   -1    0    0    0    0  0.00000000000E+00  0.00000000000E+00  0.45593999997E+02  0.45594000000E+02  0.51100000000E-03 0.  1.
         11   -1    0    0    0    0 -0.00000000000E+00 -0.00000000000E+00 -0.45593999997E+02  0.45594000000E+02  0.51100000000E-03 0. -1.
    9900012    2    1    2    0    0 -0.92441404907E+01 -0.48036840942E+01 -0.30136206581E+02  0.59301945660E+02  0.50000002977E+02 0.  0.
        -12    1    1    2    0    0  0.92441404907E+01  0.48036840942E+01  0.30136206581E+02  0.31886054340E+02  0.00000000000E+00 0.  1.
         11    1    3    3    0    0 -0.81019415409E+01  0.14100858470E+02 -0.41396325059E+01  0.16781305786E+02  0.51100000000E-03 0. -1.
        -11    1    3    3    0    0  0.32014516423E+01 -0.16766181925E+01  0.53693108271E+01  0.64722361051E+01  0.51100000000E-03 0.  1.
         12    1    3    3    0    0 -0.43436505922E+01 -0.17227924372E+02 -0.31365884902E+02  0.36048403769E+02  0.00000000000E+00 0. -1.
</event>
<event>
 7    1  0.3802554E-013  0.5930197E+02  0.7816164E-02  0.1266605E+00
        -11   -1    0    0    0    0  0.00000000000E+00  0.00000000000E+00  0.45593999997E+02  0.45594000000E+02  0.51100000000E-03 0.  1.
         11   -1    0    0    0    0 -0.00000000000E+00 -0.00000000000E+00 -0.45593999997E+02  0.45594000000E+02  0.51100000000E-03 0. -1.
    9900012    2    1    2    0    0  0.89376758802E+01  0.14969093510E+02 -0.26697626224E+02  0.59301967687E+02  0.50000043149E+02 0.  0.
        -12    1    1    2    0    0 -0.89376758802E+01 -0.14969093510E+02  0.26697626224E+02  0.31886032313E+02  0.00000000000E+00 0.  1.
         11    1    3    3    0    0  0.71316536189E+01  0.77950112167E-01 -0.36985298243E+01  0.80340327783E+01  0.51100000000E-03 0. -1.
        -11    1    3    3    0    0  0.12026899642E+02 -0.58046921447E+01  0.56301228262E+01  0.14492724009E+02  0.51100000000E-03 0.  1.
         12    1    3    3    0    0 -0.10220877381E+02  0.20695835543E+02 -0.28629219226E+02  0.36775210900E+02  0.00000000000E+00 0. -1.
</event>
<event>
 7    1  0.3802554E-013  0.5930195E+02  0.7816164E-02  0.1266605E+00
        -11   -1    0    0    0    0  0.00000000000E+00  0.00000000000E+00  0.45593999997E+02  0.45594000000E+02  0.51100000000E-03 0. -1.
         11   -1    0    0    0    0 -0.00000000000E+00 -0.00000000000E+00 -0.45593999997E+02  0.45594000000E+02  0.51100000000E-03 0.  1.
    9900012    2    1    2    0    0  0.16091369558E+02  0.24576918854E+02  0.12400127838E+02  0.59301948425E+02  0.50000008020E+02 0.  0.
        -12    1    1    2    0    0 -0.16091369558E+02 -0.24576918854E+02 -0.12400127838E+02  0.31886051575E+02  0.00000000000E+00 0.  1.
         11    1    3    3    0    0  0.16019367357E+01 -0.12013433543E+02 -0.19141986634E+01  0.12270001776E+02  0.51100000000E-03 0. -1.
        -11    1    3    3    0    0 -0.11294323177E+01 -0.14973508217E+00 -0.32297906828E+01  0.34248483282E+01  0.51100000000E-03 0.  1.
        -12    1    3    3    0    0  0.15618865140E+02  0.36740087479E+02  0.17544117185E+02  0.43607098322E+02  0.00000000000E+00 0.  1.
</event>
<event>
 7    1  0.3802554E-013  0.5930193E+02  0.7816164E-02  0.1266605E+00
        -11   -1    0    0    0    0  0.00000000000E+00  0.00000000000E+00  0.45593999997E+02  0.45594000000E+02  0.51100000000E-03 0.  1.
         11   -1    0    0    0    0 -0.00000000000E+00 -0.00000000000E+00 -0.45593999997E+02  0.45594000000E+02  0.51100000000E-03 0. -1.
    9900012    2    1    2    0    0  0.16222150428E+02  0.22341984568E+02 -0.15949881006E+02  0.59301934971E+02  0.49999983483E+02 0.  0.
        -12    1    1    2    0    0 -0.16222150428E+02 -0.22341984568E+02  0.15949881006E+02  0.31886065029E+02  0.00000000000E+00 0.  1.
         11    1    3    3    0    0 -0.75481865112E+01  0.18532998524E+02 -0.31966552694E+01  0.20264889811E+02  0.51100000000E-03 0. -1.
        -11    1    3    3    0    0 -0.31342303378E+01  0.75873599203E+01 -0.79870327893E+01  0.11453563786E+02  0.51100000000E-03 0.  1.
         12    1    3    3    0    0  0.26904567277E+02 -0.37783738763E+01 -0.47661929470E+01  0.27583481374E+02  0.00000000000E+00 0. -1.
</event>
<event>
 7    1  0.3842895E-013  0.5930193E+02  0.7816164E-02  0.1266605E+00
        -11   -1    0    0    0    0  0.00000000000E+00  0.00000000000E+00  0.45593999997E+02  0.45594000000E+02  0.51100000000E-03 0. -1.
         11   -1    0    0    0    0 -0.00000000000E+00 -0.00000000000E+00 -0.45593999997E+02  0.45594000000E+02  0.51100000000E-03 0.  1.
    9900012    2    1    2    0    0 -0.98256807732E+01  0.81477078256E+01  0.29219719754E+02  0.59301934580E+02  0.49999982769E+02 0.  0.
        -12    1    1    2    0    0  0.98256807732E+01 -0.81477078256E+01 -0.29219719754E+02  0.31886065420E+02  0.00000000000E+00 0.  1.
         11    1    3    3    0    0  0.47155157027E+01  0.93576788571E+01  0.28759834846E+02  0.30609317904E+02  0.51100000000E-03 0. -1.
        -11    1    3    3    0    0  0.28108258681E+01 -0.68222239073E+01 -0.58273646750E+01  0.94022157185E+01  0.51100000000E-03 0.  1.
        -12    1    3    3    0    0 -0.17352022344E+02  0.56122528758E+01  0.62872495832E+01  0.19290400957E+02  0.00000000000E+00 0.  1.
</event>
<event>
 7    1  0.3802554E-013  0.5930194E+02  0.7816164E-02  0.1266605E+00
        -11   -1    0    0    0    0  0.00000000000E+00  0.00000000000E+00  0.45593999997E+02  0.45594000000E+02  0.51100000000E-03 0. -1.
         11   -1    0    0    0    0 -0.00000000000E+00 -0.00000000000E+00 -0.45593999997E+02  0.45594000000E+02  0.51100000000E-03 0.  1.
    9900012    2    1    2    0    0  0.91390665064E+01 -0.11379570355E+02  0.28349664273E+02  0.59301943134E+02  0.49999998370E+02 0.  0.
        -12    1    1    2    0    0 -0.91390665064E+01  0.11379570355E+02 -0.28349664273E+02  0.31886056866E+02  0.00000000000E+00 0.  1.
         11    1    3    3    0    0  0.75573132754E+01  0.37702059240E+00 -0.57407253570E+01  0.94979501133E+01  0.51100000000E-03 0. -1.
        -11    1    3    3    0    0 -0.36909131688E+00 -0.47703414359E+01 -0.67781633820E+01  0.82967394144E+01  0.51100000000E-03 0.  1.
         12    1    3    3    0    0  0.19508445479E+01 -0.69862495118E+01  0.40868553012E+02  0.41507253607E+02  0.00000000000E+00 0. -1.
</event>
<event>
 7    1  0.3802554E-013  0.5930195E+02  0.7816164E-02  0.1266605E+00
        -11   -1    0    0    0    0  0.00000000000E+00  0.00000000000E+00  0.45593999997E+02  0.45594000000E+02  0.51100000000E-03 0.  1.
         11   -1    0    0    0    0 -0.00000000000E+00 -0.00000000000E+00 -0.45593999997E+02  0.45594000000E+02  0.51100000000E-03 0. -1.
    9900012    2    1    2    0    0 -0.29781872745E+02  0.60028182825E+01 -0.96812502478E+01  0.59301946969E+02  0.50000005364E+02 0.  0.
        -12    1    1    2    0    0  0.29781872745E+02 -0.60028182825E+01  0.96812502478E+01  0.31886053031E+02  0.00000000000E+00 0.  1.
         11    1    3    3    0    0 -0.29349930628E+02  0.17328961476E+00  0.12767703781E+02  0.32007229141E+02  0.51100000000E-03 0. -1.
        -11    1    3    3    0    0 -0.59751446779E+01  0.72237786446E+01 -0.10677734788E+02  0.14209129189E+02  0.51100000000E-03 0.  1.
        -12    1    3    3    0    0  0.55432025603E+01 -0.13942499769E+01 -0.11771219241E+02  0.13085588639E+02  0.00000000000E+00 0.  1.
</event>
<event>
 7    1  0.3802554E-013  0.5930195E+02  0.7816164E-02  0.1266605E+00
        -11   -1    0    0    0    0  0.00000000000E+00  0.00000000000E+00  0.45593999997E+02  0.45594000000E+02  0.51100000000E-03 0. -1.
         11   -1    0    0    0    0 -0.00000000000E+00 -0.00000000000E+00 -0.45593999997E+02  0.45594000000E+02  0.51100000000E-03 0.  1.
    9900012    2    1    2    0    0  0.11779780381E+01  0.85198232313E+01  0.30704151887E+02  0.59301953471E+02  0.50000017222E+02 0.  0.
        -12    1    1    2    0    0 -0.11779780381E+01 -0.85198232313E+01 -0.30704151887E+02  0.31886046529E+02  0.00000000000E+00 0.  1.
         11    1    3    3    0    0  0.20332615232E+01 -0.12802819988E+01  0.29331604924E+01  0.37916625844E+01  0.51100000000E-03 0. -1.
        -11    1    3    3    0    0  0.21301593134E+02 -0.43249445361E+01  0.11294671606E+02  0.24495563317E+02  0.51100000000E-03 0.  1.
         12    1    3    3    0    0 -0.22156876619E+02  0.14125049766E+02  0.16476319789E+02  0.31014727569E+02  0.00000000000E+00 0. -1.
</event>
<event>
 7    1  0.3802554E-013  0.5930199E+02  0.7816164E-02  0.1266605E+00
        -11   -1    0    0    0    0  0.00000000000E+00  0.00000000000E+00  0.45593999997E+02  0.45594000000E+02  0.51100000000E-03 0.  1.
         11   -1    0    0    0    0 -0.00000000000E+00 -0.00000000000E+00 -0.45593999997E+02  0.45594000000E+02  0.51100000000E-03 0. -1.
    9900012    2    1    2    0    0 -0.18503117457E+02 -0.22149295741E+02 -0.13555856837E+02  0.59301985635E+02  0.50000075882E+02 0.  0.
        -12    1    1    2    0    0  0.18503117457E+02  0.22149295741E+02  0.13555856837E+02  0.31886014365E+02  0.00000000000E+00 0.  1.
         11    1    3    3    0    0 -0.58515080991E+01  0.57512142442E+01 -0.30533901942E+01  0.87544162716E+01  0.51100000000E-03 0. -1.
        -11    1    3    3    0    0 -0.11070003725E+01 -0.13456321113E+02  0.14263364361E+02  0.19640305264E+02  0.51100000000E-03 0.  1.
         12    1    3    3    0    0 -0.11544608986E+02 -0.14444188872E+02 -0.24765831004E+02  0.30907264099E+02  0.00000000000E+00 0. -1.
</event>
<event>
 7    1  0.3802554E-013  0.5930194E+02  0.7816164E-02  0.1266605E+00
        -11   -1    0    0    0    0  0.00000000000E+00  0.00000000000E+00  0.45593999997E+02  0.45594000000E+02  0.51100000000E-03 0.  1.
         11   -1    0    0    0    0 -0.00000000000E+00 -0.00000000000E+00 -0.45593999997E+02  0.45594000000E+02  0.51100000000E-03 0. -1.
    9900012    2    1    2    0    0 -0.19582289623E+02  0.16801488963E+02 -0.18734052520E+02  0.59301940004E+02  0.49999992661E+02 0.  0.
        -12    1    1    2    0    0  0.19582289623E+02 -0.16801488963E+02  0.18734052520E+02  0.31886059996E+02  0.00000000000E+00 0.  1.
         11    1    3    3    0    0 -0.58147504011E+00  0.15737881970E+02 -0.60250473130E+01  0.16861798170E+02  0.51100000000E-03 0. -1.
        -11    1    3    3    0    0  0.13945751375E+01 -0.63298686318E+01  0.94306933913E+01  0.11443341069E+02  0.51100000000E-03 0.  1.
        -12    1    3    3    0    0 -0.20395389720E+02  0.73934756245E+01 -0.22139698599E+02  0.30996800766E+02  0.00000000000E+00 0.  1.
</event>
<event>
 7    1  0.3802554E-013  0.5930189E+02  0.7816164E-02  0.1266605E+00
        -11   -1    0    0    0    0  0.00000000000E+00  0.00000000000E+00  0.45593999997E+02  0.45594000000E+02  0.51100000000E-03 0. -1.
         11   -1    0    0    0    0 -0.00000000000E+00 -0.00000000000E+00 -0.45593999997E+02  0.45594000000E+02  0.51100000000E-03 0.  1.
    9900012    2    1    2    0    0  0.16535579441E+02  0.18000770219E+02  0.20476106762E+02  0.59301889167E+02  0.49999899947E+02 0.  0.
        -12    1    1    2    0    0 -0.16535579441E+02 -0.18000770219E+02 -0.20476106762E+02  0.31886110833E+02  0.00000000000E+00 0.  1.
         11    1    3    3    0    0  0.24237251894E+02  0.92864551435E+01  0.20208250005E+02  0.32894619576E+02  0.51100000000E-03 0. -1.
        -11    1    3    3    0    0  0.83888648195E+01  0.39582042359E+01  0.21547120704E+01  0.95227736558E+01  0.51100000000E-03 0.  1.
        -12    1    3    3    0    0 -0.16090537272E+02  0.47561108396E+01 -0.18868553133E+01  0.16884495935E+02  0.00000000000E+00 0.  1.
</event>
<event>
 7    1  0.3802554E-013  0.5930190E+02  0.7816164E-02  0.1266605E+00
        -11   -1    0    0    0    0  0.00000000000E+00  0.00000000000E+00  0.45593999997E+02  0.45594000000E+02  0.51100000000E-03 0.  1.
         11   -1    0    0    0    0 -0.00000000000E+00 -0.00000000000E+00 -0.45593999997E+02  0.45594000000E+02  0.51100000000E-03 0. -1.
    9900012    2    1    2    0    0  0.11447948136E+02  0.29758772008E+02 -0.28866958180E+00  0.59301900238E+02  0.49999920137E+02 0.  0.
        -12    1    1    2    0    0 -0.11447948136E+02 -0.29758772008E+02  0.28866958180E+00  0.31886099762E+02  0.00000000000E+00 0.  1.
         11    1    3    3    0    0 -0.88100606928E+01 -0.12448516732E+01  0.27196317075E+01  0.93039358330E+01  0.51100000000E-03 0. -1.
        -11    1    3    3    0    0 -0.65868308295E+01  0.11057563934E+02 -0.94140545397E+01  0.15946174578E+02  0.51100000000E-03 0.  1.
         12    1    3    3    0    0  0.26844839658E+02  0.19946059747E+02  0.64057532504E+01  0.34051789827E+02  0.00000000000E+00 0. -1.
</event>
<event>
 7    1  0.3802554E-013  0.5930191E+02  0.7816164E-02  0.1266605E+00
        -11   -1    0    0    0    0  0.00000000000E+00  0.00000000000E+00  0.45593999997E+02  0.45594000000E+02  0.51100000000E-03 0.  1.
         11   -1    0    0    0    0 -0.00000000000E+00 -0.00000000000E+00 -0.45593999997E+02  0.45594000000E+02  0.51100000000E-03 0. -1.
    9900012    2    1    2    0    0 -0.27883541938E+02  0.10195599690E+02  0.11631006913E+02  0.59301913914E+02  0.49999945080E+02 0.  0.
        -12    1    1    2    0    0  0.27883541938E+02 -0.10195599690E+02 -0.11631006913E+02  0.31886086086E+02  0.00000000000E+00 0.  1.
         11    1    3    3    0    0 -0.37918924043E+01  0.70508292739E+01  0.68124545246E+01  0.10512001635E+02  0.51100000000E-03 0. -1.
        -11    1    3    3    0    0  0.46325431409E+01  0.16160995957E+02 -0.44611665751E+00  0.16817766397E+02  0.51100000000E-03 0.  1.
         12    1    3    3    0    0 -0.28724192675E+02 -0.13016225541E+02  0.52646690460E+01  0.31972145882E+02  0.00000000000E+00 0. -1.
</event>
<event>
 7    1  0.3802554E-013  0.5930197E+02  0.7816164E-02  0.1266605E+00
        -11   -1    0    0    0    0  0.00000000000E+00  0.00000000000E+00  0.45593999997E+02  0.45594000000E+02  0.51100000000E-03 0. -1.
         11   -1    0    0    0    0 -0.00000000000E+00 -0.00000000000E+00 -0.45593999997E+02  0.45594000000E+02  0.51100000000E-03 0.  1.
    9900012    2    1    2    0    0 -0.29716957648E+02 -0.10080826391E+02 -0.56567023900E+01  0.59301969916E+02  0.50000047214E+02 0.  0.
        -12    1    1    2    0    0  0.29716957648E+02  0.10080826391E+02  0.56567023900E+01  0.31886030084E+02  0.00000000000E+00 0.  1.
         11    1    3    3    0    0 -0.12808390677E+02  0.14057865155E+02  0.27020013330E+01  0.19208832757E+02  0.51100000000E-03 0. -1.
        -11    1    3    3    0    0  0.25187832952E+01 -0.26405155857E+01 -0.10423601372E+02  0.11043914961E+02  0.51100000000E-03 0.  1.
        -12    1    3    3    0    0 -0.19427350266E+02 -0.21498175960E+02  0.20648976489E+01  0.29049222198E+02  0.00000000000E+00 0.  1.
</event>
<event>
 7    1  0.3802554E-013  0.5930195E+02  0.7816164E-02  0.1266605E+00
        -11   -1    0    0    0    0  0.00000000000E+00  0.00000000000E+00  0.45593999997E+02  0.45594000000E+02  0.51100000000E-03 0.  1.
         11   -1    0    0    0    0 -0.00000000000E+00 -0.00000000000E+00 -0.45593999997E+02  0.45594000000E+02  0.51100000000E-03 0. -1.
    9900012    2    1    2    0    0  0.38570291035E+01  0.83672913065E+01 -0.30525925981E+02  0.59301946712E+02  0.50000004895E+02 0.  0.
        -12    1    1    2    0    0 -0.38570291035E+01 -0.83672913065E+01  0.30525925981E+02  0.31886053288E+02  0.00000000000E+00 0.  1.
         11    1    3    3    0    0 -0.62743349809E+01 -0.80487104192E+01 -0.73262700208E+01  0.12562772447E+02  0.51100000000E-03 0. -1.
        -11    1    3    3    0    0 -0.10630931938E+02  0.73771732482E+01 -0.20069484359E+02  0.23879355136E+02  0.51100000000E-03 0.  1.
         12    1    3    3    0    0  0.20762296023E+02  0.90388284775E+01 -0.31301716008E+01  0.22859819129E+02  0.00000000000E+00 0. -1.
</event>
<event>
 7    1  0.3802554E-013  0.5930198E+02  0.7816164E-02  0.1266605E+00
        -11   -1    0    0    0    0  0.00000000000E+00  0.00000000000E+00  0.45593999997E+02  0.45594000000E+02  0.51100000000E-03 0.  1.
         11   -1    0    0    0    0 -0.00000000000E+00 -0.00000000000E+00 -0.45593999997E+02  0.45594000000E+02  0.51100000000E-03 0. -1.
    9900012    2    1    2    0    0 -0.80008947906E+01 -0.25474744423E+02  0.17428169229E+02  0.59301984201E+02  0.50000073267E+02 0.  0.
        -12    1    1    2    0    0  0.80008947906E+01  0.25474744423E+02 -0.17428169229E+02  0.31886015799E+02  0.00000000000E+00 0.  1.
         11    1    3    3    0    0  0.66332533071E+01 -0.18747551547E+02  0.56992515083E+01  0.20687005740E+02  0.51100000000E-03 0.  1.
        -11    1    3    3    0    0 -0.13871678959E+01 -0.17053358646E+01 -0.11335737125E+02  0.11546919140E+02  0.51100000000E-03 0. -1.
        -12    1    3    3    0    0 -0.13246980202E+02 -0.50218570107E+01  0.23064654846E+02  0.27068059322E+02  0.00000000000E+00 0.  1.
</event>
<event>
 7    1  0.3802554E-013  0.5930195E+02  0.7816164E-02  0.1266605E+00
        -11   -1    0    0    0    0  0.00000000000E+00  0.00000000000E+00  0.45593999997E+02  0.45594000000E+02  0.51100000000E-03 0.  1.
         11   -1    0    0    0    0 -0.00000000000E+00 -0.00000000000E+00 -0.45593999997E+02  0.45594000000E+02  0.51100000000E-03 0. -1.
    9900012    2    1    2    0    0  0.18331836799E+02 -0.24947055959E+02 -0.76360039866E+01  0.59301946648E+02  0.50000004780E+02 0.  0.
        -12    1    1    2    0    0 -0.18331836799E+02  0.24947055959E+02  0.76360039866E+01  0.31886053352E+02  0.00000000000E+00 0.  1.
         11    1    3    3    0    0  0.13851949777E+02 -0.15344710411E+02 -0.19192176724E+01  0.20761022300E+02  0.51100000000E-03 0. -1.
        -11    1    3    3    0    0  0.72929665885E+01 -0.23151604371E+02 -0.38833822947E+01  0.24581798244E+02  0.51100000000E-03 0.  1.
         12    1    3    3    0    0 -0.28130795659E+01  0.13549258823E+02 -0.18334040196E+01  0.13959126104E+02  0.00000000000E+00 0. -1.
</event>
<event>
 7    1  0.3802554E-013  0.5930191E+02  0.7816164E-02  0.1266605E+00
        -11   -1    0    0    0    0  0.00000000000E+00  0.00000000000E+00  0.45593999997E+02  0.45594000000E+02  0.51100000000E-03 0.  1.
         11   -1    0    0    0    0 -0.00000000000E+00 -0.00000000000E+00 -0.45593999997E+02  0.45594000000E+02  0.51100000000E-03 0. -1.
    9900012    2    1    2    0    0 -0.29086098439E+02 -0.10257850522E+02  0.80931018226E+01  0.59301907156E+02  0.49999932755E+02 0.  0.
        -12    1    1    2    0    0  0.29086098439E+02  0.10257850522E+02 -0.80931018226E+01  0.31886092844E+02  0.00000000000E+00 0.  1.
         11    1    3    3    0    0  0.55767100822E+01  0.14082315589E+01  0.15531723530E+01  0.59577811376E+01  0.51100000000E-03 0. -1.
        -11    1    3    3    0    0  0.50159654537E+01  0.22252917917E+00  0.10595084908E+02  0.11724557695E+02  0.51100000000E-03 0.  1.
         12    1    3    3    0    0 -0.39678773975E+02 -0.11888611260E+02 -0.40551554384E+01  0.41619568324E+02  0.00000000000E+00 0. -1.
</event>
<event>
 7    1  0.3802554E-013  0.5930197E+02  0.7816164E-02  0.1266605E+00
        -11   -1    0    0    0    0  0.00000000000E+00  0.00000000000E+00  0.45593999997E+02  0.45594000000E+02  0.51100000000E-03 0. -1.
         11   -1    0    0    0    0 -0.00000000000E+00 -0.00000000000E+00 -0.45593999997E+02  0.45594000000E+02  0.51100000000E-03 0.  1.
    9900012    2    1    2    0    0 -0.22728252079E+02 -0.21854968525E+02  0.47440374462E+01  0.59301968841E+02  0.50000045254E+02 0.  0.
        -12    1    1    2    0    0  0.22728252079E+02  0.21854968525E+02 -0.47440374462E+01  0.31886031159E+02  0.00000000000E+00 0.  1.
         11    1    3    3    0    0 -0.17342861374E+02  0.13944792800E+01  0.38577735185E+01  0.17821386867E+02  0.51100000000E-03 0. -1.
        -11    1    3    3    0    0 -0.11713430900E+02  0.34547145342E+01 -0.53572265206E+01  0.13335643674E+02  0.51100000000E-03 0.  1.
        -12    1    3    3    0    0  0.63280401946E+01 -0.26704162339E+02  0.62434904483E+01  0.28144938300E+02  0.00000000000E+00 0.  1.
</event>
<event>
 7    1  0.3802554E-013  0.5930212E+02  0.7816164E-02  0.1266604E+00
        -11   -1    0    0    0    0  0.00000000000E+00  0.00000000000E+00  0.45593999997E+02  0.45594000000E+02  0.51100000000E-03 0. -1.
         11   -1    0    0    0    0 -0.00000000000E+00 -0.00000000000E+00 -0.45593999997E+02  0.45594000000E+02  0.51100000000E-03 0.  1.
    9900012    2    1    2    0    0 -0.28298205819E+02  0.51102433292E+01  0.13777013654E+02  0.59302123116E+02  0.50000326613E+02 0.  0.
        -12    1    1    2    0    0  0.28298205819E+02 -0.51102433292E+01 -0.13777013654E+02  0.31885876884E+02  0.00000000000E+00 0.  1.
         11    1    3    3    0    0 -0.13529973506E+02  0.11656912354E+02  0.61213824679E+00  0.17869485224E+02  0.51100000000E-03 0.  1.
        -11    1    3    3    0    0 -0.51822099359E+01 -0.12587954626E+02 -0.91524364031E+01  0.16403627460E+02  0.51100000000E-03 0. -1.
         12    1    3    3    0    0 -0.95860223774E+01  0.60412856013E+01  0.22317311810E+02  0.25029010431E+02  0.00000000000E+00 0. -1.
</event>
<event>
 7    1  0.3802554E-013  0.5930196E+02  0.7816164E-02  0.1266605E+00
        -11   -1    0    0    0    0  0.00000000000E+00  0.00000000000E+00  0.45593999997E+02  0.45594000000E+02  0.51100000000E-03 0. -1.
         11   -1    0    0    0    0 -0.00000000000E+00 -0.00000000000E+00 -0.45593999997E+02  0.45594000000E+02  0.51100000000E-03 0.  1.
    9900012    2    1    2    0    0  0.22419561542E+02 -0.82769894625E+01  0.21108631397E+02  0.59301958951E+02  0.50000027217E+02 0.  0.
        -12    1    1    2    0    0 -0.22419561542E+02  0.82769894625E+01 -0.21108631397E+02  0.31886041049E+02  0.00000000000E+00 0.  1.
         11    1    3    3    0    0  0.10505964053E+02  0.29909458384E+01  0.10454768574E+02  0.15120291792E+02  0.51100000000E-03 0. -1.
        -11    1    3    3    0    0  0.51452966619E+01 -0.25885899169E+02  0.94300297777E+01  0.28026403897E+02  0.51100000000E-03 0.  1.
         12    1    3    3    0    0  0.67683008279E+01  0.14617963868E+02  0.12238330447E+01  0.16155263262E+02  0.00000000000E+00 0. -1.
</event>
<event>
 7    1  0.3802554E-013  0.5930196E+02  0.7816164E-02  0.1266605E+00
        -11   -1    0    0    0    0  0.00000000000E+00  0.00000000000E+00  0.45593999997E+02  0.45594000000E+02  0.51100000000E-03 0.  1.
         11   -1    0    0    0    0 -0.00000000000E+00 -0.00000000000E+00 -0.45593999997E+02  0.45594000000E+02  0.51100000000E-03 0. -1.
    9900012    2    1    2    0    0 -0.67456556028E+01  0.56038639277E+01 -0.30656354827E+02  0.59301964628E+02  0.50000037570E+02 0.  0.
        -12    1    1    2    0    0  0.67456556028E+01 -0.56038639277E+01  0.30656354827E+02  0.31886035372E+02  0.00000000000E+00 0.  1.
         11    1    3    3    0    0 -0.50039286375E+01  0.13544569091E+02 -0.20289322690E+02  0.24902836568E+02  0.51100000000E-03 0. -1.
        -11    1    3    3    0    0  0.22264040600E-02  0.12321373149E+02 -0.23752484678E+01  0.12548228831E+02  0.51100000000E-03 0.  1.
        -12    1    3    3    0    0 -0.17439533694E+01 -0.20262078312E+02 -0.79917836694E+01  0.21850899229E+02  0.00000000000E+00 0.  1.
</event>
<event>
 7    1  0.3802554E-013  0.5930190E+02  0.7816164E-02  0.1266605E+00
        -11   -1    0    0    0    0  0.00000000000E+00  0.00000000000E+00  0.45593999997E+02  0.45594000000E+02  0.51100000000E-03 0. -1.
         11   -1    0    0    0    0 -0.00000000000E+00 -0.00000000000E+00 -0.45593999997E+02  0.45594000000E+02  0.51100000000E-03 0.  1.
    9900012    2    1    2    0    0 -0.18777795433E+02  0.75534870094E+01  0.24638639446E+02  0.59301900818E+02  0.49999921195E+02 0.  0.
        -12    1    1    2    0    0  0.18777795433E+02 -0.75534870094E+01 -0.24638639446E+02  0.31886099182E+02  0.00000000000E+00 0.  1.
         11    1    3    3    0    0 -0.50758595969E+01  0.41032654322E+01 -0.26141876156E+01  0.70310109519E+01  0.51100000000E-03 0.  1.
        -11    1    3    3    0    0 -0.48545023210E+01  0.96185791770E+01 -0.92548535744E+01  0.14203364852E+02  0.51100000000E-03 0. -1.
        -12    1    3    3    0    0 -0.88474335151E+01 -0.61683575998E+01  0.36507680636E+02  0.38067525014E+02  0.00000000000E+00 0.  1.
</event>
<event>
 7    1  0.3802554E-013  0.5930196E+02  0.7816164E-02  0.1266605E+00
        -11   -1    0    0    0    0  0.00000000000E+00  0.00000000000E+00  0.45593999997E+02  0.45594000000E+02  0.51100000000E-03 0.  1.
         11   -1    0    0    0    0 -0.00000000000E+00 -0.00000000000E+00 -0.45593999997E+02  0.45594000000E+02  0.51100000000E-03 0. -1.
    9900012    2    1    2    0    0 -0.18047881644E+02 -0.25444562805E+00 -0.26285523182E+02  0.59301960682E+02  0.50000030374E+02 0.  0.
        -12    1    1    2    0    0  0.18047881644E+02  0.25444562805E+00  0.26285523182E+02  0.31886039318E+02  0.00000000000E+00 0.  1.
         11    1    3    3    0    0 -0.78361577500E+01 -0.24975268641E+01 -0.33284960071E+01  0.88725359763E+01  0.51100000000E-03 0.  1.
        -11    1    3    3    0    0 -0.26993899036E+02 -0.25295089018E+01 -0.16960471431E+02  0.31980096808E+02  0.51100000000E-03 0. -1.
         12    1    3    3    0    0  0.16782175142E+02  0.47725901379E+01 -0.59965557443E+01  0.18449327898E+02  0.00000000000E+00 0. -1.
</event>
<event>
 7    1  0.3802554E-013  0.5930193E+02  0.7816164E-02  0.1266605E+00
        -11   -1    0    0    0    0  0.00000000000E+00  0.00000000000E+00  0.45593999997E+02  0.45594000000E+02  0.51100000000E-03 0.  1.
         11   -1    0    0    0    0 -0.00000000000E+00 -0.00000000000E+00 -0.45593999997E+02  0.45594000000E+02  0.51100000000E-03 0. -1.
    9900012    2    1    2    0    0 -0.31494488528E+01  0.29295143484E+02 -0.12190024781E+02  0.59301934642E+02  0.49999982883E+02 0.  0.
        -12    1    1    2    0    0  0.31494488528E+01 -0.29295143484E+02  0.12190024781E+02  0.31886065358E+02  0.00000000000E+00 0.  1.
         11    1    3    3    0    0 -0.17484505803E+01  0.17063654560E+02  0.13230701753E+01  0.17203950166E+02  0.51100000000E-03 0. -1.
        -11    1    3    3    0    0  0.78558312806E+01  0.11639754745E+02  0.97220958565E+01  0.17079728445E+02  0.51100000000E-03 0.  1.
         12    1    3    3    0    0 -0.92568295531E+01  0.59173417867E+00 -0.23235190813E+02  0.25018256031E+02  0.00000000000E+00 0. -1.
</event>
<event>
 7    1  0.3802554E-013  0.5930195E+02  0.7816164E-02  0.1266605E+00
        -11   -1    0    0    0    0  0.00000000000E+00  0.00000000000E+00  0.45593999997E+02  0.45594000000E+02  0.51100000000E-03 0. -1.
         11   -1    0    0    0    0 -0.00000000000E+00 -0.00000000000E+00 -0.45593999997E+02  0.45594000000E+02  0.51100000000E-03 0.  1.
    9900012    2    1    2    0    0  0.29756117722E+02 -0.59176689399E+01  0.98119590364E+01  0.59301954656E+02  0.50000019383E+02 0.  0.
        -12    1    1    2    0    0 -0.29756117722E+02  0.59176689399E+01 -0.98119590364E+01  0.31886045344E+02  0.00000000000E+00 0.  1.
         11    1    3    3    0    0  0.12385095812E+02  0.64426705406E+00  0.67754241776E+01  0.14131951435E+02  0.51100000000E-03 0. -1.
        -11    1    3    3    0    0  0.17995280046E+02 -0.20025890167E+02  0.11476307069E+02  0.29267251410E+02  0.51100000000E-03 0.  1.
        -12    1    3    3    0    0 -0.62425813636E+00  0.13463954173E+02 -0.84397722102E+01  0.15902751810E+02  0.00000000000E+00 0.  1.
</event>
<event>
 7    1  0.3802554E-013  0.5930195E+02  0.7816164E-02  0.1266605E+00
        -11   -1    0    0    0    0  0.00000000000E+00  0.00000000000E+00  0.45593999997E+02  0.45594000000E+02  0.51100000000E-03 0.  1.
         11   -1    0    0    0    0 -0.00000000000E+00 -0.00000000000E+00 -0.45593999997E+02  0.45594000000E+02  0.51100000000E-03 0. -1.
    9900012    2    1    2    0    0  0.25545030695E+02 -0.59001037600E+01 -0.18148288355E+02  0.59301949950E+02  0.50000010801E+02 0.  0.
        -12    1    1    2    0    0 -0.25545030695E+02  0.59001037600E+01  0.18148288355E+02  0.31886050050E+02  0.00000000000E+00 0.  1.
         11    1    3    3    0    0  0.30282940262E+01 -0.14333345875E+02 -0.96223487427E+01  0.17527263456E+02  0.51100000000E-03 0. -1.
        -11    1    3    3    0    0  0.39203248372E+00  0.12243936261E+02 -0.14064129045E+02  0.18651203465E+02  0.51100000000E-03 0.  1.
         12    1    3    3    0    0  0.22124704185E+02 -0.38106941466E+01  0.55381894332E+01  0.23123483028E+02  0.00000000000E+00 0. -1.
</event>
<event>
 7    1  0.3802554E-013  0.5930197E+02  0.7816164E-02  0.1266605E+00
        -11   -1    0    0    0    0  0.00000000000E+00  0.00000000000E+00  0.45593999997E+02  0.45594000000E+02  0.51100000000E-03 0.  1.
         11   -1    0    0    0    0 -0.00000000000E+00 -0.00000000000E+00 -0.45593999997E+02  0.45594000000E+02  0.51100000000E-03 0. -1.
    9900012    2    1    2    0    0 -0.17644856570E+02  0.10078439257E+02 -0.24572400154E+02  0.59301972487E+02  0.50000051904E+02 0.  0.
        -12    1    1    2    0    0  0.17644856570E+02 -0.10078439257E+02  0.24572400154E+02  0.31886027513E+02  0.00000000000E+00 0.  1.
         11    1    3    3    0    0 -0.17225138932E+02  0.17770687837E+02 -0.92272946748E+01  0.26412984017E+02  0.51100000000E-03 0. -1.
        -11    1    3    3    0    0  0.50388299458E+01  0.18927458134E+01  0.64865893881E+01  0.84290056405E+01  0.51100000000E-03 0.  1.
         12    1    3    3    0    0 -0.54585475842E+01 -0.95849943940E+01 -0.21831694867E+02  0.24459982830E+02  0.00000000000E+00 0. -1.
</event>
<event>
 7    1  0.3802554E-013  0.5930198E+02  0.7816164E-02  0.1266605E+00
        -11   -1    0    0    0    0  0.00000000000E+00  0.00000000000E+00  0.45593999997E+02  0.45594000000E+02  0.51100000000E-03 0.  1.
         11   -1    0    0    0    0 -0.00000000000E+00 -0.00000000000E+00 -0.45593999997E+02  0.45594000000E+02  0.51100000000E-03 0. -1.
    9900012    2    1    2    0    0 -0.25513011940E+02 -0.10552792507E+02 -0.15951278688E+02  0.59301976420E+02  0.50000059076E+02 0.  0.
        -12    1    1    2    0    0  0.25513011940E+02  0.10552792507E+02  0.15951278688E+02  0.31886023580E+02  0.00000000000E+00 0.  1.
         11    1    3    3    0    0  0.83418333623E+01  0.13925356518E+01 -0.38382407940E+01  0.92874879295E+01  0.51100000000E-03 0. -1.
        -11    1    3    3    0    0 -0.95043692600E+01  0.70069703756E+01 -0.14923564828E+02  0.19030067165E+02  0.51100000000E-03 0.  1.
        -12    1    3    3    0    0 -0.24350476042E+02 -0.18952298535E+02  0.28105269336E+01  0.30984421326E+02  0.00000000000E+00 0.  1.
</event>
<event>
 7    1  0.3802554E-013  0.5930195E+02  0.7816164E-02  0.1266605E+00
        -11   -1    0    0    0    0  0.00000000000E+00  0.00000000000E+00  0.45593999997E+02  0.45594000000E+02  0.51100000000E-03 0. -1.
         11   -1    0    0    0    0 -0.00000000000E+00 -0.00000000000E+00 -0.45593999997E+02  0.45594000000E+02  0.51100000000E-03 0.  1.
    9900012    2    1    2    0    0 -0.20721566302E+02 -0.15934453990E+02  0.18260068956E+02  0.59301948939E+02  0.50000008958E+02 0.  0.
        -12    1    1    2    0    0  0.20721566302E+02  0.15934453990E+02 -0.18260068956E+02  0.31886051061E+02  0.00000000000E+00 0.  1.
         11    1    3    3    0    0  0.11014624485E+02  0.61193384062E+01  0.15200830315E+02  0.19744201620E+02  0.51100000000E-03 0.  1.
        -11    1    3    3    0    0  0.54266474651E-01 -0.29618787021E+00  0.92815872532E+00  0.97578224274E+00  0.51100000000E-03 0. -1.
        -12    1    3    3    0    0 -0.31790457262E+02 -0.21757604526E+02  0.21310799160E+01  0.38581965077E+02  0.00000000000E+00 0.  1.
</event>
<event>
 7    1  0.3802554E-013  0.5930194E+02  0.7816164E-02  0.1266605E+00
        -11   -1    0    0    0    0  0.00000000000E+00  0.00000000000E+00  0.45593999997E+02  0.45594000000E+02  0.51100000000E-03 0. -1.
         11   -1    0    0    0    0 -0.00000000000E+00 -0.00000000000E+00 -0.45593999997E+02  0.45594000000E+02  0.51100000000E-03 0.  1.
    9900012    2    1    2    0    0 -0.36189003748E+01  0.31660053617E+02 -0.11247693461E+01  0.59301944411E+02  0.50000000700E+02 0.  0.
        -12    1    1    2    0    0  0.36189003748E+01 -0.31660053617E+02  0.11247693461E+01  0.31886055589E+02  0.00000000000E+00 0.  1.
         11    1    3    3    0    0 -0.30846337993E+01 -0.13154676371E-01 -0.20782622781E+01  0.37194506421E+01  0.51100000000E-03 0. -1.
        -11    1    3    3    0    0 -0.30102405857E+01  0.72367417320E+01 -0.21140021468E+02  0.22546230000E+02  0.51100000000E-03 0.  1.
         12    1    3    3    0    0  0.24759740102E+01  0.24436466561E+02  0.22093514400E+02  0.33036263769E+02  0.00000000000E+00 0. -1.
</event>
<event>
 7    1  0.3802554E-013  0.5930192E+02  0.7816164E-02  0.1266605E+00
        -11   -1    0    0    0    0  0.00000000000E+00  0.00000000000E+00  0.45593999997E+02  0.45594000000E+02  0.51100000000E-03 0.  1.
         11   -1    0    0    0    0 -0.00000000000E+00 -0.00000000000E+00 -0.45593999997E+02  0.45594000000E+02  0.51100000000E-03 0. -1.
    9900012    2    1    2    0    0 -0.14248953810E+02  0.28372841657E+02  0.29446580156E+01  0.59301924055E+02  0.49999963574E+02 0.  0.
        -12    1    1    2    0    0  0.14248953810E+02 -0.28372841657E+02 -0.29446580156E+01  0.31886075945E+02  0.00000000000E+00 0.  1.
         11    1    3    3    0    0 -0.49704883013E+01  0.11945609066E+02 -0.61890155461E+01  0.14342497816E+02  0.51100000000E-03 0. -1.
        -11    1    3    3    0    0 -0.16933180062E+02  0.19816231674E+01 -0.10021725169E+02  0.19776106619E+02  0.51100000000E-03 0.  1.
         12    1    3    3    0    0  0.76547145539E+01  0.14445609423E+02  0.19155398730E+02  0.25183319619E+02  0.00000000000E+00 0. -1.
</event>
<event>
 7    1  0.3802554E-013  0.5930194E+02  0.7816164E-02  0.1266605E+00
        -11   -1    0    0    0    0  0.00000000000E+00  0.00000000000E+00  0.45593999997E+02  0.45594000000E+02  0.51100000000E-03 0.  1.
         11   -1    0    0    0    0 -0.00000000000E+00 -0.00000000000E+00 -0.45593999997E+02  0.45594000000E+02  0.51100000000E-03 0. -1.
    9900012    2    1    2    0    0  0.15863226201E+02 -0.27175925890E+02 -0.51524699696E+01  0.59301939719E+02  0.49999992141E+02 0.  0.
        -12    1    1    2    0    0 -0.15863226201E+02  0.27175925890E+02  0.51524699696E+01  0.31886060281E+02  0.00000000000E+00 0.  1.
         11    1    3    3    0    0  0.76672476184E+01 -0.19946932737E+02  0.17260456521E+02  0.27469804718E+02  0.51100000000E-03 0.  1.
        -11    1    3    3    0    0  0.12315924723E+02 -0.24764579127E+01 -0.53634434403E+01  0.13659479177E+02  0.51100000000E-03 0. -1.
        -12    1    3    3    0    0 -0.41199461410E+01 -0.47525352405E+01 -0.17049483050E+02  0.18172655824E+02  0.00000000000E+00 0.  1.
</event>
<event>
 7    1  0.3802554E-013  0.5930184E+02  0.7816164E-02  0.1266605E+00
        -11   -1    0    0    0    0  0.00000000000E+00  0.00000000000E+00  0.45593999997E+02  0.45594000000E+02  0.51100000000E-03 0. -1.
         11   -1    0    0    0    0 -0.00000000000E+00 -0.00000000000E+00 -0.45593999997E+02  0.45594000000E+02  0.51100000000E-03 0.  1.
    9900012    2    1    2    0    0 -0.10522128006E+02 -0.23427591444E+02  0.18898673133E+02  0.59301842113E+02  0.49999814131E+02 0.  0.
        -12    1    1    2    0    0  0.10522128006E+02  0.23427591444E+02 -0.18898673133E+02  0.31886157887E+02  0.00000000000E+00 0.  1.
         11    1    3    3    0    0 -0.15813778127E+02 -0.17839399210E+02  0.30836733799E+02  0.38977222765E+02  0.51100000000E-03 0. -1.
        -11    1    3    3    0    0 -0.35421268995E+01 -0.60754963270E+01 -0.26992595480E+01  0.75328826461E+01  0.51100000000E-03 0.  1.
        -12    1    3    3    0    0  0.88337770207E+01  0.48730409360E+00 -0.92388011184E+01  0.12791736701E+02  0.00000000000E+00 0.  1.
</event>
<event>
 7    1  0.3802554E-013  0.5930194E+02  0.7816164E-02  0.1266605E+00
        -11   -1    0    0    0    0  0.00000000000E+00  0.00000000000E+00  0.45593999997E+02  0.45594000000E+02  0.51100000000E-03 0. -1.
         11   -1    0    0    0    0 -0.00000000000E+00 -0.00000000000E+00 -0.45593999997E+02  0.45594000000E+02  0.51100000000E-03 0.  1.
    9900012    2    1    2    0    0 -0.22030033626E+02 -0.12717968465E+02  0.19226324387E+02  0.59301942657E+02  0.49999997499E+02 0.  0.
        -12    1    1    2    0    0  0.22030033626E+02  0.12717968465E+02 -0.19226324387E+02  0.31886057343E+02  0.00000000000E+00 0.  1.
         11    1    3    3    0    0 -0.10020005027E+02  0.96795456223E-01  0.87378308680E+01  0.13295095285E+02  0.51100000000E-03 0. -1.
        -11    1    3    3    0    0 -0.16325977870E+02  0.57678388203E+01 -0.83260113346E+01  0.19212703690E+02  0.51100000000E-03 0.  1.
        -12    1    3    3    0    0  0.43159492700E+01 -0.18582602742E+02  0.18814504854E+02  0.26794143682E+02  0.00000000000E+00 0.  1.
</event>
<event>
 7    1  0.3802554E-013  0.5930208E+02  0.7816164E-02  0.1266604E+00
        -11   -1    0    0    0    0  0.00000000000E+00  0.00000000000E+00  0.45593999997E+02  0.45594000000E+02  0.51100000000E-03 0.  1.
         11   -1    0    0    0    0 -0.00000000000E+00 -0.00000000000E+00 -0.45593999997E+02  0.45594000000E+02  0.51100000000E-03 0. -1.
    9900012    2    1    2    0    0 -0.78812089826E+01 -0.11753558156E+02 -0.28573633392E+02  0.59302076623E+02  0.50000241822E+02 0.  0.
        -12    1    1    2    0    0  0.78812089826E+01  0.11753558156E+02  0.28573633392E+02  0.31885923377E+02  0.00000000000E+00 0.  1.
         11    1    3    3    0    0  0.59411651700E+01 -0.10069721190E+02 -0.14349487247E+02  0.18509578951E+02  0.51100000000E-03 0. -1.
        -11    1    3    3    0    0  0.96237666387E+01 -0.94807576827E+01 -0.55631826297E+01  0.14609950438E+02  0.51100000000E-03 0.  1.
         12    1    3    3    0    0 -0.23446140791E+02  0.77969207171E+01 -0.86609635150E+01  0.26182547234E+02  0.00000000000E+00 0. -1.
</event>
<event>
 7    1  0.3802554E-013  0.5930195E+02  0.7816164E-02  0.1266605E+00
        -11   -1    0    0    0    0  0.00000000000E+00  0.00000000000E+00  0.45593999997E+02  0.45594000000E+02  0.51100000000E-03 0. -1.
         11   -1    0    0    0    0 -0.00000000000E+00 -0.00000000000E+00 -0.45593999997E+02  0.45594000000E+02  0.51100000000E-03 0.  1.
    9900012    2    1    2    0    0  0.31386426101E+02  0.22582003068E+01  0.51490890684E+01  0.59301947716E+02  0.50000006726E+02 0.  0.
        -12    1    1    2    0    0 -0.31386426101E+02 -0.22582003068E+01 -0.51490890684E+01  0.31886052284E+02  0.00000000000E+00 0.  1.
         11    1    3    3    0    0  0.21528497614E+02 -0.98525516325E+01 -0.12603914774E+02  0.26821775688E+02  0.51100000000E-03 0. -1.
        -11    1    3    3    0    0  0.14255324816E+02  0.73614652626E+01  0.29347961025E+01  0.16310073109E+02  0.51100000000E-03 0.  1.
        -12    1    3    3    0    0 -0.43973963281E+01  0.47492866766E+01  0.14818207740E+02  0.16170098918E+02  0.00000000000E+00 0.  1.
</event>
<event>
 7    1  0.3802554E-013  0.5930193E+02  0.7816164E-02  0.1266605E+00
        -11   -1    0    0    0    0  0.00000000000E+00  0.00000000000E+00  0.45593999997E+02  0.45594000000E+02  0.51100000000E-03 0. -1.
         11   -1    0    0    0    0 -0.00000000000E+00 -0.00000000000E+00 -0.45593999997E+02  0.45594000000E+02  0.51100000000E-03 0.  1.
    9900012    2    1    2    0    0  0.79083543679E+01  0.28487571279E+02  0.11943101108E+02  0.59301930153E+02  0.49999974696E+02 0.  0.
        -12    1    1    2    0    0 -0.79083543679E+01 -0.28487571279E+02 -0.11943101108E+02  0.31886069847E+02  0.00000000000E+00 0.  1.
         11    1    3    3    0    0  0.41288269816E+01 -0.88533867399E+01  0.63990241132E+01  0.11678064004E+02  0.51100000000E-03 0. -1.
        -11    1    3    3    0    0 -0.92707039890E+01  0.18620758663E+01  0.31582284570E+00  0.94611322428E+01  0.51100000000E-03 0.  1.
        -12    1    3    3    0    0  0.13050231375E+02  0.35478882153E+02  0.52282541492E+01  0.38162733907E+02  0.00000000000E+00 0.  1.
</event>
<event>
 7    1  0.3802554E-013  0.5930194E+02  0.7816164E-02  0.1266605E+00
        -11   -1    0    0    0    0  0.00000000000E+00  0.00000000000E+00  0.45593999997E+02  0.45594000000E+02  0.51100000000E-03 0. -1.
         11   -1    0    0    0    0 -0.00000000000E+00 -0.00000000000E+00 -0.45593999997E+02  0.45594000000E+02  0.51100000000E-03 0.  1.
    9900012    2    1    2    0    0  0.93004702233E+01  0.30499237459E+02  0.13560114759E+00  0.59301943179E+02  0.49999998452E+02 0.  0.
        -12    1    1    2    0    0 -0.93004702233E+01 -0.30499237459E+02 -0.13560114759E+00  0.31886056821E+02  0.00000000000E+00 0.  1.
         11    1    3    3    0    0  0.45086061280E+01 -0.40318939069E+01  0.50326708892E+01  0.78683844743E+01  0.51100000000E-03 0. -1.
        -11    1    3    3    0    0  0.46712865167E+01 -0.26770411720E+01  0.99972499497E+01  0.11354843635E+02  0.51100000000E-03 0.  1.
         12    1    3    3    0    0  0.12057757861E+00  0.37208172538E+02 -0.14894319691E+02  0.40078715069E+02  0.00000000000E+00 0. -1.
</event>
<event>
 7    1  0.3802554E-013  0.5930195E+02  0.7816164E-02  0.1266605E+00
        -11   -1    0    0    0    0  0.00000000000E+00  0.00000000000E+00  0.45593999997E+02  0.45594000000E+02  0.51100000000E-03 0. -1.
         11   -1    0    0    0    0 -0.00000000000E+00 -0.00000000000E+00 -0.45593999997E+02  0.45594000000E+02  0.51100000000E-03 0.  1.
    9900012    2    1    2    0    0 -0.11982124755E+02  0.29418794780E+02  0.27718815359E+01  0.59301950900E+02  0.50000012534E+02 0.  0.
        -12    1    1    2    0    0  0.11982124755E+02 -0.29418794780E+02 -0.27718815359E+01  0.31886049100E+02  0.00000000000E+00 0.  1.
         11    1    3    3    0    0 -0.56926654632E+01  0.16715389099E+02  0.13596933572E+02  0.22286481903E+02  0.51100000000E-03 0. -1.
        -11    1    3    3    0    0  0.71583068689E+01  0.16021563114E+02  0.25838676174E+01  0.17737198594E+02  0.51100000000E-03 0.  1.
        -12    1    3    3    0    0 -0.13447766161E+02 -0.33181574329E+01 -0.13408919653E+02  0.19278270403E+02  0.00000000000E+00 0.  1.
</event>
<event>
 7    1  0.3802554E-013  0.5930195E+02  0.7816164E-02  0.1266605E+00
        -11   -1    0    0    0    0  0.00000000000E+00  0.00000000000E+00  0.45593999997E+02  0.45594000000E+02  0.51100000000E-03 0. -1.
         11   -1    0    0    0    0 -0.00000000000E+00 -0.00000000000E+00 -0.45593999997E+02  0.45594000000E+02  0.51100000000E-03 0.  1.
    9900012    2    1    2    0    0 -0.16359493285E+02  0.22211342958E+02  0.15991979126E+02  0.59301950184E+02  0.50000011227E+02 0.  0.
        -12    1    1    2    0    0  0.16359493285E+02 -0.22211342958E+02 -0.15991979126E+02  0.31886049816E+02  0.00000000000E+00 0.  1.
         11    1    3    3    0    0 -0.95230548284E+01 -0.71841454797E+01  0.64914042638E+01  0.13580826525E+02  0.51100000000E-03 0. -1.
        -11    1    3    3    0    0 -0.52923929174E+01  0.89939746576E+01  0.20123110669E+02  0.22668052104E+02  0.51100000000E-03 0.  1.
        -12    1    3    3    0    0 -0.15440455392E+01  0.20401513780E+02 -0.10622535807E+02  0.23053071554E+02  0.00000000000E+00 0.  1.
</event>
<event>
 7    1  0.3802554E-013  0.5930193E+02  0.7816164E-02  0.1266605E+00
        -11   -1    0    0    0    0  0.00000000000E+00  0.00000000000E+00  0.45593999997E+02  0.45594000000E+02  0.51100000000E-03 0.  1.
         11   -1    0    0    0    0 -0.00000000000E+00 -0.00000000000E+00 -0.45593999997E+02  0.45594000000E+02  0.51100000000E-03 0. -1.
    9900012    2    1    2    0    0  0.10862957054E+02  0.16348421585E+02 -0.25128606039E+02  0.59301928342E+02  0.49999971394E+02 0.  0.
        -12    1    1    2    0    0 -0.10862957054E+02 -0.16348421585E+02  0.25128606039E+02  0.31886071658E+02  0.00000000000E+00 0.  1.
         11    1    3    3    0    0  0.71896315999E+01  0.19476847808E+02 -0.20268993495E+00  0.20762453770E+02  0.51100000000E-03 0. -1.
        -11    1    3    3    0    0  0.72141168605E+01 -0.28205093799E+01  0.44608480629E+01  0.89385636956E+01  0.51100000000E-03 0.  1.
         12    1    3    3    0    0 -0.35407914060E+01 -0.30791684242E+00 -0.29386764167E+02  0.29600910877E+02  0.00000000000E+00 0. -1.
</event>
<event>
 7    1  0.3802554E-013  0.5930196E+02  0.7816164E-02  0.1266605E+00
        -11   -1    0    0    0    0  0.00000000000E+00  0.00000000000E+00  0.45593999997E+02  0.45594000000E+02  0.51100000000E-03 0.  1.
         11   -1    0    0    0    0 -0.00000000000E+00 -0.00000000000E+00 -0.45593999997E+02  0.45594000000E+02  0.51100000000E-03 0. -1.
    9900012    2    1    2    0    0 -0.18246860395E+02  0.11030754073E+02 -0.23708522455E+02  0.59301960944E+02  0.50000030852E+02 0.  0.
        -12    1    1    2    0    0  0.18246860395E+02 -0.11030754073E+02  0.23708522455E+02  0.31886039056E+02  0.00000000000E+00 0.  1.
         11    1    3    3    0    0 -0.14051765211E+02  0.54978376158E+01 -0.10390936592E+02  0.18320750190E+02  0.51100000000E-03 0. -1.
        -11    1    3    3    0    0  0.62062817913E+01  0.87789441868E+01 -0.23641269467E+02  0.25971088098E+02  0.51100000000E-03 0.  1.
        -12    1    3    3    0    0 -0.10401376975E+02 -0.32460277300E+01  0.10323683605E+02  0.15010122657E+02  0.00000000000E+00 0.  1.
</event>
<event>
 7    1  0.3802554E-013  0.5930192E+02  0.7816164E-02  0.1266605E+00
        -11   -1    0    0    0    0  0.00000000000E+00  0.00000000000E+00  0.45593999997E+02  0.45594000000E+02  0.51100000000E-03 0.  1.
         11   -1    0    0    0    0 -0.00000000000E+00 -0.00000000000E+00 -0.45593999997E+02  0.45594000000E+02  0.51100000000E-03 0. -1.
    9900012    2    1    2    0    0 -0.15743001878E+02 -0.11304234336E+02  0.25319838486E+02  0.59301920859E+02  0.49999957746E+02 0.  0.
        -12    1    1    2    0    0  0.15743001878E+02  0.11304234336E+02 -0.25319838486E+02  0.31886079141E+02  0.00000000000E+00 0.  1.
         11    1    3    3    0    0 -0.16432576862E+02 -0.14456679621E+02 -0.77385635105E+01  0.23214446654E+02  0.51100000000E-03 0. -1.
        -11    1    3    3    0    0  0.47417684396E+01  0.54833729355E+01  0.88894461866E+01  0.11470571060E+02  0.51100000000E-03 0.  1.
        -12    1    3    3    0    0 -0.40521934556E+01 -0.23309276514E+01  0.24168955810E+02  0.24616903145E+02  0.00000000000E+00 0.  1.
</event>
<event>
 7    1  0.3802554E-013  0.5930193E+02  0.7816164E-02  0.1266605E+00
        -11   -1    0    0    0    0  0.00000000000E+00  0.00000000000E+00  0.45593999997E+02  0.45594000000E+02  0.51100000000E-03 0. -1.
         11   -1    0    0    0    0 -0.00000000000E+00 -0.00000000000E+00 -0.45593999997E+02  0.45594000000E+02  0.51100000000E-03 0.  1.
    9900012    2    1    2    0    0 -0.21893286997E+02 -0.19305954945E+02 -0.12832982606E+02  0.59301931656E+02  0.49999977436E+02 0.  0.
        -12    1    1    2    0    0  0.21893286997E+02  0.19305954945E+02  0.12832982606E+02  0.31886068344E+02  0.00000000000E+00 0.  1.
         11    1    3    3    0    0 -0.14634455150E+02 -0.21157860716E+01 -0.18347591900E+02  0.23564336550E+02  0.51100000000E-03 0. -1.
        -11    1    3    3    0    0 -0.10651451371E+02 -0.66762129019E+01 -0.10433586055E+02  0.16336613886E+02  0.51100000000E-03 0.  1.
         12    1    3    3    0    0  0.33926195236E+01 -0.10513955972E+02  0.15948195349E+02  0.19400981220E+02  0.00000000000E+00 0. -1.
</event>
<event>
 7    1  0.3802554E-013  0.5930194E+02  0.7816164E-02  0.1266605E+00
        -11   -1    0    0    0    0  0.00000000000E+00  0.00000000000E+00  0.45593999997E+02  0.45594000000E+02  0.51100000000E-03 0. -1.
         11   -1    0    0    0    0 -0.00000000000E+00 -0.00000000000E+00 -0.45593999997E+02  0.45594000000E+02  0.51100000000E-03 0.  1.
    9900012    2    1    2    0    0  0.23165162763E+02  0.50504088294E+01  0.21321101539E+02  0.59301940883E+02  0.49999994265E+02 0.  0.
        -12    1    1    2    0    0 -0.23165162763E+02 -0.50504088294E+01 -0.21321101539E+02  0.31886059117E+02  0.00000000000E+00 0.  1.
         11    1    3    3    0    0  0.27908702728E+02  0.11271383144E+02  0.10265565949E+02  0.31801283158E+02  0.51100000000E-03 0. -1.
        -11    1    3    3    0    0  0.56502647539E-01  0.88849669869E+01  0.64995530724E+01  0.11008633944E+02  0.51100000000E-03 0.  1.
        -12    1    3    3    0    0 -0.48000426132E+01 -0.15105941302E+02  0.45559825177E+01  0.16492023781E+02  0.00000000000E+00 0.  1.
</event>
<event>
 7    1  0.3802554E-013  0.5930193E+02  0.7816164E-02  0.1266605E+00
        -11   -1    0    0    0    0  0.00000000000E+00  0.00000000000E+00  0.45593999997E+02  0.45594000000E+02  0.51100000000E-03 0.  1.
         11   -1    0    0    0    0 -0.00000000000E+00 -0.00000000000E+00 -0.45593999997E+02  0.45594000000E+02  0.51100000000E-03 0. -1.
    9900012    2    1    2    0    0 -0.18780265274E+02 -0.25737862188E+02 -0.12591579585E+01  0.59301931059E+02  0.49999976348E+02 0.  0.
        -12    1    1    2    0    0  0.18780265274E+02  0.25737862188E+02  0.12591579585E+01  0.31886068941E+02  0.00000000000E+00 0.  1.
         11    1    3    3    0    0 -0.16353308769E+02 -0.82877162795E+01 -0.58340100993E+01  0.19239350896E+02  0.51100000000E-03 0. -1.
        -11    1    3    3    0    0 -0.18653013922E+02 -0.11984885096E+02 -0.58846443083E+00  0.22179240064E+02  0.51100000000E-03 0.  1.
        -12    1    3    3    0    0  0.16226057418E+02 -0.54652608129E+01  0.51633165716E+01  0.17883340099E+02  0.00000000000E+00 0.  1.
</event>
<event>
 7    1  0.3802554E-013  0.5930194E+02  0.7816164E-02  0.1266605E+00
        -11   -1    0    0    0    0  0.00000000000E+00  0.00000000000E+00  0.45593999997E+02  0.45594000000E+02  0.51100000000E-03 0. -1.
         11   -1    0    0    0    0 -0.00000000000E+00 -0.00000000000E+00 -0.45593999997E+02  0.45594000000E+02  0.51100000000E-03 0.  1.
    9900012    2    1    2    0    0  0.11506215553E+02  0.24668530466E+02  0.16606963352E+02  0.59301943118E+02  0.49999998341E+02 0.  0.
        -12    1    1    2    0    0 -0.11506215553E+02 -0.24668530466E+02 -0.16606963352E+02  0.31886056882E+02  0.00000000000E+00 0.  1.
         11    1    3    3    0    0 -0.76816098873E+01 -0.47812089717E+01  0.98526454983E+01  0.13376909705E+02  0.51100000000E-03 0. -1.
        -11    1    3    3    0    0 -0.61541579893E+01  0.12668133462E+01  0.49187499338E+01  0.79795098712E+01  0.51100000000E-03 0.  1.
        -12    1    3    3    0    0  0.25341983430E+02  0.28182926092E+02  0.18355679204E+01  0.37945523541E+02  0.00000000000E+00 0.  1.
</event>
<event>
 7    1  0.3802554E-013  0.5930194E+02  0.7816164E-02  0.1266605E+00
        -11   -1    0    0    0    0  0.00000000000E+00  0.00000000000E+00  0.45593999997E+02  0.45594000000E+02  0.51100000000E-03 0. -1.
         11   -1    0    0    0    0 -0.00000000000E+00 -0.00000000000E+00 -0.45593999997E+02  0.45594000000E+02  0.51100000000E-03 0.  1.
    9900012    2    1    2    0    0 -0.73547661023E+01 -0.13093940997E+02  0.28127872613E+02  0.59301935756E+02  0.49999984914E+02 0.  0.
        -12    1    1    2    0    0  0.73547661023E+01  0.13093940997E+02 -0.28127872613E+02  0.31886064244E+02  0.00000000000E+00 0.  1.
         11    1    3    3    0    0  0.11254259848E+02 -0.19223467195E+02  0.17080070742E+02  0.28070070761E+02  0.51100000000E-03 0. -1.
        -11    1    3    3    0    0 -0.43574657465E+01 -0.37114018795E+01  0.12604211390E+02  0.13842982217E+02  0.51100000000E-03 0.  1.
        -12    1    3    3    0    0 -0.14251560203E+02  0.98409280774E+01 -0.15564095187E+01  0.17388882777E+02  0.00000000000E+00 0.  1.
</event>
<event>
 7    1  0.3802554E-013  0.5930197E+02  0.7816164E-02  0.1266605E+00
        -11   -1    0    0    0    0  0.00000000000E+00  0.00000000000E+00  0.45593999997E+02  0.45594000000E+02  0.51100000000E-03 0. -1.
         11   -1    0    0    0    0 -0.00000000000E+00 -0.00000000000E+00 -0.45593999997E+02  0.45594000000E+02  0.51100000000E-03 0.  1.
    9900012    2    1    2    0    0 -0.16825228424E+02  0.19757747955E+02  0.18527329868E+02  0.59301970649E+02  0.50000048550E+02 0.  0.
        -12    1    1    2    0    0  0.16825228424E+02 -0.19757747955E+02 -0.18527329868E+02  0.31886029351E+02  0.00000000000E+00 0.  1.
         11    1    3    3    0    0 -0.83405817478E+01 -0.10115031697E+01  0.11675828807E+02  0.14384485432E+02  0.51100000000E-03 0. -1.
        -11    1    3    3    0    0  0.86856964904E+01 -0.48563343282E+01 -0.58671509178E+01  0.11552002717E+02  0.51100000000E-03 0.  1.
         12    1    3    3    0    0 -0.17170343167E+02  0.25625585453E+02  0.12718651979E+02  0.33365482499E+02  0.00000000000E+00 0. -1.
</event>
<event>
 7    1  0.3802554E-013  0.5930195E+02  0.7816164E-02  0.1266605E+00
        -11   -1    0    0    0    0  0.00000000000E+00  0.00000000000E+00  0.45593999997E+02  0.45594000000E+02  0.51100000000E-03 0. -1.
         11   -1    0    0    0    0 -0.00000000000E+00 -0.00000000000E+00 -0.45593999997E+02  0.45594000000E+02  0.51100000000E-03 0.  1.
    9900012    2    1    2    0    0  0.25020345531E+02 -0.18374144666E+02  0.72865007665E+01  0.59301953269E+02  0.50000016854E+02 0.  0.
        -12    1    1    2    0    0 -0.25020345531E+02  0.18374144666E+02 -0.72865007665E+01  0.31886046731E+02  0.00000000000E+00 0.  1.
         11    1    3    3    0    0  0.13097546150E+02 -0.14234351119E+02  0.19809447175E+02  0.27687120915E+02  0.51100000000E-03 0. -1.
        -11    1    3    3    0    0 -0.57436214117E+01 -0.61063913396E+00  0.41149148429E+01  0.70918679837E+01  0.51100000000E-03 0.  1.
        -12    1    3    3    0    0  0.17666420792E+02 -0.35291544131E+01 -0.16637861252E+02  0.24522964370E+02  0.00000000000E+00 0.  1.
</event>
<event>
 7    1  0.3802554E-013  0.5930193E+02  0.7816164E-02  0.1266605E+00
        -11   -1    0    0    0    0  0.00000000000E+00  0.00000000000E+00  0.45593999997E+02  0.45594000000E+02  0.51100000000E-03 0.  1.
         11   -1    0    0    0    0 -0.00000000000E+00 -0.00000000000E+00 -0.45593999997E+02  0.45594000000E+02  0.51100000000E-03 0. -1.
    9900012    2    1    2    0    0  0.28054802884E+02 -0.60717328925E+01 -0.13884647183E+02  0.59301931999E+02  0.49999978062E+02 0.  0.
        -12    1    1    2    0    0 -0.28054802884E+02  0.60717328925E+01  0.13884647183E+02  0.31886068001E+02  0.00000000000E+00 0.  1.
         11    1    3    3    0    0  0.94300511514E+01  0.39053677764E+01 -0.13852615358E+02  0.17206763632E+02  0.51100000000E-03 0.  1.
        -11    1    3    3    0    0  0.78971052556E+01  0.10756667424E+02 -0.10036267606E+02  0.16697210342E+02  0.51100000000E-03 0. -1.
        -12    1    3    3    0    0  0.10727646477E+02 -0.20733768093E+02  0.10004235781E+02  0.25397958024E+02  0.00000000000E+00 0.  1.
</event>
<event>
 7    1  0.3802554E-013  0.5930195E+02  0.7816164E-02  0.1266605E+00
        -11   -1    0    0    0    0  0.00000000000E+00  0.00000000000E+00  0.45593999997E+02  0.45594000000E+02  0.51100000000E-03 0. -1.
         11   -1    0    0    0    0 -0.00000000000E+00 -0.00000000000E+00 -0.45593999997E+02  0.45594000000E+02  0.51100000000E-03 0.  1.
    9900012    2    1    2    0    0 -0.13108659496E+02  0.29054417644E+02 -0.85095174160E+00  0.59301948860E+02  0.50000008814E+02 0.  0.
        -12    1    1    2    0    0  0.13108659496E+02 -0.29054417644E+02  0.85095174160E+00  0.31886051140E+02  0.00000000000E+00 0.  1.
         11    1    3    3    0    0 -0.81910226635E+01  0.31922047080E+01  0.12310794100E+02  0.15127414677E+02  0.51100000000E-03 0. -1.
        -11    1    3    3    0    0 -0.10555335760E+02  0.40110773610E+01 -0.17854085489E+02  0.21125156177E+02  0.51100000000E-03 0.  1.
         12    1    3    3    0    0  0.56376989270E+01  0.21851135575E+02  0.46923396478E+01  0.23049378006E+02  0.00000000000E+00 0. -1.
</event>
<event>
 7    1  0.3802554E-013  0.5930189E+02  0.7816164E-02  0.1266605E+00
        -11   -1    0    0    0    0  0.00000000000E+00  0.00000000000E+00  0.45593999997E+02  0.45594000000E+02  0.51100000000E-03 0.  1.
         11   -1    0    0    0    0 -0.00000000000E+00 -0.00000000000E+00 -0.45593999997E+02  0.45594000000E+02  0.51100000000E-03 0. -1.
    9900012    2    1    2    0    0 -0.21312150633E+02  0.58427099922E+01 -0.22986500280E+02  0.59301886725E+02  0.49999895493E+02 0.  0.
        -12    1    1    2    0    0  0.21312150633E+02 -0.58427099922E+01  0.22986500280E+02  0.31886113275E+02  0.00000000000E+00 0.  1.
         11    1    3    3    0    0 -0.17211626385E+02 -0.96574517297E+01 -0.18201602672E+02  0.26847808045E+02  0.51100000000E-03 0. -1.
        -11    1    3    3    0    0  0.76162292412E+01 -0.35975725669E+01 -0.54607721560E+01  0.10038401717E+02  0.51100000000E-03 0.  1.
         12    1    3    3    0    0 -0.11716753489E+02  0.19097734289E+02  0.67587454770E+00  0.22415676963E+02  0.00000000000E+00 0. -1.
</event>
<event>
 7    1  0.3802554E-013  0.5930192E+02  0.7816164E-02  0.1266605E+00
        -11   -1    0    0    0    0  0.00000000000E+00  0.00000000000E+00  0.45593999997E+02  0.45594000000E+02  0.51100000000E-03 0.  1.
         11   -1    0    0    0    0 -0.00000000000E+00 -0.00000000000E+00 -0.45593999997E+02  0.45594000000E+02  0.51100000000E-03 0. -1.
    9900012    2    1    2    0    0  0.41544443483E+01 -0.84365664275E+01 -0.30467802777E+02  0.59301920483E+02  0.49999957060E+02 0.  0.
        -12    1    1    2    0    0 -0.41544443483E+01  0.84365664275E+01  0.30467802777E+02  0.31886079517E+02  0.00000000000E+00 0.  1.
         11    1    3    3    0    0 -0.65885002060E+01  0.55932882623E+01 -0.86790042500E+01  0.12248196748E+02  0.51100000000E-03 0. -1.
        -11    1    3    3    0    0 -0.11373035418E+02  0.49204453267E+01 -0.44953090245E+01  0.13181977102E+02  0.51100000000E-03 0.  1.
        -12    1    3    3    0    0  0.22115979972E+02 -0.18950300016E+02 -0.17293489502E+02  0.33871746633E+02  0.00000000000E+00 0.  1.
</event>
<event>
 7    1  0.3802554E-013  0.5930191E+02  0.7816164E-02  0.1266605E+00
        -11   -1    0    0    0    0  0.00000000000E+00  0.00000000000E+00  0.45593999997E+02  0.45594000000E+02  0.51100000000E-03 0. -1.
         11   -1    0    0    0    0 -0.00000000000E+00 -0.00000000000E+00 -0.45593999997E+02  0.45594000000E+02  0.51100000000E-03 0.  1.
    9900012    2    1    2    0    0 -0.16342515934E+02 -0.18519997352E+02  0.20165677790E+02  0.59301910718E+02  0.49999939251E+02 0.  0.
        -12    1    1    2    0    0  0.16342515934E+02  0.18519997352E+02 -0.20165677790E+02  0.31886089282E+02  0.00000000000E+00 0.  1.
         11    1    3    3    0    0  0.35055616810E+01 -0.11693338843E+02 -0.50333107615E+01  0.13204444460E+02  0.51100000000E-03 0. -1.
        -11    1    3    3    0    0 -0.49431061563E+01  0.46592679512E+01 -0.63916579880E+01  0.93271843774E+01  0.51100000000E-03 0.  1.
         12    1    3    3    0    0 -0.14904971459E+02 -0.11485926460E+02  0.31590646539E+02  0.36770281881E+02  0.00000000000E+00 0. -1.
</event>
<event>
 7    1  0.3802554E-013  0.5930212E+02  0.7816164E-02  0.1266604E+00
        -11   -1    0    0    0    0  0.00000000000E+00  0.00000000000E+00  0.45593999997E+02  0.45594000000E+02  0.51100000000E-03 0. -1.
         11   -1    0    0    0    0 -0.00000000000E+00 -0.00000000000E+00 -0.45593999997E+02  0.45594000000E+02  0.51100000000E-03 0.  1.
    9900012    2    1    2    0    0 -0.21643998609E+02  0.19077145298E+02 -0.13576045891E+02  0.59302122710E+02  0.50000325873E+02 0.  0.
        -12    1    1    2    0    0  0.21643998609E+02 -0.19077145298E+02  0.13576045891E+02  0.31885877290E+02  0.00000000000E+00 0.  1.
         11    1    3    3    0    0 -0.54677676231E+01 -0.38989089808E+01 -0.42040396731E+01  0.79228734595E+01  0.51100000000E-03 0. -1.
        -11    1    3    3    0    0  0.13181759102E+02  0.11601735845E+01  0.12505606204E+01  0.13291677016E+02  0.51100000000E-03 0.  1.
        -12    1    3    3    0    0 -0.29357990088E+02  0.21815880695E+02 -0.10622566838E+02  0.38087572235E+02  0.00000000000E+00 0.  1.
</event>
<event>
 7    1  0.3802554E-013  0.5930195E+02  0.7816164E-02  0.1266605E+00
        -11   -1    0    0    0    0  0.00000000000E+00  0.00000000000E+00  0.45593999997E+02  0.45594000000E+02  0.51100000000E-03 0.  1.
         11   -1    0    0    0    0 -0.00000000000E+00 -0.00000000000E+00 -0.45593999997E+02  0.45594000000E+02  0.51100000000E-03 0. -1.
    9900012    2    1    2    0    0  0.12923021139E+02 -0.29149777656E+02  0.77792827855E-01  0.59301951884E+02  0.50000014328E+02 0.  0.
        -12    1    1    2    0    0 -0.12923021139E+02  0.29149777656E+02 -0.77792827855E-01  0.31886048116E+02  0.00000000000E+00 0.  1.
         11    1    3    3    0    0  0.83852610902E+01  0.22988406206E+00 -0.77783746495E+01  0.11439779835E+02  0.51100000000E-03 0. -1.
        -11    1    3    3    0    0  0.55961676443E+01 -0.29920609205E+02 -0.83884422795E+01  0.31574133585E+02  0.51100000000E-03 0.  1.
        -12    1    3    3    0    0 -0.10584075954E+01  0.54094748768E+00  0.16244609757E+02  0.16288038463E+02  0.00000000000E+00 0.  1.
</event>
<event>
 7    1  0.3802554E-013  0.5930196E+02  0.7816164E-02  0.1266605E+00
        -11   -1    0    0    0    0  0.00000000000E+00  0.00000000000E+00  0.45593999997E+02  0.45594000000E+02  0.51100000000E-03 0.  1.
         11   -1    0    0    0    0 -0.00000000000E+00 -0.00000000000E+00 -0.45593999997E+02  0.45594000000E+02  0.51100000000E-03 0. -1.
    9900012    2    1    2    0    0  0.30328386766E+02  0.16505129671E+01 -0.97048638119E+01  0.59301958877E+02  0.50000027082E+02 0.  0.
        -12    1    1    2    0    0 -0.30328386766E+02 -0.16505129671E+01  0.97048638119E+01  0.31886041123E+02  0.00000000000E+00 0.  1.
         11    1    3    3    0    0  0.55957716607E+00 -0.69277608241E+01  0.52285443649E+01  0.86973946143E+01  0.51100000000E-03 0. -1.
        -11    1    3    3    0    0 -0.73019042014E+00 -0.47009462282E+01  0.86200069064E+01  0.98456382636E+01  0.51100000000E-03 0.  1.
         12    1    3    3    0    0  0.30499000020E+02  0.13279220019E+02 -0.23553415083E+02  0.40758925999E+02  0.00000000000E+00 0. -1.
</event>
<event>
 7    1  0.3802554E-013  0.5930196E+02  0.7816164E-02  0.1266605E+00
        -11   -1    0    0    0    0  0.00000000000E+00  0.00000000000E+00  0.45593999997E+02  0.45594000000E+02  0.51100000000E-03 0. -1.
         11   -1    0    0    0    0 -0.00000000000E+00 -0.00000000000E+00 -0.45593999997E+02  0.45594000000E+02  0.51100000000E-03 0.  1.
    9900012    2    1    2    0    0  0.68489086476E+01  0.21383441267E+02  0.22639800888E+02  0.59301957687E+02  0.50000024912E+02 0.  0.
        -12    1    1    2    0    0 -0.68489086476E+01 -0.21383441267E+02 -0.22639800888E+02  0.31886042313E+02  0.00000000000E+00 0.  1.
         11    1    3    3    0    0  0.71778299992E+01  0.16458733808E+02  0.12649056126E+02  0.21963828973E+02  0.51100000000E-03 0. -1.
        -11    1    3    3    0    0 -0.12969665367E+02  0.11679694795E+02 -0.33333366294E+01  0.17769035528E+02  0.51100000000E-03 0.  1.
         12    1    3    3    0    0  0.12640744016E+02 -0.67549873354E+01  0.13324081392E+02  0.19569093186E+02  0.00000000000E+00 0. -1.
</event>
<event>
 7    1  0.3802554E-013  0.5930194E+02  0.7816164E-02  0.1266605E+00
        -11   -1    0    0    0    0  0.00000000000E+00  0.00000000000E+00  0.45593999997E+02  0.45594000000E+02  0.51100000000E-03 0. -1.
         11   -1    0    0    0    0 -0.00000000000E+00 -0.00000000000E+00 -0.45593999997E+02  0.45594000000E+02  0.51100000000E-03 0.  1.
    9900012    2    1    2    0    0 -0.31524694257E+02 -0.27708340394E+01  0.39034816081E+01  0.59301936619E+02  0.49999986488E+02 0.  0.
        -12    1    1    2    0    0  0.31524694257E+02  0.27708340394E+01 -0.39034816081E+01  0.31886063381E+02  0.00000000000E+00 0.  1.
         11    1    3    3    0    0 -0.77734670522E+00 -0.78005908860E+01  0.82363146062E-01  0.78396600704E+01  0.51100000000E-03 0. -1.
        -11    1    3    3    0    0 -0.29631008514E+02 -0.72572452784E+01 -0.10771961037E+02  0.32352734343E+02  0.51100000000E-03 0.  1.
         12    1    3    3    0    0 -0.11163390374E+01  0.12287002125E+02  0.14593079499E+02  0.19109542206E+02  0.00000000000E+00 0. -1.
</event>
<event>
 7    1  0.3802554E-013  0.5930194E+02  0.7816164E-02  0.1266605E+00
        -11   -1    0    0    0    0  0.00000000000E+00  0.00000000000E+00  0.45593999997E+02  0.45594000000E+02  0.51100000000E-03 0.  1.
         11   -1    0    0    0    0 -0.00000000000E+00 -0.00000000000E+00 -0.45593999997E+02  0.45594000000E+02  0.51100000000E-03 0. -1.
    9900012    2    1    2    0    0 -0.64607290874E+01  0.30602906535E+02  0.62001475883E+01  0.59301941309E+02  0.49999995041E+02 0.  0.
        -12    1    1    2    0    0  0.64607290874E+01 -0.30602906535E+02 -0.62001475883E+01  0.31886058691E+02  0.00000000000E+00 0.  1.
         11    1    3    3    0    0 -0.13438849296E+02  0.13829622424E+02  0.78008146943E+01  0.20801774851E+02  0.51100000000E-03 0. -1.
        -11    1    3    3    0    0 -0.73445355520E+01  0.20257561144E+02  0.53516712877E+01  0.22202508233E+02  0.51100000000E-03 0.  1.
        -12    1    3    3    0    0  0.14322655760E+02 -0.34842770332E+01 -0.69523383937E+01  0.16297658225E+02  0.00000000000E+00 0.  1.
</event>
<event>
 7    1  0.3802554E-013  0.5930195E+02  0.7816164E-02  0.1266605E+00
        -11   -1    0    0    0    0  0.00000000000E+00  0.00000000000E+00  0.45593999997E+02  0.45594000000E+02  0.51100000000E-03 0.  1.
         11   -1    0    0    0    0 -0.00000000000E+00 -0.00000000000E+00 -0.45593999997E+02  0.45594000000E+02  0.51100000000E-03 0. -1.
    9900012    2    1    2    0    0 -0.13775524505E+02 -0.14211052672E+02 -0.25000027032E+02  0.59301945917E+02  0.50000003445E+02 0.  0.
        -12    1    1    2    0    0  0.13775524505E+02  0.14211052672E+02  0.25000027032E+02  0.31886054083E+02  0.00000000000E+00 0.  1.
         11    1    3    3    0    0 -0.10061755629E+02 -0.17387383858E+02 -0.18493485515E+02  0.27305110337E+02  0.51100000000E-03 0. -1.
        -11    1    3    3    0    0 -0.13997041015E+01 -0.70104536564E+01 -0.16224253083E+02  0.17729411169E+02  0.51100000000E-03 0.  1.
        -12    1    3    3    0    0 -0.23140647749E+01  0.10186784843E+02  0.97177115663E+01  0.14267424410E+02  0.00000000000E+00 0.  1.
</event>
<event>
 7    1  0.3802554E-013  0.5930196E+02  0.7816164E-02  0.1266605E+00
        -11   -1    0    0    0    0  0.00000000000E+00  0.00000000000E+00  0.45593999997E+02  0.45594000000E+02  0.51100000000E-03 0.  1.
         11   -1    0    0    0    0 -0.00000000000E+00 -0.00000000000E+00 -0.45593999997E+02  0.45594000000E+02  0.51100000000E-03 0. -1.
    9900012    2    1    2    0    0  0.15810804100E+02 -0.11191325063E+02 -0.25327692658E+02  0.59301963897E+02  0.50000036237E+02 0.  0.
        -12    1    1    2    0    0 -0.15810804100E+02  0.11191325063E+02  0.25327692658E+02  0.31886036103E+02  0.00000000000E+00 0.  1.
         11    1    3    3    0    0  0.46990658895E+01 -0.14332015833E+02 -0.11011276892E+02  0.18674477693E+02  0.51100000000E-03 0. -1.
        -11    1    3    3    0    0 -0.11181906845E+02  0.63446095439E+01 -0.12660880755E+02  0.18044029835E+02  0.51100000000E-03 0.  1.
         12    1    3    3    0    0  0.22293645056E+02 -0.32039187739E+01 -0.16555350119E+01  0.22583456369E+02  0.00000000000E+00 0. -1.
</event>
<event>
 7    1  0.3802554E-013  0.5930189E+02  0.7816164E-02  0.1266605E+00
        -11   -1    0    0    0    0  0.00000000000E+00  0.00000000000E+00  0.45593999997E+02  0.45594000000E+02  0.51100000000E-03 0.  1.
         11   -1    0    0    0    0 -0.00000000000E+00 -0.00000000000E+00 -0.45593999997E+02  0.45594000000E+02  0.51100000000E-03 0. -1.
    9900012    2    1    2    0    0  0.30262861440E+02  0.32731621001E+01 -0.94957534621E+01  0.59301894774E+02  0.49999910174E+02 0.  0.
        -12    1    1    2    0    0 -0.30262861440E+02 -0.32731621001E+01  0.94957534621E+01  0.31886105226E+02  0.00000000000E+00 0.  1.
         11    1    3    3    0    0  0.13200243093E+02 -0.10165159947E+02 -0.91249321966E+01  0.18995822760E+02  0.51100000000E-03 0. -1.
        -11    1    3    3    0    0  0.27470839163E+02  0.83331477538E+01 -0.53949676572E+00  0.28712008165E+02  0.51100000000E-03 0.  1.
        -12    1    3    3    0    0 -0.10408220817E+02  0.51051742932E+01  0.16867550017E+00  0.11594063850E+02  0.00000000000E+00 0.  1.
</event>
<event>
 7    1  0.3802554E-013  0.5930196E+02  0.7816164E-02  0.1266605E+00
        -11   -1    0    0    0    0  0.00000000000E+00  0.00000000000E+00  0.45593999997E+02  0.45594000000E+02  0.51100000000E-03 0.  1.
         11   -1    0    0    0    0 -0.00000000000E+00 -0.00000000000E+00 -0.45593999997E+02  0.45594000000E+02  0.51100000000E-03 0. -1.
    9900012    2    1    2    0    0 -0.77715159858E+01  0.27891125410E+01 -0.30798440943E+02  0.59301959575E+02  0.50000028354E+02 0.  0.
        -12    1    1    2    0    0  0.77715159858E+01 -0.27891125410E+01  0.30798440943E+02  0.31886040425E+02  0.00000000000E+00 0.  1.
         11    1    3    3    0    0  0.64015992685E+01  0.56922316446E+01 -0.36976873304E+01  0.93303197237E+01  0.51100000000E-03 0. -1.
        -11    1    3    3    0    0  0.61845814011E+01 -0.65264210248E+01 -0.27865189184E+02  0.29279890489E+02  0.51100000000E-03 0.  1.
        -12    1    3    3    0    0 -0.20357696655E+02  0.36233019212E+01  0.76443557178E+00  0.20691749362E+02  0.00000000000E+00 0.  1.
</event>
<event>
 7    1  0.3802554E-013  0.5930206E+02  0.7816164E-02  0.1266604E+00
        -11   -1    0    0    0    0  0.00000000000E+00  0.00000000000E+00  0.45593999997E+02  0.45594000000E+02  0.51100000000E-03 0. -1.
         11   -1    0    0    0    0 -0.00000000000E+00 -0.00000000000E+00 -0.45593999997E+02  0.45594000000E+02  0.51100000000E-03 0.  1.
    9900012    2    1    2    0    0  0.16817721957E+02  0.25666837679E+02  0.86655145217E+01  0.59302055287E+02  0.50000202910E+02 0.  0.
        -12    1    1    2    0    0 -0.16817721957E+02 -0.25666837679E+02 -0.86655145217E+01  0.31885944713E+02  0.00000000000E+00 0.  1.
         11    1    3    3    0    0  0.18188307917E+01  0.69278746284E+01 -0.15279557971E+02  0.16875084722E+02  0.51100000000E-03 0. -1.
        -11    1    3    3    0    0  0.73776781132E+01  0.50396070012E+01 -0.44578533213E+01  0.99850002285E+01  0.51100000000E-03 0.  1.
         12    1    3    3    0    0  0.76212130523E+01  0.13699356050E+02  0.28402925814E+02  0.32441970337E+02  0.00000000000E+00 0. -1.
</event>
<event>
 7    1  0.3802554E-013  0.5930194E+02  0.7816164E-02  0.1266605E+00
        -11   -1    0    0    0    0  0.00000000000E+00  0.00000000000E+00  0.45593999997E+02  0.45594000000E+02  0.51100000000E-03 0.  1.
         11   -1    0    0    0    0 -0.00000000000E+00 -0.00000000000E+00 -0.45593999997E+02  0.45594000000E+02  0.51100000000E-03 0. -1.
    9900012    2    1    2    0    0  0.16152609958E+02 -0.21457326454E+02 -0.17187127763E+02  0.59301936778E+02  0.49999986778E+02 0.  0.
        -12    1    1    2    0    0 -0.16152609958E+02  0.21457326454E+02  0.17187127763E+02  0.31886063222E+02  0.00000000000E+00 0.  1.
         11    1    3    3    0    0  0.11192462929E+02  0.10078980214E+01 -0.21202777316E+02  0.23996767512E+02  0.51100000000E-03 0. -1.
        -11    1    3    3    0    0 -0.50911718101E+01 -0.13048478279E+02 -0.87588971987E+01  0.16519718406E+02  0.51100000000E-03 0.  1.
        -12    1    3    3    0    0  0.10051318839E+02 -0.94167461963E+01  0.12774546751E+02  0.18785450861E+02  0.00000000000E+00 0.  1.
</event>
<event>
 7    1  0.3802554E-013  0.5930192E+02  0.7816164E-02  0.1266605E+00
        -11   -1    0    0    0    0  0.00000000000E+00  0.00000000000E+00  0.45593999997E+02  0.45594000000E+02  0.51100000000E-03 0.  1.
         11   -1    0    0    0    0 -0.00000000000E+00 -0.00000000000E+00 -0.45593999997E+02  0.45594000000E+02  0.51100000000E-03 0. -1.
    9900012    2    1    2    0    0  0.25453912246E+02  0.22142665926E+00  0.19203424712E+02  0.59301918412E+02  0.49999953282E+02 0.  0.
        -12    1    1    2    0    0 -0.25453912246E+02 -0.22142665926E+00 -0.19203424712E+02  0.31886081588E+02  0.00000000000E+00 0.  1.
         11    1    3    3    0    0  0.38309923929E+01  0.10012468153E+02  0.13373954812E+02  0.17140265133E+02  0.51100000000E-03 0. -1.
        -11    1    3    3    0    0  0.10218689446E+01  0.62407887725E+01  0.13538845685E+02  0.14942958321E+02  0.51100000000E-03 0.  1.
         12    1    3    3    0    0  0.20601050908E+02 -0.16031830266E+02 -0.77093757852E+01  0.27218694958E+02  0.00000000000E+00 0. -1.
</event>
<event>
 7    1  0.3802554E-013  0.5930194E+02  0.7816164E-02  0.1266605E+00
        -11   -1    0    0    0    0  0.00000000000E+00  0.00000000000E+00  0.45593999997E+02  0.45594000000E+02  0.51100000000E-03 0.  1.
         11   -1    0    0    0    0 -0.00000000000E+00 -0.00000000000E+00 -0.45593999997E+02  0.45594000000E+02  0.51100000000E-03 0. -1.
    9900012    2    1    2    0    0 -0.28116167999E+02 -0.37179807410E+01 -0.14573205855E+02  0.59301943288E+02  0.49999998650E+02 0.  0.
        -12    1    1    2    0    0  0.28116167999E+02  0.37179807410E+01  0.14573205855E+02  0.31886056712E+02  0.00000000000E+00 0.  1.
         11    1    3    3    0    0  0.44966006999E+01  0.31465109290E+01 -0.19542064113E+02  0.20298084119E+02  0.51100000000E-03 0. -1.
        -11    1    3    3    0    0 -0.30386993332E+01 -0.21155851356E+01 -0.60461343424E+01  0.70897908891E+01  0.51100000000E-03 0.  1.
        -12    1    3    3    0    0 -0.29574069366E+02 -0.47489065344E+01  0.11014992600E+02  0.31914068279E+02  0.00000000000E+00 0.  1.
</event>
<event>
 7    1  0.3802554E-013  0.5930193E+02  0.7816164E-02  0.1266605E+00
        -11   -1    0    0    0    0  0.00000000000E+00  0.00000000000E+00  0.45593999997E+02  0.45594000000E+02  0.51100000000E-03 0.  1.
         11   -1    0    0    0    0 -0.00000000000E+00 -0.00000000000E+00 -0.45593999997E+02  0.45594000000E+02  0.51100000000E-03 0. -1.
    9900012    2    1    2    0    0  0.76770127962E+01  0.29939412977E+02  0.78368793680E+01  0.59301926972E+02  0.49999968895E+02 0.  0.
        -12    1    1    2    0    0 -0.76770127962E+01 -0.29939412977E+02 -0.78368793680E+01  0.31886073028E+02  0.00000000000E+00 0.  1.
         11    1    3    3    0    0  0.10723884482E+02  0.81235905117E+01  0.36148838503E+00  0.13458272374E+02  0.51100000000E-03 0. -1.
        -11    1    3    3    0    0  0.68521532561E+01 -0.96564260864E+01  0.46843569777E+01  0.12733490078E+02  0.51100000000E-03 0.  1.
         12    1    3    3    0    0 -0.98990249421E+01  0.31472248552E+02  0.27910340052E+01  0.33110164520E+02  0.00000000000E+00 0. -1.
</event>
<event>
 7    1  0.3802554E-013  0.5930194E+02  0.7816164E-02  0.1266605E+00
        -11   -1    0    0    0    0  0.00000000000E+00  0.00000000000E+00  0.45593999997E+02  0.45594000000E+02  0.51100000000E-03 0.  1.
         11   -1    0    0    0    0 -0.00000000000E+00 -0.00000000000E+00 -0.45593999997E+02  0.45594000000E+02  0.51100000000E-03 0. -1.
    9900012    2    1    2    0    0 -0.23079547886E+02 -0.15801501287E+02 -0.15309087232E+02  0.59301935247E+02  0.49999983986E+02 0.  0.
        -12    1    1    2    0    0  0.23079547886E+02  0.15801501287E+02  0.15309087232E+02  0.31886064753E+02  0.00000000000E+00 0.  1.
         11    1    3    3    0    0 -0.15299676200E+02 -0.28042412273E+01 -0.83858588125E+00  0.15577133472E+02  0.51100000000E-03 0. -1.
        -11    1    3    3    0    0 -0.15391710908E+02 -0.21792437655E+02 -0.17243504079E+02  0.31767177036E+02  0.51100000000E-03 0.  1.
         12    1    3    3    0    0  0.76118392217E+01  0.87951775953E+01  0.27730027285E+01  0.11957624739E+02  0.00000000000E+00 0. -1.
</event>
<event>
 7    1  0.3802554E-013  0.5930191E+02  0.7816164E-02  0.1266605E+00
        -11   -1    0    0    0    0  0.00000000000E+00  0.00000000000E+00  0.45593999997E+02  0.45594000000E+02  0.51100000000E-03 0.  1.
         11   -1    0    0    0    0 -0.00000000000E+00 -0.00000000000E+00 -0.45593999997E+02  0.45594000000E+02  0.51100000000E-03 0. -1.
    9900012    2    1    2    0    0  0.54221387465E+01 -0.91559753506E+01 -0.30058132426E+02  0.59301909018E+02  0.49999936150E+02 0.  0.
        -12    1    1    2    0    0 -0.54221387465E+01  0.91559753506E+01  0.30058132426E+02  0.31886090982E+02  0.00000000000E+00 0.  1.
         11    1    3    3    0    0 -0.61127458422E+01 -0.54816331039E+00  0.36409606345E+01  0.71360170508E+01  0.51100000000E-03 0. -1.
        -11    1    3    3    0    0  0.39837174345E+01 -0.15546298431E+02  0.90516471905E+00  0.16074100999E+02  0.51100000000E-03 0.  1.
         12    1    3    3    0    0  0.75511671542E+01  0.69384863910E+01 -0.34604257779E+02  0.36091790967E+02  0.00000000000E+00 0. -1.
</event>
<event>
 7    1  0.3802554E-013  0.5930194E+02  0.7816164E-02  0.1266605E+00
        -11   -1    0    0    0    0  0.00000000000E+00  0.00000000000E+00  0.45593999997E+02  0.45594000000E+02  0.51100000000E-03 0.  1.
         11   -1    0    0    0    0 -0.00000000000E+00 -0.00000000000E+00 -0.45593999997E+02  0.45594000000E+02  0.51100000000E-03 0. -1.
    9900012    2    1    2    0    0 -0.14428086550E+02  0.45561004665E+01 -0.28067657649E+02  0.59301935036E+02  0.49999983602E+02 0.  0.
        -12    1    1    2    0    0  0.14428086550E+02 -0.45561004665E+01  0.28067657649E+02  0.31886064964E+02  0.00000000000E+00 0.  1.
         11    1    3    3    0    0  0.11660343896E+01  0.41749165528E+01 -0.35272896555E+02  0.35538244133E+02  0.51100000000E-03 0. -1.
        -11    1    3    3    0    0  0.85258197938E+00 -0.13781369700E+01 -0.36401786957E+01  0.39846027076E+01  0.51100000000E-03 0.  1.
        -12    1    3    3    0    0 -0.16446702919E+02  0.17593208837E+01  0.10845417602E+02  0.19779088196E+02  0.00000000000E+00 0.  1.
</event>
<event>
 7    1  0.3802554E-013  0.5930195E+02  0.7816164E-02  0.1266605E+00
        -11   -1    0    0    0    0  0.00000000000E+00  0.00000000000E+00  0.45593999997E+02  0.45594000000E+02  0.51100000000E-03 0.  1.
         11   -1    0    0    0    0 -0.00000000000E+00 -0.00000000000E+00 -0.45593999997E+02  0.45594000000E+02  0.51100000000E-03 0. -1.
    9900012    2    1    2    0    0 -0.30959635653E+02  0.42023905941E+01  0.63687684720E+01  0.59301947589E+02  0.50000006496E+02 0.  0.
        -12    1    1    2    0    0  0.30959635653E+02 -0.42023905941E+01 -0.63687684720E+01  0.31886052411E+02  0.00000000000E+00 0.  1.
         11    1    3    3    0    0 -0.20482385593E+02 -0.18782746668E+02 -0.69744675799E+01  0.28652449987E+02  0.51100000000E-03 0. -1.
        -11    1    3    3    0    0  0.22147786292E+01  0.20543458137E+01  0.70875841373E+00  0.31028889520E+01  0.51100000000E-03 0.  1.
        -12    1    3    3    0    0 -0.12692028689E+02  0.20930791449E+02  0.12634477638E+02  0.27546608650E+02  0.00000000000E+00 0.  1.
</event>
<event>
 7    1  0.3802554E-013  0.5930178E+02  0.7816164E-02  0.1266605E+00
        -11   -1    0    0    0    0  0.00000000000E+00  0.00000000000E+00  0.45593999997E+02  0.45594000000E+02  0.51100000000E-03 0. -1.
         11   -1    0    0    0    0 -0.00000000000E+00 -0.00000000000E+00 -0.45593999997E+02  0.45594000000E+02  0.51100000000E-03 0.  1.
    9900012    2    1    2    0    0 -0.96776015724E+01  0.25212183262E+01  0.30277361524E+02  0.59301778291E+02  0.49999697735E+02 0.  0.
        -12    1    1    2    0    0  0.96776015724E+01 -0.25212183262E+01 -0.30277361524E+02  0.31886221709E+02  0.00000000000E+00 0.  1.
         11    1    3    3    0    0 -0.14874820373E+01 -0.13622541009E+02  0.80504632465E+01  0.15893274839E+02  0.51100000000E-03 0. -1.
        -11    1    3    3    0    0 -0.11979651022E+02 -0.52262164633E+01  0.16333708545E+02  0.20919259361E+02  0.51100000000E-03 0.  1.
        -12    1    3    3    0    0  0.37895314870E+01  0.21369975799E+02  0.58931897322E+01  0.22489244090E+02  0.00000000000E+00 0.  1.
</event>
<event>
 7    1  0.3802554E-013  0.5930197E+02  0.7816164E-02  0.1266605E+00
        -11   -1    0    0    0    0  0.00000000000E+00  0.00000000000E+00  0.45593999997E+02  0.45594000000E+02  0.51100000000E-03 0.  1.
         11   -1    0    0    0    0 -0.00000000000E+00 -0.00000000000E+00 -0.45593999997E+02  0.45594000000E+02  0.51100000000E-03 0. -1.
    9900012    2    1    2    0    0 -0.10150400777E+02 -0.97097556258E+00 -0.30211675334E+02  0.59301972402E+02  0.50000051749E+02 0.  0.
        -12    1    1    2    0    0  0.10150400777E+02  0.97097556258E+00  0.30211675334E+02  0.31886027598E+02  0.00000000000E+00 0.  1.
         11    1    3    3    0    0  0.28650000222E+01  0.90212658307E+00 -0.65922506294E+01  0.72442961094E+01  0.51100000000E-03 0. -1.
        -11    1    3    3    0    0 -0.14539676145E+02  0.19828140073E+02 -0.13718325359E+02  0.28155812403E+02  0.51100000000E-03 0.  1.
         12    1    3    3    0    0  0.15242753455E+01 -0.21701242219E+02 -0.99010993456E+01  0.23901863890E+02  0.00000000000E+00 0. -1.
</event>
<event>
 7    1  0.3802554E-013  0.5930193E+02  0.7816164E-02  0.1266605E+00
        -11   -1    0    0    0    0  0.00000000000E+00  0.00000000000E+00  0.45593999997E+02  0.45594000000E+02  0.51100000000E-03 0. -1.
         11   -1    0    0    0    0 -0.00000000000E+00 -0.00000000000E+00 -0.45593999997E+02  0.45594000000E+02  0.51100000000E-03 0.  1.
    9900012    2    1    2    0    0 -0.83791205515E+01 -0.26070318032E+02 -0.16335561242E+02  0.59301926165E+02  0.49999967423E+02 0.  0.
        -12    1    1    2    0    0  0.83791205515E+01  0.26070318032E+02  0.16335561242E+02  0.31886073835E+02  0.00000000000E+00 0.  1.
         11    1    3    3    0    0  0.31666005350E+01 -0.94851107007E+01  0.26038896723E+01  0.10333195326E+02  0.51100000000E-03 0. -1.
        -11    1    3    3    0    0 -0.17294243050E+02 -0.25028957184E+02 -0.22832038193E+02  0.38037369897E+02  0.51100000000E-03 0.  1.
         12    1    3    3    0    0  0.57485219634E+01  0.84437498526E+01  0.38925872785E+01  0.10931360943E+02  0.00000000000E+00 0. -1.
</event>
<event>
 7    1  0.3802554E-013  0.5930194E+02  0.7816164E-02  0.1266605E+00
        -11   -1    0    0    0    0  0.00000000000E+00  0.00000000000E+00  0.45593999997E+02  0.45594000000E+02  0.51100000000E-03 0.  1.
         11   -1    0    0    0    0 -0.00000000000E+00 -0.00000000000E+00 -0.45593999997E+02  0.45594000000E+02  0.51100000000E-03 0. -1.
    9900012    2    1    2    0    0  0.69996456398E+01 -0.17424399350E+02 -0.25770455084E+02  0.59301935849E+02  0.49999985084E+02 0.  0.
        -12    1    1    2    0    0 -0.69996456398E+01  0.17424399350E+02  0.25770455084E+02  0.31886064151E+02  0.00000000000E+00 0.  1.
         11    1    3    3    0    0 -0.12370484021E+01 -0.22477046386E+02 -0.28942270275E+02  0.36666100310E+02  0.51100000000E-03 0. -1.
        -11    1    3    3    0    0  0.12808414300E+02 -0.14910047225E+01  0.59262249540E+01  0.14191501486E+02  0.51100000000E-03 0.  1.
        -12    1    3    3    0    0 -0.45717202580E+01  0.65436517585E+01 -0.27544097628E+01  0.84443340528E+01  0.00000000000E+00 0.  1.
</event>
<event>
 7    1  0.3802554E-013  0.5930194E+02  0.7816164E-02  0.1266605E+00
        -11   -1    0    0    0    0  0.00000000000E+00  0.00000000000E+00  0.45593999997E+02  0.45594000000E+02  0.51100000000E-03 0. -1.
         11   -1    0    0    0    0 -0.00000000000E+00 -0.00000000000E+00 -0.45593999997E+02  0.45594000000E+02  0.51100000000E-03 0.  1.
    9900012    2    1    2    0    0 -0.23475379592E+02 -0.14740213247E+02  0.15759245024E+02  0.59301935061E+02  0.49999983647E+02 0.  0.
        -12    1    1    2    0    0  0.23475379592E+02  0.14740213247E+02 -0.15759245024E+02  0.31886064939E+02  0.00000000000E+00 0.  1.
         11    1    3    3    0    0 -0.12529711910E+02  0.12050296279E+01 -0.33406352532E+01  0.13023272289E+02  0.51100000000E-03 0. -1.
        -11    1    3    3    0    0 -0.70686661347E+01  0.10919855377E+02 -0.13862512687E+00  0.13008785477E+02  0.51100000000E-03 0.  1.
         12    1    3    3    0    0 -0.38770015474E+01 -0.26865098252E+02  0.19238505404E+02  0.33269877296E+02  0.00000000000E+00 0. -1.
</event>
<event>
 7    1  0.3802554E-013  0.5930204E+02  0.7816164E-02  0.1266604E+00
        -11   -1    0    0    0    0  0.00000000000E+00  0.00000000000E+00  0.45593999997E+02  0.45594000000E+02  0.51100000000E-03 0.  1.
         11   -1    0    0    0    0 -0.00000000000E+00 -0.00000000000E+00 -0.45593999997E+02  0.45594000000E+02  0.51100000000E-03 0. -1.
    9900012    2    1    2    0    0 -0.19285273208E+02  0.36276522666E+01 -0.25132303726E+02  0.59302042052E+02  0.50000178773E+02 0.  0.
        -12    1    1    2    0    0  0.19285273208E+02 -0.36276522666E+01  0.25132303726E+02  0.31885957948E+02  0.00000000000E+00 0.  1.
         11    1    3    3    0    0  0.64774950070E+01  0.67202392329E+01  0.16065179314E+01  0.94710325223E+01  0.51100000000E-03 0. -1.
        -11    1    3    3    0    0  0.17178914313E+01  0.77726294270E+01  0.24162744090E+01  0.83188521720E+01  0.51100000000E-03 0.  1.
         12    1    3    3    0    0 -0.27480659647E+02 -0.10865216393E+02 -0.29155096066E+02  0.41512157358E+02  0.00000000000E+00 0. -1.
</event>
<event>
 7    1  0.3802554E-013  0.5930198E+02  0.7816164E-02  0.1266605E+00
        -11   -1    0    0    0    0  0.00000000000E+00  0.00000000000E+00  0.45593999997E+02  0.45594000000E+02  0.51100000000E-03 0. -1.
         11   -1    0    0    0    0 -0.00000000000E+00 -0.00000000000E+00 -0.45593999997E+02  0.45594000000E+02  0.51100000000E-03 0.  1.
    9900012    2    1    2    0    0 -0.79572462201E-01  0.26653682276E+02  0.17501224700E+02  0.59301984623E+02  0.50000074035E+02 0.  0.
        -12    1    1    2    0    0  0.79572462201E-01 -0.26653682276E+02 -0.17501224700E+02  0.31886015377E+02  0.00000000000E+00 0.  1.
         11    1    3    3    0    0  0.22771701210E+01  0.29233347363E+02  0.24798093191E+02  0.38402077131E+02  0.51100000000E-03 0. -1.
        -11    1    3    3    0    0  0.58722352376E+00  0.44184462595E+01  0.48427094109E+01  0.65817424376E+01  0.51100000000E-03 0.  1.
        -12    1    3    3    0    0 -0.29439661070E+01 -0.69981113471E+01 -0.12139577902E+02  0.14318165054E+02  0.00000000000E+00 0.  1.
</event>
<event>
 7    1  0.3802554E-013  0.5930181E+02  0.7816164E-02  0.1266605E+00
        -11   -1    0    0    0    0  0.00000000000E+00  0.00000000000E+00  0.45593999997E+02  0.45594000000E+02  0.51100000000E-03 0.  1.
         11   -1    0    0    0    0 -0.00000000000E+00 -0.00000000000E+00 -0.45593999997E+02  0.45594000000E+02  0.51100000000E-03 0. -1.
    9900012    2    1    2    0    0 -0.21256830044E+02 -0.23180600936E+02 -0.52474752639E+01  0.59301810514E+02  0.49999756503E+02 0.  0.
        -12    1    1    2    0    0  0.21256830044E+02  0.23180600936E+02  0.52474752639E+01  0.31886189486E+02  0.00000000000E+00 0.  1.
         11    1    3    3    0    0 -0.17741027322E+01 -0.12219038307E+01  0.45519672880E+01  0.50359602786E+01  0.51100000000E-03 0. -1.
        -11    1    3    3    0    0  0.41164264636E+01  0.19001933158E+01  0.12951668434E+02  0.13722296344E+02  0.51100000000E-03 0.  1.
         12    1    3    3    0    0 -0.23599153776E+02 -0.23858890421E+02 -0.22751110986E+02  0.40543553891E+02  0.00000000000E+00 0. -1.
</event>
<event>
 7    1  0.3802554E-013  0.5930193E+02  0.7816164E-02  0.1266605E+00
        -11   -1    0    0    0    0  0.00000000000E+00  0.00000000000E+00  0.45593999997E+02  0.45594000000E+02  0.51100000000E-03 0. -1.
         11   -1    0    0    0    0 -0.00000000000E+00 -0.00000000000E+00 -0.45593999997E+02  0.45594000000E+02  0.51100000000E-03 0.  1.
    9900012    2    1    2    0    0  0.80293185860E+01  0.26086427806E+02  0.16484841185E+02  0.59301926840E+02  0.49999968654E+02 0.  0.
        -12    1    1    2    0    0 -0.80293185860E+01 -0.26086427806E+02 -0.16484841185E+02  0.31886073160E+02  0.00000000000E+00 0.  1.
         11    1    3    3    0    0 -0.71213033028E+01 -0.36265306290E+01  0.75581512483E+01  0.10999560704E+02  0.51100000000E-03 0. -1.
        -11    1    3    3    0    0  0.12731154454E+02  0.79474205846E+01  0.18987211466E+02  0.24202437629E+02  0.51100000000E-03 0.  1.
        -12    1    3    3    0    0  0.24194674351E+01  0.21765537851E+02 -0.10060521529E+02  0.24099928507E+02  0.00000000000E+00 0.  1.
</event>
<event>
 7    1  0.3802554E-013  0.5930192E+02  0.7816164E-02  0.1266605E+00
        -11   -1    0    0    0    0  0.00000000000E+00  0.00000000000E+00  0.45593999997E+02  0.45594000000E+02  0.51100000000E-03 0.  1.
         11   -1    0    0    0    0 -0.00000000000E+00 -0.00000000000E+00 -0.45593999997E+02  0.45594000000E+02  0.51100000000E-03 0. -1.
    9900012    2    1    2    0    0  0.49048240660E+01  0.13668658870E+00 -0.31506286967E+02  0.59301919953E+02  0.49999956093E+02 0.  0.
        -12    1    1    2    0    0 -0.49048240660E+01 -0.13668658870E+00  0.31506286967E+02  0.31886080047E+02  0.00000000000E+00 0.  1.
         11    1    3    3    0    0  0.16322036889E+01  0.63652096417E+01 -0.82392282694E+01  0.10538731679E+02  0.51100000000E-03 0. -1.
        -11    1    3    3    0    0  0.22140330108E+02 -0.81287339881E+01 -0.99889282554E+01  0.25613457820E+02  0.51100000000E-03 0.  1.
        -12    1    3    3    0    0 -0.18867709730E+02  0.19002109351E+01 -0.13278130442E+02  0.23149730454E+02  0.00000000000E+00 0.  1.
</event>
<event>
 7    1  0.3802554E-013  0.5930190E+02  0.7816164E-02  0.1266605E+00
        -11   -1    0    0    0    0  0.00000000000E+00  0.00000000000E+00  0.45593999997E+02  0.45594000000E+02  0.51100000000E-03 0. -1.
         11   -1    0    0    0    0 -0.00000000000E+00 -0.00000000000E+00 -0.45593999997E+02  0.45594000000E+02  0.51100000000E-03 0.  1.
    9900012    2    1    2    0    0 -0.21265922053E+02 -0.23364894315E+02  0.43087962549E+01  0.59301898760E+02  0.49999917442E+02 0.  0.
        -12    1    1    2    0    0  0.21265922053E+02  0.23364894315E+02 -0.43087962549E+01  0.31886101240E+02  0.00000000000E+00 0.  1.
         11    1    3    3    0    0  0.57499212957E+01 -0.15177986669E+02  0.40429525768E+01  0.16726575861E+02  0.51100000000E-03 0. -1.
        -11    1    3    3    0    0  0.62300131486E+01 -0.35521091035E+01 -0.47974699699E+01  0.86282246892E+01  0.51100000000E-03 0.  1.
         12    1    3    3    0    0 -0.33245856498E+02 -0.46347985429E+01  0.50633136479E+01  0.33947098210E+02  0.00000000000E+00 0. -1.
</event>
<event>
 7    1  0.3802554E-013  0.5930193E+02  0.7816164E-02  0.1266605E+00
        -11   -1    0    0    0    0  0.00000000000E+00  0.00000000000E+00  0.45593999997E+02  0.45594000000E+02  0.51100000000E-03 0.  1.
         11   -1    0    0    0    0 -0.00000000000E+00 -0.00000000000E+00 -0.45593999997E+02  0.45594000000E+02  0.51100000000E-03 0. -1.
    9900012    2    1    2    0    0  0.37136880229E+01 -0.56576821277E+01 -0.31159598765E+02  0.59301930299E+02  0.49999974962E+02 0.  0.
        -12    1    1    2    0    0 -0.37136880229E+01  0.56576821277E+01  0.31159598765E+02  0.31886069701E+02  0.00000000000E+00 0.  1.
         11    1    3    3    0    0 -0.15869071204E+01 -0.12835554036E+02 -0.20850831523E+02  0.24536236408E+02  0.51100000000E-03 0. -1.
        -11    1    3    3    0    0 -0.34739423687E+01 -0.78998722867E+01 -0.14454519142E+02  0.16834767049E+02  0.51100000000E-03 0.  1.
        -12    1    3    3    0    0  0.87745375119E+01  0.15077744195E+02  0.41457518999E+01  0.17930926841E+02  0.00000000000E+00 0.  1.
</event>
<event>
 7    1  0.3802554E-013  0.5930195E+02  0.7816164E-02  0.1266605E+00
        -11   -1    0    0    0    0  0.00000000000E+00  0.00000000000E+00  0.45593999997E+02  0.45594000000E+02  0.51100000000E-03 0.  1.
         11   -1    0    0    0    0 -0.00000000000E+00 -0.00000000000E+00 -0.45593999997E+02  0.45594000000E+02  0.51100000000E-03 0. -1.
    9900012    2    1    2    0    0 -0.24184609450E+02  0.23396680224E+01 -0.20648268824E+02  0.59301946840E+02  0.50000005129E+02 0.  0.
        -12    1    1    2    0    0  0.24184609450E+02 -0.23396680224E+01  0.20648268824E+02  0.31886053160E+02  0.00000000000E+00 0.  1.
         11    1    3    3    0    0 -0.39090819929E+01 -0.71690616764E-01 -0.24631181750E+02  0.24939550442E+02  0.51100000000E-03 0. -1.
        -11    1    3    3    0    0  0.59455408511E+01 -0.36638329860E+01 -0.78482094485E+00  0.70277359326E+01  0.51100000000E-03 0.  1.
         12    1    3    3    0    0 -0.26221068308E+02  0.60751916252E+01  0.47677338707E+01  0.27334660466E+02  0.00000000000E+00 0. -1.
</event>
<event>
 7    1  0.3802554E-013  0.5930195E+02  0.7816164E-02  0.1266605E+00
        -11   -1    0    0    0    0  0.00000000000E+00  0.00000000000E+00  0.45593999997E+02  0.45594000000E+02  0.51100000000E-03 0.  1.
         11   -1    0    0    0    0 -0.00000000000E+00 -0.00000000000E+00 -0.45593999997E+02  0.45594000000E+02  0.51100000000E-03 0. -1.
    9900012    2    1    2    0    0 -0.50934296354E+01  0.12159514608E+02 -0.29033140161E+02  0.59301952133E+02  0.50000014783E+02 0.  0.
        -12    1    1    2    0    0  0.50934296354E+01 -0.12159514608E+02  0.29033140161E+02  0.31886047867E+02  0.00000000000E+00 0.  1.
         11    1    3    3    0    0  0.37127409697E+01  0.67007989270E+01 -0.14640079359E+02  0.16523228367E+02  0.51100000000E-03 0. -1.
        -11    1    3    3    0    0  0.81017772006E+01 -0.10045778655E+02 -0.15053899115E+02  0.19828674727E+02  0.51100000000E-03 0.  1.
        -12    1    3    3    0    0 -0.16907947806E+02  0.15504494336E+02  0.66083831323E+00  0.22950049039E+02  0.00000000000E+00 0.  1.
</event>
<event>
 7    1  0.3802554E-013  0.5930192E+02  0.7816164E-02  0.1266605E+00
        -11   -1    0    0    0    0  0.00000000000E+00  0.00000000000E+00  0.45593999997E+02  0.45594000000E+02  0.51100000000E-03 0.  1.
         11   -1    0    0    0    0 -0.00000000000E+00 -0.00000000000E+00 -0.45593999997E+02  0.45594000000E+02  0.51100000000E-03 0. -1.
    9900012    2    1    2    0    0 -0.15908983155E+02  0.11412560171E+02 -0.25167039100E+02  0.59301919467E+02  0.49999955208E+02 0.  0.
        -12    1    1    2    0    0  0.15908983155E+02 -0.11412560171E+02  0.25167039100E+02  0.31886080533E+02  0.00000000000E+00 0.  1.
         11    1    3    3    0    0  0.10161262830E+01 -0.49367801435E+01  0.24791070492E+01  0.56169638445E+01  0.51100000000E-03 0. -1.
        -11    1    3    3    0    0  0.91589912688E+01  0.32377628484E+00  0.36873707135E+01  0.98786970388E+01  0.51100000000E-03 0.  1.
         12    1    3    3    0    0 -0.26084100707E+02  0.16025564030E+02 -0.31333516863E+02  0.43806258584E+02  0.00000000000E+00 0. -1.
</event>
<event>
 7    1  0.3802554E-013  0.5930194E+02  0.7816164E-02  0.1266605E+00
        -11   -1    0    0    0    0  0.00000000000E+00  0.00000000000E+00  0.45593999997E+02  0.45594000000E+02  0.51100000000E-03 0.  1.
         11   -1    0    0    0    0 -0.00000000000E+00 -0.00000000000E+00 -0.45593999997E+02  0.45594000000E+02  0.51100000000E-03 0. -1.
    9900012    2    1    2    0    0  0.31329310540E+02 -0.53723278468E+01  0.25165258333E+01  0.59301944934E+02  0.50000001652E+02 0.  0.
        -12    1    1    2    0    0 -0.31329310540E+02  0.53723278468E+01 -0.25165258333E+01  0.31886055066E+02  0.00000000000E+00 0.  1.
         11    1    3    3    0    0  0.11640921403E+01 -0.19605350936E+01  0.45192046459E+01  0.50618197574E+01  0.51100000000E-03 0. -1.
        -11    1    3    3    0    0  0.15548375954E+02 -0.77209890890E+01  0.20625671840E+02  0.26958931848E+02  0.51100000000E-03 0.  1.
         12    1    3    3    0    0  0.14616842446E+02  0.43091963358E+01 -0.22628350652E+02  0.27281193328E+02  0.00000000000E+00 0. -1.
</event>
<event>
 7    1  0.3802554E-013  0.5930192E+02  0.7816164E-02  0.1266605E+00
        -11   -1    0    0    0    0  0.00000000000E+00  0.00000000000E+00  0.45593999997E+02  0.45594000000E+02  0.51100000000E-03 0.  1.
         11   -1    0    0    0    0 -0.00000000000E+00 -0.00000000000E+00 -0.45593999997E+02  0.45594000000E+02  0.51100000000E-03 0. -1.
    9900012    2    1    2    0    0  0.26430482980E+02 -0.57731214027E+01 -0.16876692316E+02  0.59301919889E+02  0.49999955978E+02 0.  0.
        -12    1    1    2    0    0 -0.26430482980E+02  0.57731214027E+01  0.16876692316E+02  0.31886080111E+02  0.00000000000E+00 0.  1.
         11    1    3    3    0    0  0.26995995793E+02  0.40475507158E+01  0.16840043369E+01  0.27349631195E+02  0.51100000000E-03 0. -1.
        -11    1    3    3    0    0  0.73684816182E+01  0.12275593964E+01  0.15930271032E+01  0.76380075309E+01  0.51100000000E-03 0.  1.
         12    1    3    3    0    0 -0.79339944313E+01 -0.11048231515E+02 -0.20153723757E+02  0.24314281163E+02  0.00000000000E+00 0. -1.
</event>
<event>
 7    1  0.3802554E-013  0.5930175E+02  0.7816164E-02  0.1266605E+00
        -11   -1    0    0    0    0  0.00000000000E+00  0.00000000000E+00  0.45593999997E+02  0.45594000000E+02  0.51100000000E-03 0. -1.
         11   -1    0    0    0    0 -0.00000000000E+00 -0.00000000000E+00 -0.45593999997E+02  0.45594000000E+02  0.51100000000E-03 0.  1.
    9900012    2    1    2    0    0 -0.28118639596E+02 -0.90746661791E+01  0.11988561768E+02  0.59301747911E+02  0.49999642330E+02 0.  0.
        -12    1    1    2    0    0  0.28118639596E+02  0.90746661791E+01 -0.11988561768E+02  0.31886252089E+02  0.00000000000E+00 0.  1.
         11    1    3    3    0    0  0.73831552690E+01 -0.78372077685E+00  0.12601236381E+02  0.14625879754E+02  0.51100000000E-03 0. -1.
        -11    1    3    3    0    0 -0.29304252341E+01 -0.11554163361E+02 -0.71292855713E+00  0.11941287636E+02  0.51100000000E-03 0.  1.
         12    1    3    3    0    0 -0.32571369631E+02  0.32632179585E+01  0.10025394407E+00  0.32734580522E+02  0.00000000000E+00 0. -1.
</event>
<event>
 7    1  0.3802554E-013  0.5930191E+02  0.7816164E-02  0.1266605E+00
        -11   -1    0    0    0    0  0.00000000000E+00  0.00000000000E+00  0.45593999997E+02  0.45594000000E+02  0.51100000000E-03 0. -1.
         11   -1    0    0    0    0 -0.00000000000E+00 -0.00000000000E+00 -0.45593999997E+02  0.45594000000E+02  0.51100000000E-03 0.  1.
    9900012    2    1    2    0    0  0.29110616551E+01 -0.30848435169E+02  0.75247833578E+01  0.59301912173E+02  0.49999941905E+02 0.  0.
        -12    1    1    2    0    0 -0.29110616551E+01  0.30848435169E+02 -0.75247833578E+01  0.31886087827E+02  0.00000000000E+00 0.  1.
         11    1    3    3    0    0  0.58411018200E+01 -0.74726643503E+01  0.53872953909E+01  0.10907893236E+02  0.51100000000E-03 0. -1.
        -11    1    3    3    0    0  0.11688131636E+02 -0.30040615034E+02  0.24272413881E+01  0.32325569968E+02  0.51100000000E-03 0.  1.
        -12    1    3    3    0    0 -0.14618171801E+02  0.66648442158E+01 -0.28975342119E+00  0.16068448969E+02  0.00000000000E+00 0.  1.
</event>
<event>
 7    1  0.3802554E-013  0.5930189E+02  0.7816164E-02  0.1266605E+00
        -11   -1    0    0    0    0  0.00000000000E+00  0.00000000000E+00  0.45593999997E+02  0.45594000000E+02  0.51100000000E-03 0.  1.
         11   -1    0    0    0    0 -0.00000000000E+00 -0.00000000000E+00 -0.45593999997E+02  0.45594000000E+02  0.51100000000E-03 0. -1.
    9900012    2    1    2    0    0  0.15005368410E+02  0.68389555886E+01 -0.27290870294E+02  0.59301890233E+02  0.49999901892E+02 0.  0.
        -12    1    1    2    0    0 -0.15005368410E+02 -0.68389555886E+01  0.27290870294E+02  0.31886109767E+02  0.00000000000E+00 0.  1.
         11    1    3    3    0    0  0.10565579789E+02  0.17493606298E+01  0.88228621966E+00  0.10745704636E+02  0.51100000000E-03 0. -1.
        -11    1    3    3    0    0 -0.16337699738E+02 -0.28343257477E+01 -0.75192607284E+01  0.18206952445E+02  0.51100000000E-03 0.  1.
         12    1    3    3    0    0  0.20777488358E+02  0.79239207064E+01 -0.20653895785E+02  0.30349233152E+02  0.00000000000E+00 0. -1.
</event>
<event>
 7    1  0.3802554E-013  0.5930194E+02  0.7816164E-02  0.1266605E+00
        -11   -1    0    0    0    0  0.00000000000E+00  0.00000000000E+00  0.45593999997E+02  0.45594000000E+02  0.51100000000E-03 0.  1.
         11   -1    0    0    0    0 -0.00000000000E+00 -0.00000000000E+00 -0.45593999997E+02  0.45594000000E+02  0.51100000000E-03 0. -1.
    9900012    2    1    2    0    0  0.24498935116E+02  0.93362181165E+01 -0.18148227011E+02  0.59301938246E+02  0.49999989455E+02 0.  0.
        -12    1    1    2    0    0 -0.24498935116E+02 -0.93362181165E+01  0.18148227011E+02  0.31886061754E+02  0.00000000000E+00 0.  1.
         11    1    3    3    0    0  0.27213924282E+02  0.11204454033E+02 -0.80847667057E+01  0.30520499963E+02  0.51100000000E-03 0. -1.
        -11    1    3    3    0    0  0.92099514304E+01  0.71862285540E+01 -0.65843607627E+01  0.13409656711E+02  0.51100000000E-03 0.  1.
        -12    1    3    3    0    0 -0.11924940596E+02 -0.90544644710E+01 -0.34790995426E+01  0.15371781572E+02  0.00000000000E+00 0.  1.
</event>
<event>
 7    1  0.3802554E-013  0.5930194E+02  0.7816164E-02  0.1266605E+00
        -11   -1    0    0    0    0  0.00000000000E+00  0.00000000000E+00  0.45593999997E+02  0.45594000000E+02  0.51100000000E-03 0. -1.
         11   -1    0    0    0    0 -0.00000000000E+00 -0.00000000000E+00 -0.45593999997E+02  0.45594000000E+02  0.51100000000E-03 0.  1.
    9900012    2    1    2    0    0  0.17670394437E+02 -0.61730365760E+01  0.25814179442E+02  0.59301935954E+02  0.49999985275E+02 0.  0.
        -12    1    1    2    0    0 -0.17670394437E+02  0.61730365760E+01 -0.25814179442E+02  0.31886064046E+02  0.00000000000E+00 0.  1.
         11    1    3    3    0    0  0.22302861069E+02  0.94681945823E-01  0.76042621079E+00  0.22316021707E+02  0.51100000000E-03 0. -1.
        -11    1    3    3    0    0  0.68444954592E+01 -0.86137946964E+00  0.23151619379E+02  0.24157536563E+02  0.51100000000E-03 0.  1.
        -12    1    3    3    0    0 -0.11476962091E+02 -0.54063390522E+01  0.19021338522E+01  0.12828377683E+02  0.00000000000E+00 0.  1.
</event>
<event>
 7    1  0.3802554E-013  0.5930195E+02  0.7816164E-02  0.1266605E+00
        -11   -1    0    0    0    0  0.00000000000E+00  0.00000000000E+00  0.45593999997E+02  0.45594000000E+02  0.51100000000E-03 0.  1.
         11   -1    0    0    0    0 -0.00000000000E+00 -0.00000000000E+00 -0.45593999997E+02  0.45594000000E+02  0.51100000000E-03 0. -1.
    9900012    2    1    2    0    0 -0.15579362854E+02 -0.27772304495E+02 -0.16439244638E+01  0.59301953968E+02  0.50000018129E+02 0.  0.
        -12    1    1    2    0    0  0.15579362854E+02  0.27772304495E+02  0.16439244638E+01  0.31886046032E+02  0.00000000000E+00 0.  1.
         11    1    3    3    0    0 -0.26012789710E+02 -0.12957622788E+02  0.59881666394E+00  0.29067572972E+02  0.51100000000E-03 0. -1.
        -11    1    3    3    0    0 -0.65034823455E+01 -0.17986085533E+01  0.41696890699E+01  0.79319973869E+01  0.51100000000E-03 0.  1.
         12    1    3    3    0    0  0.16936909201E+02 -0.13016073154E+02 -0.64124301976E+01  0.22302383609E+02  0.00000000000E+00 0. -1.
</event>
<event>
 7    1  0.3802554E-013  0.5930196E+02  0.7816164E-02  0.1266605E+00
        -11   -1    0    0    0    0  0.00000000000E+00  0.00000000000E+00  0.45593999997E+02  0.45594000000E+02  0.51100000000E-03 0.  1.
         11   -1    0    0    0    0 -0.00000000000E+00 -0.00000000000E+00 -0.45593999997E+02  0.45594000000E+02  0.51100000000E-03 0. -1.
    9900012    2    1    2    0    0 -0.60901675594E+01  0.28192377061E+02 -0.13594830205E+02  0.59301958014E+02  0.50000025507E+02 0.  0.
        -12    1    1    2    0    0  0.60901675594E+01 -0.28192377061E+02  0.13594830205E+02  0.31886041986E+02  0.00000000000E+00 0.  1.
         11    1    3    3    0    0 -0.20018025279E+02  0.14557564971E+01 -0.54984540953E+01  0.20810419524E+02  0.51100000000E-03 0. -1.
        -11    1    3    3    0    0  0.30106668526E+01  0.16277601460E+02  0.62068628118E+01  0.17679071537E+02  0.51100000000E-03 0.  1.
        -12    1    3    3    0    0  0.10917190867E+02  0.10459019104E+02 -0.14303238921E+02  0.20812466953E+02  0.00000000000E+00 0.  1.
</event>
<event>
 7    1  0.3802554E-013  0.5930193E+02  0.7816164E-02  0.1266605E+00
        -11   -1    0    0    0    0  0.00000000000E+00  0.00000000000E+00  0.45593999997E+02  0.45594000000E+02  0.51100000000E-03 0. -1.
         11   -1    0    0    0    0 -0.00000000000E+00 -0.00000000000E+00 -0.45593999997E+02  0.45594000000E+02  0.51100000000E-03 0.  1.
    9900012    2    1    2    0    0 -0.17071585108E+02  0.26815521864E+02 -0.24920237314E+01  0.59301930734E+02  0.49999975755E+02 0.  0.
        -12    1    1    2    0    0  0.17071585108E+02 -0.26815521864E+02  0.24920237314E+01  0.31886069266E+02  0.00000000000E+00 0.  1.
         11    1    3    3    0    0 -0.12597304892E+02  0.23607112669E+02  0.12726580737E+01  0.26788197362E+02  0.51100000000E-03 0. -1.
        -11    1    3    3    0    0  0.29458387421E+01  0.22778361038E+01  0.13337736758E+02  0.13847805794E+02  0.51100000000E-03 0.  1.
        -12    1    3    3    0    0 -0.74201189582E+01  0.93057309190E+00 -0.17102418563E+02  0.18665927578E+02  0.00000000000E+00 0.  1.
</event>
<event>
 7    1  0.3802554E-013  0.5930194E+02  0.7816164E-02  0.1266605E+00
        -11   -1    0    0    0    0  0.00000000000E+00  0.00000000000E+00  0.45593999997E+02  0.45594000000E+02  0.51100000000E-03 0.  1.
         11   -1    0    0    0    0 -0.00000000000E+00 -0.00000000000E+00 -0.45593999997E+02  0.45594000000E+02  0.51100000000E-03 0. -1.
    9900012    2    1    2    0    0 -0.20128646308E+02 -0.24574238246E+02  0.27686109437E+01  0.59301940442E+02  0.49999993460E+02 0.  0.
        -12    1    1    2    0    0  0.20128646308E+02  0.24574238246E+02 -0.27686109437E+01  0.31886059558E+02  0.00000000000E+00 0.  1.
         11    1    3    3    0    0 -0.12519400789E+01 -0.28417558474E+02  0.91617088350E+00  0.28459872680E+02  0.51100000000E-03 0. -1.
        -11    1    3    3    0    0 -0.89204188217E+00 -0.86007213283E+01  0.23701728243E+01  0.89658165030E+01  0.51100000000E-03 0.  1.
        -12    1    3    3    0    0 -0.17984664347E+02  0.12444041556E+02 -0.51773276411E+00  0.21876251259E+02  0.00000000000E+00 0.  1.
</event>
<event>
 7    1  0.3802554E-013  0.5930195E+02  0.7816164E-02  0.1266605E+00
        -11   -1    0    0    0    0  0.00000000000E+00  0.00000000000E+00  0.45593999997E+02  0.45594000000E+02  0.51100000000E-03 0.  1.
         11   -1    0    0    0    0 -0.00000000000E+00 -0.00000000000E+00 -0.45593999997E+02  0.45594000000E+02  0.51100000000E-03 0. -1.
    9900012    2    1    2    0    0 -0.28888055289E+01  0.30592383226E+02 -0.85135993854E+01  0.59301945316E+02  0.50000002349E+02 0.  0.
        -12    1    1    2    0    0  0.28888055289E+01 -0.30592383226E+02  0.85135993854E+01  0.31886054684E+02  0.00000000000E+00 0.  1.
         11    1    3    3    0    0  0.78640722111E+01  0.18511605004E+02  0.13772423457E+02  0.24376275345E+02  0.51100000000E-03 0. -1.
        -11    1    3    3    0    0 -0.21543720870E-01 -0.53062223927E+01 -0.96171165536E+00  0.53927126552E+01  0.51100000000E-03 0.  1.
        -12    1    3    3    0    0 -0.10731334019E+02  0.17387000615E+02 -0.21324311187E+02  0.29532957316E+02  0.00000000000E+00 0.  1.
</event>
<event>
 7    1  0.3802554E-013  0.5930192E+02  0.7816164E-02  0.1266605E+00
        -11   -1    0    0    0    0  0.00000000000E+00  0.00000000000E+00  0.45593999997E+02  0.45594000000E+02  0.51100000000E-03 0. -1.
         11   -1    0    0    0    0 -0.00000000000E+00 -0.00000000000E+00 -0.45593999997E+02  0.45594000000E+02  0.51100000000E-03 0.  1.
    9900012    2    1    2    0    0  0.16975469040E+01 -0.29285569671E+02  0.12497821024E+02  0.59301924876E+02  0.49999965072E+02 0.  0.
        -12    1    1    2    0    0 -0.16975469040E+01  0.29285569671E+02 -0.12497821024E+02  0.31886075124E+02  0.00000000000E+00 0.  1.
         11    1    3    3    0    0  0.59670405887E+01 -0.19767143202E+02  0.26625902137E+02  0.33693978521E+02  0.51100000000E-03 0. -1.
        -11    1    3    3    0    0 -0.69347249791E+01  0.34781727678E-01  0.15030246515E+01  0.70958229733E+01  0.51100000000E-03 0.  1.
         12    1    3    3    0    0  0.26652312944E+01 -0.95532081964E+01 -0.15631105764E+02  0.18512123382E+02  0.00000000000E+00 0. -1.
</event>
<event>
 7    1  0.3802554E-013  0.5930180E+02  0.7816164E-02  0.1266605E+00
        -11   -1    0    0    0    0  0.00000000000E+00  0.00000000000E+00  0.45593999997E+02  0.45594000000E+02  0.51100000000E-03 0. -1.
         11   -1    0    0    0    0 -0.00000000000E+00 -0.00000000000E+00 -0.45593999997E+02  0.45594000000E+02  0.51100000000E-03 0.  1.
    9900012    2    1    2    0    0 -0.16208267492E+02  0.16844010988E+02  0.21686427982E+02  0.59301799225E+02  0.49999735914E+02 0.  0.
        -12    1    1    2    0    0  0.16208267492E+02 -0.16844010988E+02 -0.21686427982E+02  0.31886200775E+02  0.00000000000E+00 0.  1.
         11    1    3    3    0    0  0.10446765550E+02  0.12891861766E+02  0.19535569030E+02  0.25631493672E+02  0.51100000000E-03 0. -1.
        -11    1    3    3    0    0  0.11760196661E+01  0.52935185696E+01 -0.13493917374E+01  0.55879530620E+01  0.51100000000E-03 0.  1.
         12    1    3    3    0    0 -0.27831052708E+02 -0.13413693470E+01  0.35002506890E+01  0.28082352491E+02  0.00000000000E+00 0. -1.
</event>
<event>
 7    1  0.3802554E-013  0.5930193E+02  0.7816164E-02  0.1266605E+00
        -11   -1    0    0    0    0  0.00000000000E+00  0.00000000000E+00  0.45593999997E+02  0.45594000000E+02  0.51100000000E-03 0.  1.
         11   -1    0    0    0    0 -0.00000000000E+00 -0.00000000000E+00 -0.45593999997E+02  0.45594000000E+02  0.51100000000E-03 0. -1.
    9900012    2    1    2    0    0 -0.31291441222E+02  0.39327654012E+01 -0.47011442220E+01  0.59301926325E+02  0.49999967714E+02 0.  0.
        -12    1    1    2    0    0  0.31291441222E+02 -0.39327654012E+01  0.47011442220E+01  0.31886073675E+02  0.00000000000E+00 0.  1.
         11    1    3    3    0    0 -0.12572252829E+02 -0.11009541025E+02  0.43326063508E+01  0.17263922290E+02  0.51100000000E-03 0. -1.
        -11    1    3    3    0    0  0.88462780249E+01 -0.13999993078E+01 -0.10903456024E+01  0.90224989194E+01  0.51100000000E-03 0.  1.
         12    1    3    3    0    0 -0.27565466418E+02  0.16342305734E+02 -0.79434049704E+01  0.33015505116E+02  0.00000000000E+00 0. -1.
</event>
<event>
 7    1  0.3802554E-013  0.5930194E+02  0.7816164E-02  0.1266605E+00
        -11   -1    0    0    0    0  0.00000000000E+00  0.00000000000E+00  0.45593999997E+02  0.45594000000E+02  0.51100000000E-03 0. -1.
         11   -1    0    0    0    0 -0.00000000000E+00 -0.00000000000E+00 -0.45593999997E+02  0.45594000000E+02  0.51100000000E-03 0.  1.
    9900012    2    1    2    0    0  0.13000277299E+02  0.19655681322E+02  0.21479475829E+02  0.59301938782E+02  0.49999990434E+02 0.  0.
        -12    1    1    2    0    0 -0.13000277299E+02 -0.19655681322E+02 -0.21479475829E+02  0.31886061218E+02  0.00000000000E+00 0.  1.
         11    1    3    3    0    0  0.12350645011E+02  0.24128995484E+02  0.15301239551E+02  0.31126753562E+02  0.51100000000E-03 0. -1.
        -11    1    3    3    0    0  0.89390827438E+01 -0.73916648548E+00 -0.75399798078E+01  0.11717715782E+02  0.51100000000E-03 0.  1.
        -12    1    3    3    0    0 -0.82894504558E+01 -0.37341476761E+01  0.13718216086E+02  0.16457469438E+02  0.00000000000E+00 0.  1.
</event>
<event>
 7    1  0.3802554E-013  0.5930191E+02  0.7816164E-02  0.1266605E+00
        -11   -1    0    0    0    0  0.00000000000E+00  0.00000000000E+00  0.45593999997E+02  0.45594000000E+02  0.51100000000E-03 0.  1.
         11   -1    0    0    0    0 -0.00000000000E+00 -0.00000000000E+00 -0.45593999997E+02  0.45594000000E+02  0.51100000000E-03 0. -1.
    9900012    2    1    2    0    0 -0.33156733352E+01  0.47651785067E+01 -0.31353184923E+02  0.59301908664E+02  0.49999935506E+02 0.  0.
        -12    1    1    2    0    0  0.33156733352E+01 -0.47651785067E+01  0.31353184923E+02  0.31886091336E+02  0.00000000000E+00 0.  1.
         11    1    3    3    0    0 -0.20769013374E+02  0.79609588208E+00 -0.31875235987E+01  0.21027267823E+02  0.51100000000E-03 0. -1.
        -11    1    3    3    0    0  0.42285557394E+01  0.96287539031E+01 -0.68195493153E+01  0.12533947443E+02  0.51100000000E-03 0.  1.
        -12    1    3    3    0    0  0.13224784299E+02 -0.56596712784E+01 -0.21346112009E+02  0.25740693398E+02  0.00000000000E+00 0.  1.
</event>
<event>
 7    1  0.3802554E-013  0.5930191E+02  0.7816164E-02  0.1266605E+00
        -11   -1    0    0    0    0  0.00000000000E+00  0.00000000000E+00  0.45593999997E+02  0.45594000000E+02  0.51100000000E-03 0. -1.
         11   -1    0    0    0    0 -0.00000000000E+00 -0.00000000000E+00 -0.45593999997E+02  0.45594000000E+02  0.51100000000E-03 0.  1.
    9900012    2    1    2    0    0  0.24884062806E+02  0.19840188299E+02  0.19679397379E+01  0.59301914628E+02  0.49999946383E+02 0.  0.
        -12    1    1    2    0    0 -0.24884062806E+02 -0.19840188299E+02 -0.19679397379E+01  0.31886085372E+02  0.00000000000E+00 0.  1.
         11    1    3    3    0    0 -0.36586663942E+01  0.33514914504E+01 -0.67833978323E+01  0.84043334738E+01  0.51100000000E-03 0. -1.
        -11    1    3    3    0    0 -0.47675202035E+01 -0.11530740367E+01 -0.82100394610E+01  0.95636591761E+01  0.51100000000E-03 0.  1.
         12    1    3    3    0    0  0.33310249404E+02  0.17641770886E+02  0.16961377031E+02  0.41333921979E+02  0.00000000000E+00 0. -1.
</event>
<event>
 7    1  0.3802554E-013  0.5930193E+02  0.7816164E-02  0.1266605E+00
        -11   -1    0    0    0    0  0.00000000000E+00  0.00000000000E+00  0.45593999997E+02  0.45594000000E+02  0.51100000000E-03 0. -1.
         11   -1    0    0    0    0 -0.00000000000E+00 -0.00000000000E+00 -0.45593999997E+02  0.45594000000E+02  0.51100000000E-03 0.  1.
    9900012    2    1    2    0    0  0.30822374843E+02 -0.80921833087E+01  0.11040870072E+01  0.59301933610E+02  0.49999981001E+02 0.  0.
        -12    1    1    2    0    0 -0.30822374843E+02  0.80921833087E+01 -0.11040870072E+01  0.31886066390E+02  0.00000000000E+00 0.  1.
         11    1    3    3    0    0  0.29305235510E+01 -0.48113520622E+01  0.12886777669E+00  0.56350407376E+01  0.51100000000E-03 0. -1.
        -11    1    3    3    0    0  0.19474428872E+02 -0.64222053925E+01  0.22439652588E+02  0.30397962276E+02  0.51100000000E-03 0.  1.
        -12    1    3    3    0    0  0.84174224201E+01  0.31413741460E+01 -0.21464433358E+02  0.23268930596E+02  0.00000000000E+00 0.  1.
</event>
<event>
 7    1  0.3802554E-013  0.5930193E+02  0.7816164E-02  0.1266605E+00
        -11   -1    0    0    0    0  0.00000000000E+00  0.00000000000E+00  0.45593999997E+02  0.45594000000E+02  0.51100000000E-03 0.  1.
         11   -1    0    0    0    0 -0.00000000000E+00 -0.00000000000E+00 -0.45593999997E+02  0.45594000000E+02  0.51100000000E-03 0. -1.
    9900012    2    1    2    0    0 -0.18813687656E+02 -0.15122839286E+02 -0.20834259843E+02  0.59301929460E+02  0.49999973432E+02 0.  0.
        -12    1    1    2    0    0  0.18813687656E+02  0.15122839286E+02  0.20834259843E+02  0.31886070540E+02  0.00000000000E+00 0.  1.
         11    1    3    3    0    0 -0.67369694315E+01 -0.94806303115E+01 -0.12349318230E+02  0.16963925525E+02  0.51100000000E-03 0. -1.
        -11    1    3    3    0    0  0.19835714584E+01 -0.13696415100E+02 -0.18639399619E+02  0.23215373371E+02  0.51100000000E-03 0.  1.
        -12    1    3    3    0    0 -0.14060289683E+02  0.80542061259E+01  0.10154458006E+02  0.19122630564E+02  0.00000000000E+00 0.  1.
</event>
<event>
 7    1  0.3802554E-013  0.5930179E+02  0.7816164E-02  0.1266605E+00
        -11   -1    0    0    0    0  0.00000000000E+00  0.00000000000E+00  0.45593999997E+02  0.45594000000E+02  0.51100000000E-03 0.  1.
         11   -1    0    0    0    0 -0.00000000000E+00 -0.00000000000E+00 -0.45593999997E+02  0.45594000000E+02  0.51100000000E-03 0. -1.
    9900012    2    1    2    0    0  0.19502094170E+02 -0.85026699318E+01 -0.23750855549E+02  0.59301792758E+02  0.49999724119E+02 0.  0.
        -12    1    1    2    0    0 -0.19502094170E+02  0.85026699318E+01  0.23750855549E+02  0.31886207242E+02  0.00000000000E+00 0.  1.
         11    1    3    3    0    0  0.13173000402E+02  0.45579512521E+00 -0.29740153794E+02  0.32530177324E+02  0.51100000000E-03 0. -1.
        -11    1    3    3    0    0  0.25982908364E+01 -0.46404565448E+01 -0.91551011373E+01  0.10587767910E+02  0.51100000000E-03 0.  1.
        -12    1    3    3    0    0  0.37308029317E+01 -0.43180085122E+01  0.15144399382E+02  0.16183847524E+02  0.00000000000E+00 0.  1.
</event>
<event>
 7    1  0.3802554E-013  0.5930206E+02  0.7816164E-02  0.1266604E+00
        -11   -1    0    0    0    0  0.00000000000E+00  0.00000000000E+00  0.45593999997E+02  0.45594000000E+02  0.51100000000E-03 0.  1.
         11   -1    0    0    0    0 -0.00000000000E+00 -0.00000000000E+00 -0.45593999997E+02  0.45594000000E+02  0.51100000000E-03 0. -1.
    9900012    2    1    2    0    0  0.70804289037E+01 -0.27222398754E+02 -0.15017370089E+02  0.59302064672E+02  0.50000220026E+02 0.  0.
        -12    1    1    2    0    0 -0.70804289037E+01  0.27222398754E+02  0.15017370089E+02  0.31885935328E+02  0.00000000000E+00 0.  1.
         11    1    3    3    0    0 -0.86456541174E+01  0.74773830859E+01 -0.85178257667E+01  0.14255242860E+02  0.51100000000E-03 0. -1.
        -11    1    3    3    0    0 -0.12640747387E+01  0.29496789598E+01 -0.10867357080E+01  0.33881389687E+01  0.51100000000E-03 0.  1.
        -12    1    3    3    0    0  0.16990157760E+02 -0.37649460799E+02 -0.54128086142E+01  0.41658682844E+02  0.00000000000E+00 0.  1.
</event>
<event>
 7    1  0.3802554E-013  0.5930192E+02  0.7816164E-02  0.1266605E+00
        -11   -1    0    0    0    0  0.00000000000E+00  0.00000000000E+00  0.45593999997E+02  0.45594000000E+02  0.51100000000E-03 0. -1.
         11   -1    0    0    0    0 -0.00000000000E+00 -0.00000000000E+00 -0.45593999997E+02  0.45594000000E+02  0.51100000000E-03 0.  1.
    9900012    2    1    2    0    0 -0.12574284644E+02  0.21106169910E+02  0.20325815158E+02  0.59301924600E+02  0.49999964568E+02 0.  0.
        -12    1    1    2    0    0  0.12574284644E+02 -0.21106169910E+02 -0.20325815158E+02  0.31886075400E+02  0.00000000000E+00 0.  1.
         11    1    3    3    0    0  0.94883820146E+01  0.29440873086E+01  0.18380334256E+02  0.20893389648E+02  0.51100000000E-03 0. -1.
        -11    1    3    3    0    0 -0.17098826914E+02 -0.17841708294E+01  0.42950297334E+01  0.17720057225E+02  0.51100000000E-03 0.  1.
        -12    1    3    3    0    0 -0.49638397445E+01  0.19946253431E+02 -0.23495488316E+01  0.20688477727E+02  0.00000000000E+00 0.  1.
</event>
<event>
 7    1  0.3802554E-013  0.5930163E+02  0.7816164E-02  0.1266606E+00
        -11   -1    0    0    0    0  0.00000000000E+00  0.00000000000E+00  0.45593999997E+02  0.45594000000E+02  0.51100000000E-03 0. -1.
         11   -1    0    0    0    0 -0.00000000000E+00 -0.00000000000E+00 -0.45593999997E+02  0.45594000000E+02  0.51100000000E-03 0.  1.
    9900012    2    1    2    0    0 -0.98871722677E+01 -0.19518455272E+01  0.30251853842E+02  0.59301630854E+02  0.49999428843E+02 0.  0.
        -12    1    1    2    0    0  0.98871722677E+01  0.19518455272E+01 -0.30251853842E+02  0.31886369146E+02  0.00000000000E+00 0.  1.
         11    1    3    3    0    0 -0.11415280858E+02 -0.15897059963E+02  0.18995384564E+01  0.19662995681E+02  0.51100000000E-03 0. -1.
        -11    1    3    3    0    0 -0.61366965117E+01  0.65119922955E+01 -0.41118719818E+00  0.89573524496E+01  0.51100000000E-03 0.  1.
         12    1    3    3    0    0  0.76648051018E+01  0.74332221408E+01  0.28763502584E+02  0.30681282723E+02  0.00000000000E+00 0. -1.
</event>
<event>
 7    1  0.3802554E-013  0.5930194E+02  0.7816164E-02  0.1266605E+00
        -11   -1    0    0    0    0  0.00000000000E+00  0.00000000000E+00  0.45593999997E+02  0.45594000000E+02  0.51100000000E-03 0.  1.
         11   -1    0    0    0    0 -0.00000000000E+00 -0.00000000000E+00 -0.45593999997E+02  0.45594000000E+02  0.51100000000E-03 0. -1.
    9900012    2    1    2    0    0 -0.10511848365E+02 -0.29879181702E+02  0.36682806426E+01  0.59301941321E+02  0.49999995064E+02 0.  0.
        -12    1    1    2    0    0  0.10511848365E+02  0.29879181702E+02 -0.36682806426E+01  0.31886058679E+02  0.00000000000E+00 0.  1.
         11    1    3    3    0    0  0.35114207266E+01  0.26892787416E+01 -0.56988755237E+01  0.72138393498E+01  0.51100000000E-03 0. -1.
        -11    1    3    3    0    0 -0.13626211025E+01 -0.33038784551E+02 -0.44232735683E+01  0.33361405399E+02  0.51100000000E-03 0.  1.
         12    1    3    3    0    0 -0.12660647989E+02  0.47032410742E+00  0.13790429735E+02  0.18726696573E+02  0.00000000000E+00 0. -1.
</event>
<event>
 7    1  0.3802554E-013  0.5930180E+02  0.7816164E-02  0.1266605E+00
        -11   -1    0    0    0    0  0.00000000000E+00  0.00000000000E+00  0.45593999997E+02  0.45594000000E+02  0.51100000000E-03 0. -1.
         11   -1    0    0    0    0 -0.00000000000E+00 -0.00000000000E+00 -0.45593999997E+02  0.45594000000E+02  0.51100000000E-03 0.  1.
    9900012    2    1    2    0    0  0.22259757791E+02 -0.14217641952E+02  0.17863126504E+02  0.59301804741E+02  0.49999745975E+02 0.  0.
        -12    1    1    2    0    0 -0.22259757791E+02  0.14217641952E+02 -0.17863126504E+02  0.31886195259E+02  0.00000000000E+00 0.  1.
         11    1    3    3    0    0  0.85834352963E+01 -0.51305399017E+01  0.24796483820E+02  0.26736929727E+02  0.51100000000E-03 0. -1.
        -11    1    3    3    0    0 -0.50892993903E+01 -0.89507497679E+01  0.37652662325E+01  0.10963307884E+02  0.51100000000E-03 0.  1.
         12    1    3    3    0    0  0.18765621885E+02 -0.13635228238E+00 -0.10698623548E+02  0.21601567130E+02  0.00000000000E+00 0. -1.
</event>
<event>
 7    1  0.3802554E-013  0.5930185E+02  0.7816164E-02  0.1266605E+00
        -11   -1    0    0    0    0  0.00000000000E+00  0.00000000000E+00  0.45593999997E+02  0.45594000000E+02  0.51100000000E-03 0.  1.
         11   -1    0    0    0    0 -0.00000000000E+00 -0.00000000000E+00 -0.45593999997E+02  0.45594000000E+02  0.51100000000E-03 0. -1.
    9900012    2    1    2    0    0  0.18826756167E+02 -0.23060961143E+02 -0.11422436493E+02  0.59301847330E+02  0.49999823647E+02 0.  0.
        -12    1    1    2    0    0 -0.18826756167E+02  0.23060961143E+02  0.11422436493E+02  0.31886152670E+02  0.00000000000E+00 0.  1.
         11    1    3    3    0    0  0.78876830462E+01  0.38744069591E+01  0.84445805583E+01  0.12187596736E+02  0.51100000000E-03 0. -1.
        -11    1    3    3    0    0  0.94577924459E-01 -0.14423192345E+02  0.66259934817E+01  0.15872656120E+02  0.51100000000E-03 0.  1.
         12    1    3    3    0    0  0.10844495197E+02 -0.12512175757E+02 -0.26493010533E+02  0.31241594475E+02  0.00000000000E+00 0. -1.
</event>
<event>
 7    1  0.3802554E-013  0.5930193E+02  0.7816164E-02  0.1266605E+00
        -11   -1    0    0    0    0  0.00000000000E+00  0.00000000000E+00  0.45593999997E+02  0.45594000000E+02  0.51100000000E-03 0. -1.
         11   -1    0    0    0    0 -0.00000000000E+00 -0.00000000000E+00 -0.45593999997E+02  0.45594000000E+02  0.51100000000E-03 0.  1.
    9900012    2    1    2    0    0 -0.31091088123E+02  0.70180272974E+01  0.90162978971E+00  0.59301930877E+02  0.49999976016E+02 0.  0.
        -12    1    1    2    0    0  0.31091088123E+02 -0.70180272974E+01 -0.90162978971E+00  0.31886069123E+02  0.00000000000E+00 0.  1.
         11    1    3    3    0    0 -0.75913137591E+01  0.13168970481E+02 -0.92882571159E+01  0.17813521511E+02  0.51100000000E-03 0. -1.
        -11    1    3    3    0    0 -0.25729042406E+02  0.68074715306E+01  0.97117092374E+01  0.28330947537E+02  0.51100000000E-03 0.  1.
        -12    1    3    3    0    0  0.22292680419E+01 -0.12958414714E+02  0.47817766818E+00  0.13157461829E+02  0.00000000000E+00 0.  1.
</event>
<event>
 7    1  0.3802554E-013  0.5930193E+02  0.7816164E-02  0.1266605E+00
        -11   -1    0    0    0    0  0.00000000000E+00  0.00000000000E+00  0.45593999997E+02  0.45594000000E+02  0.51100000000E-03 0. -1.
         11   -1    0    0    0    0 -0.00000000000E+00 -0.00000000000E+00 -0.45593999997E+02  0.45594000000E+02  0.51100000000E-03 0.  1.
    9900012    2    1    2    0    0  0.11380556673E+02  0.26927186303E+02 -0.12733063145E+02  0.59301932048E+02  0.49999978152E+02 0.  0.
        -12    1    1    2    0    0 -0.11380556673E+02 -0.26927186303E+02  0.12733063145E+02  0.31886067952E+02  0.00000000000E+00 0.  1.
         11    1    3    3    0    0  0.23570800168E+02  0.17578935847E+02 -0.44587387943E+01  0.29740241390E+02  0.51100000000E-03 0. -1.
        -11    1    3    3    0    0  0.49824539637E+01 -0.18698806106E+01  0.30473136315E+01  0.61324890239E+01  0.51100000000E-03 0.  1.
        -12    1    3    3    0    0 -0.17172697458E+02  0.11218131067E+02 -0.11321637982E+02  0.23429201634E+02  0.00000000000E+00 0.  1.
</event>
<event>
 7    1  0.3802554E-013  0.5930195E+02  0.7816164E-02  0.1266605E+00
        -11   -1    0    0    0    0  0.00000000000E+00  0.00000000000E+00  0.45593999997E+02  0.45594000000E+02  0.51100000000E-03 0. -1.
         11   -1    0    0    0    0 -0.00000000000E+00 -0.00000000000E+00 -0.45593999997E+02  0.45594000000E+02  0.51100000000E-03 0.  1.
    9900012    2    1    2    0    0  0.10116538375E+01  0.78979829258E+01  0.30875862991E+02  0.59301945161E+02  0.50000002066E+02 0.  0.
        -12    1    1    2    0    0 -0.10116538375E+01 -0.78979829258E+01 -0.30875862991E+02  0.31886054839E+02  0.00000000000E+00 0.  1.
         11    1    3    3    0    0  0.70841630213E+01  0.10824497089E+02  0.18653135003E+02  0.22700100190E+02  0.51100000000E-03 0.  1.
        -11    1    3    3    0    0 -0.13752922409E+02  0.98381994624E+01  0.13517528493E+02  0.21648478474E+02  0.51100000000E-03 0. -1.
        -12    1    3    3    0    0  0.76804132247E+01 -0.12764713625E+02 -0.12948005044E+01  0.14953366497E+02  0.00000000000E+00 0.  1.
</event>
<event>
 7    1  0.3802554E-013  0.5930156E+02  0.7816164E-02  0.1266606E+00
        -11   -1    0    0    0    0  0.00000000000E+00  0.00000000000E+00  0.45593999997E+02  0.45594000000E+02  0.51100000000E-03 0.  1.
         11   -1    0    0    0    0 -0.00000000000E+00 -0.00000000000E+00 -0.45593999997E+02  0.45594000000E+02  0.51100000000E-03 0. -1.
    9900012    2    1    2    0    0  0.14309842125E+01  0.27648401138E+02  0.15819713331E+02  0.59301558819E+02  0.49999297467E+02 0.  0.
        -12    1    1    2    0    0 -0.14309842125E+01 -0.27648401138E+02 -0.15819713331E+02  0.31886441181E+02  0.00000000000E+00 0.  1.
         11    1    3    3    0    0 -0.14873341239E+02 -0.30782820006E+01 -0.82939391436E+00  0.15211179908E+02  0.51100000000E-03 0. -1.
        -11    1    3    3    0    0 -0.46450601649E+01  0.56542210855E+01  0.67387283919E+01  0.99477264046E+01  0.51100000000E-03 0.  1.
        -12    1    3    3    0    0  0.20949385616E+02  0.25072462053E+02  0.99103788539E+01  0.34142652506E+02  0.00000000000E+00 0.  1.
</event>
<event>
 7    1  0.3802554E-013  0.5930195E+02  0.7816164E-02  0.1266605E+00
        -11   -1    0    0    0    0  0.00000000000E+00  0.00000000000E+00  0.45593999997E+02  0.45594000000E+02  0.51100000000E-03 0. -1.
         11   -1    0    0    0    0 -0.00000000000E+00 -0.00000000000E+00 -0.45593999997E+02  0.45594000000E+02  0.51100000000E-03 0.  1.
    9900012    2    1    2    0    0 -0.25148527998E+02  0.18852714221E+02  0.53709351292E+01  0.59301949161E+02  0.50000009361E+02 0.  0.
        -12    1    1    2    0    0  0.25148527998E+02 -0.18852714221E+02 -0.53709351292E+01  0.31886050839E+02  0.00000000000E+00 0.  1.
         11    1    3    3    0    0 -0.11070389354E+02  0.15859536733E+02  0.10921896013E+02  0.22211849059E+02  0.51100000000E-03 0. -1.
        -11    1    3    3    0    0  0.10551076451E+02  0.45912762301E+01  0.10127452357E+01  0.11551220059E+02  0.51100000000E-03 0.  1.
        -12    1    3    3    0    0 -0.24629215095E+02 -0.15980987422E+01 -0.65637061198E+01  0.25538880042E+02  0.00000000000E+00 0.  1.
</event>
<event>
 7    1  0.3802554E-013  0.5930194E+02  0.7816164E-02  0.1266605E+00
        -11   -1    0    0    0    0  0.00000000000E+00  0.00000000000E+00  0.45593999997E+02  0.45594000000E+02  0.51100000000E-03 0.  1.
         11   -1    0    0    0    0 -0.00000000000E+00 -0.00000000000E+00 -0.45593999997E+02  0.45594000000E+02  0.51100000000E-03 0. -1.
    9900012    2    1    2    0    0 -0.11405812769E+02 -0.22291421604E+02 -0.19741340688E+02  0.59301943890E+02  0.49999999749E+02 0.  0.
        -12    1    1    2    0    0  0.11405812769E+02  0.22291421604E+02  0.19741340688E+02  0.31886056110E+02  0.00000000000E+00 0.  1.
         11    1    3    3    0    0 -0.93136989983E+01 -0.27092443634E+01 -0.22760578641E+02  0.24741239549E+02  0.51100000000E-03 0. -1.
        -11    1    3    3    0    0 -0.76417090734E+01  0.14808727896E+01 -0.71067820821E+01  0.10540163832E+02  0.51100000000E-03 0.  1.
        -12    1    3    3    0    0  0.55495953031E+01 -0.21063050031E+02  0.10126020035E+02  0.24020540510E+02  0.00000000000E+00 0.  1.
</event>
<event>
 7    1  0.3802554E-013  0.5930194E+02  0.7816164E-02  0.1266605E+00
        -11   -1    0    0    0    0  0.00000000000E+00  0.00000000000E+00  0.45593999997E+02  0.45594000000E+02  0.51100000000E-03 0.  1.
         11   -1    0    0    0    0 -0.00000000000E+00 -0.00000000000E+00 -0.45593999997E+02  0.45594000000E+02  0.51100000000E-03 0. -1.
    9900012    2    1    2    0    0  0.14002442358E+01  0.31855251041E+02  0.53181179602E-01  0.59301944568E+02  0.50000000985E+02 0.  0.
        -12    1    1    2    0    0 -0.14002442358E+01 -0.31855251041E+02 -0.53181179602E-01  0.31886055432E+02  0.00000000000E+00 0.  1.
         11    1    3    3    0    0  0.10153527852E+02  0.32311788229E+01 -0.11090301591E+02  0.15379513454E+02  0.51100000000E-03 0. -1.
        -11    1    3    3    0    0 -0.14766471920E+01  0.64804646127E+01  0.18356959850E+02  0.19523188360E+02  0.51100000000E-03 0.  1.
         12    1    3    3    0    0 -0.72766364241E+01  0.22143607605E+02 -0.72134770792E+01  0.24399242754E+02  0.00000000000E+00 0. -1.
</event>
<event>
 7    1  0.3802554E-013  0.5930200E+02  0.7816164E-02  0.1266605E+00
        -11   -1    0    0    0    0  0.00000000000E+00  0.00000000000E+00  0.45593999997E+02  0.45594000000E+02  0.51100000000E-03 0. -1.
         11   -1    0    0    0    0 -0.00000000000E+00 -0.00000000000E+00 -0.45593999997E+02  0.45594000000E+02  0.51100000000E-03 0.  1.
    9900012    2    1    2    0    0 -0.17583435562E+02  0.26197863820E+02  0.46056009918E+01  0.59302002518E+02  0.50000106673E+02 0.  0.
        -12    1    1    2    0    0  0.17583435562E+02 -0.26197863820E+02 -0.46056009918E+01  0.31885997482E+02  0.00000000000E+00 0.  1.
         11    1    3    3    0    0 -0.57637985297E+01  0.19143026510E+02  0.19294438545E+02  0.27784027723E+02  0.51100000000E-03 0. -1.
        -11    1    3    3    0    0 -0.37555951722E+01  0.81546252712E+01  0.49552907840E+01  0.10254624100E+02  0.51100000000E-03 0.  1.
        -12    1    3    3    0    0 -0.80640418597E+01 -0.10997879608E+01 -0.19644128338E+02  0.21263350696E+02  0.00000000000E+00 0.  1.
</event>
<event>
 7    1  0.3802554E-013  0.5930196E+02  0.7816164E-02  0.1266605E+00
        -11   -1    0    0    0    0  0.00000000000E+00  0.00000000000E+00  0.45593999997E+02  0.45594000000E+02  0.51100000000E-03 0.  1.
         11   -1    0    0    0    0 -0.00000000000E+00 -0.00000000000E+00 -0.45593999997E+02  0.45594000000E+02  0.51100000000E-03 0. -1.
    9900012    2    1    2    0    0 -0.92161208868E+01 -0.29718702658E+02  0.69700308924E+01  0.59301960696E+02  0.50000030399E+02 0.  0.
        -12    1    1    2    0    0  0.92161208868E+01  0.29718702658E+02 -0.69700308924E+01  0.31886039304E+02  0.00000000000E+00 0.  1.
         11    1    3    3    0    0 -0.85006280547E+01 -0.64760137636E+00  0.40685427272E+01  0.94463275961E+01  0.51100000000E-03 0. -1.
        -11    1    3    3    0    0 -0.19708179966E+02 -0.10610870338E+02 -0.33752782447E+01  0.22636153171E+02  0.51100000000E-03 0.  1.
         12    1    3    3    0    0  0.18992687134E+02 -0.18460230943E+02  0.62767664099E+01  0.27219479929E+02  0.00000000000E+00 0. -1.
</event>
<event>
 7    1  0.3802554E-013  0.5930192E+02  0.7816164E-02  0.1266605E+00
        -11   -1    0    0    0    0  0.00000000000E+00  0.00000000000E+00  0.45593999997E+02  0.45594000000E+02  0.51100000000E-03 0.  1.
         11   -1    0    0    0    0 -0.00000000000E+00 -0.00000000000E+00 -0.45593999997E+02  0.45594000000E+02  0.51100000000E-03 0. -1.
    9900012    2    1    2    0    0 -0.23654618492E+01  0.30072386790E+02 -0.10333362695E+02  0.59301917744E+02  0.49999952066E+02 0.  0.
        -12    1    1    2    0    0  0.23654618492E+01 -0.30072386790E+02  0.10333362695E+02  0.31886082256E+02  0.00000000000E+00 0.  1.
         11    1    3    3    0    0  0.58815186976E+01  0.18884028603E+02 -0.14406092817E+02  0.24469047979E+02  0.51100000000E-03 0. -1.
        -11    1    3    3    0    0  0.60291527328E+01  0.69629115950E+01 -0.10522284099E+02  0.13983965227E+02  0.51100000000E-03 0.  1.
        -12    1    3    3    0    0 -0.14276133280E+02  0.42254465918E+01  0.14595014221E+02  0.20848904538E+02  0.00000000000E+00 0.  1.
</event>
<event>
 7    1  0.3802554E-013  0.5930193E+02  0.7816164E-02  0.1266605E+00
        -11   -1    0    0    0    0  0.00000000000E+00  0.00000000000E+00  0.45593999997E+02  0.45594000000E+02  0.51100000000E-03 0.  1.
         11   -1    0    0    0    0 -0.00000000000E+00 -0.00000000000E+00 -0.45593999997E+02  0.45594000000E+02  0.51100000000E-03 0. -1.
    9900012    2    1    2    0    0 -0.13509661434E+02 -0.23623601657E+02  0.16617335386E+02  0.59301931841E+02  0.49999977774E+02 0.  0.
        -12    1    1    2    0    0  0.13509661434E+02  0.23623601657E+02 -0.16617335386E+02  0.31886068159E+02  0.00000000000E+00 0.  1.
         11    1    3    3    0    0 -0.22204268935E+02 -0.11240051329E+02  0.43731071929E+00  0.24890953251E+02  0.51100000000E-03 0. -1.
        -11    1    3    3    0    0 -0.35209268641E+01 -0.11134655510E+02 -0.26084107319E+01  0.11965838296E+02  0.51100000000E-03 0.  1.
        -12    1    3    3    0    0  0.12215534365E+02 -0.12488948175E+01  0.18788435399E+02  0.22445140294E+02  0.00000000000E+00 0.  1.
</event>
<event>
 7    1  0.3802554E-013  0.5930213E+02  0.7816164E-02  0.1266604E+00
        -11   -1    0    0    0    0  0.00000000000E+00  0.00000000000E+00  0.45593999997E+02  0.45594000000E+02  0.51100000000E-03 0. -1.
         11   -1    0    0    0    0 -0.00000000000E+00 -0.00000000000E+00 -0.45593999997E+02  0.45594000000E+02  0.51100000000E-03 0.  1.
    9900012    2    1    2    0    0  0.59421307118E+01 -0.10183755537E+02  0.29625850583E+02  0.59302128254E+02  0.50000335983E+02 0.  0.
        -12    1    1    2    0    0 -0.59421307118E+01  0.10183755537E+02 -0.29625850583E+02  0.31885871746E+02  0.00000000000E+00 0.  1.
         11    1    3    3    0    0  0.36439391469E+01 -0.15795743184E+02  0.66406007808E+01  0.17518029976E+02  0.51100000000E-03 0. -1.
        -11    1    3    3    0    0 -0.23565092950E+01 -0.14269606709E+02  0.10068774548E+02  0.17622571686E+02  0.51100000000E-03 0.  1.
         12    1    3    3    0    0  0.46547008598E+01  0.19881594356E+02  0.12916475255E+02  0.24161526592E+02  0.00000000000E+00 0. -1.
</event>
<event>
 7    1  0.3802554E-013  0.5930195E+02  0.7816164E-02  0.1266605E+00
        -11   -1    0    0    0    0  0.00000000000E+00  0.00000000000E+00  0.45593999997E+02  0.45594000000E+02  0.51100000000E-03 0. -1.
         11   -1    0    0    0    0 -0.00000000000E+00 -0.00000000000E+00 -0.45593999997E+02  0.45594000000E+02  0.51100000000E-03 0.  1.
    9900012    2    1    2    0    0  0.22725779363E+02 -0.94151841231E+01  0.20288255102E+02  0.59301952349E+02  0.50000015176E+02 0.  0.
        -12    1    1    2    0    0 -0.22725779363E+02  0.94151841231E+01 -0.20288255102E+02  0.31886047651E+02  0.00000000000E+00 0.  1.
         11    1    3    3    0    0  0.15715910396E+02 -0.81631795574E+00 -0.16855201917E+01  0.15827103119E+02  0.51100000000E-03 0. -1.
        -11    1    3    3    0    0  0.81566227270E+01 -0.22199624797E+02  0.11669114027E+02  0.26372752186E+02  0.51100000000E-03 0.  1.
        -12    1    3    3    0    0 -0.11467537597E+01  0.13600758629E+02  0.10304661266E+02  0.17102097043E+02  0.00000000000E+00 0.  1.
</event>
<event>
 7    1  0.3802554E-013  0.5930195E+02  0.7816164E-02  0.1266605E+00
        -11   -1    0    0    0    0  0.00000000000E+00  0.00000000000E+00  0.45593999997E+02  0.45594000000E+02  0.51100000000E-03 0.  1.
         11   -1    0    0    0    0 -0.00000000000E+00 -0.00000000000E+00 -0.45593999997E+02  0.45594000000E+02  0.51100000000E-03 0. -1.
    9900012    2    1    2    0    0 -0.14402161130E+02 -0.78228780002E+01 -0.27351431127E+02  0.59301945836E+02  0.50000003298E+02 0.  0.
        -12    1    1    2    0    0  0.14402161130E+02  0.78228780002E+01  0.27351431127E+02  0.31886054164E+02  0.00000000000E+00 0.  1.
         11    1    3    3    0    0 -0.19168618852E+02 -0.97910956023E+01 -0.25208452386E+02  0.33147663172E+02  0.51100000000E-03 0. -1.
        -11    1    3    3    0    0 -0.37709205864E+01 -0.28277439608E+01 -0.11612279370E+02  0.12532398430E+02  0.51100000000E-03 0.  1.
        -12    1    3    3    0    0  0.85373783085E+01  0.47959615629E+01  0.94693006288E+01  0.13621884234E+02  0.00000000000E+00 0.  1.
</event>
<event>
 7    1  0.3802554E-013  0.5930198E+02  0.7816164E-02  0.1266605E+00
        -11   -1    0    0    0    0  0.00000000000E+00  0.00000000000E+00  0.45593999997E+02  0.45594000000E+02  0.51100000000E-03 0.  1.
         11   -1    0    0    0    0 -0.00000000000E+00 -0.00000000000E+00 -0.45593999997E+02  0.45594000000E+02  0.51100000000E-03 0. -1.
    9900012    2    1    2    0    0  0.10144340174E+01  0.29920027281E+02 -0.10976395688E+02  0.59301978437E+02  0.50000062754E+02 0.  0.
        -12    1    1    2    0    0 -0.10144340174E+01 -0.29920027281E+02  0.10976395688E+02  0.31886021563E+02  0.00000000000E+00 0.  1.
         11    1    3    3    0    0 -0.46692198525E+01  0.81434284926E+01  0.13273183168E+01  0.94804438620E+01  0.51100000000E-03 0. -1.
        -11    1    3    3    0    0 -0.13842693442E+02 -0.49599160769E+01 -0.63653952213E+00  0.14718223807E+02  0.51100000000E-03 0.  1.
        -12    1    3    3    0    0  0.19526347312E+02  0.26736514865E+02 -0.11667174482E+02  0.35103310768E+02  0.00000000000E+00 0.  1.
</event>
<event>
 7    1  0.3802554E-013  0.5930185E+02  0.7816164E-02  0.1266605E+00
        -11   -1    0    0    0    0  0.00000000000E+00  0.00000000000E+00  0.45593999997E+02  0.45594000000E+02  0.51100000000E-03 0.  1.
         11   -1    0    0    0    0 -0.00000000000E+00 -0.00000000000E+00 -0.45593999997E+02  0.45594000000E+02  0.51100000000E-03 0. -1.
    9900012    2    1    2    0    0  0.20215618576E+02 -0.96221522890E+01 -0.22703948728E+02  0.59301853526E+02  0.49999834947E+02 0.  0.
        -12    1    1    2    0    0 -0.20215618576E+02  0.96221522890E+01  0.22703948728E+02  0.31886146474E+02  0.00000000000E+00 0.  1.
         11    1    3    3    0    0  0.12988725971E+01 -0.99907892580E+01  0.41125132661E+01  0.10881898072E+02  0.51100000000E-03 0. -1.
        -11    1    3    3    0    0  0.43710206363E+00 -0.15178360588E+02 -0.53225036999E+01  0.16090454756E+02  0.51100000000E-03 0.  1.
         12    1    3    3    0    0  0.18479643916E+02  0.15546997557E+02 -0.21493958294E+02  0.32329500699E+02  0.00000000000E+00 0. -1.
</event>
<event>
 7    1  0.3802554E-013  0.5930197E+02  0.7816164E-02  0.1266605E+00
        -11   -1    0    0    0    0  0.00000000000E+00  0.00000000000E+00  0.45593999997E+02  0.45594000000E+02  0.51100000000E-03 0. -1.
         11   -1    0    0    0    0 -0.00000000000E+00 -0.00000000000E+00 -0.45593999997E+02  0.45594000000E+02  0.51100000000E-03 0.  1.
    9900012    2    1    2    0    0 -0.94194850749E+01  0.16980524611E+02  0.25291385819E+02  0.59301966823E+02  0.50000041573E+02 0.  0.
        -12    1    1    2    0    0  0.94194850749E+01 -0.16980524611E+02 -0.25291385819E+02  0.31886033177E+02  0.00000000000E+00 0.  1.
         11    1    3    3    0    0 -0.71007969312E+00 -0.36848263757E+01  0.95234337724E+01  0.10236110085E+02  0.51100000000E-03 0. -1.
        -11    1    3    3    0    0 -0.16080316961E+02 -0.35931133473E+01  0.17010122039E+02  0.23681877230E+02  0.51100000000E-03 0.  1.
         12    1    3    3    0    0  0.73709115794E+01  0.24258464334E+02 -0.12421699930E+01  0.25383979508E+02  0.00000000000E+00 0. -1.
</event>
<event>
 7    1  0.3802554E-013  0.5930194E+02  0.7816164E-02  0.1266605E+00
        -11   -1    0    0    0    0  0.00000000000E+00  0.00000000000E+00  0.45593999997E+02  0.45594000000E+02  0.51100000000E-03 0.  1.
         11   -1    0    0    0    0 -0.00000000000E+00 -0.00000000000E+00 -0.45593999997E+02  0.45594000000E+02  0.51100000000E-03 0. -1.
    9900012    2    1    2    0    0 -0.99373508274E+01 -0.12194091049E+00 -0.30297773763E+02  0.59301938687E+02  0.49999990260E+02 0.  0.
        -12    1    1    2    0    0  0.99373508274E+01  0.12194091049E+00  0.30297773763E+02  0.31886061313E+02  0.00000000000E+00 0.  1.
         11    1    3    3    0    0  0.16644220892E+01 -0.18876723382E+02 -0.12111420970E+02  0.22489719979E+02  0.51100000000E-03 0. -1.
        -11    1    3    3    0    0 -0.70044032885E+01 -0.26504577406E+01 -0.11853833844E+02  0.14021411082E+02  0.51100000000E-03 0.  1.
        -12    1    3    3    0    0 -0.45973696280E+01  0.21405240212E+02 -0.63325189483E+01  0.22790807626E+02  0.00000000000E+00 0.  1.
</event>
<event>
 7    1  0.3802554E-013  0.5930163E+02  0.7816164E-02  0.1266606E+00
        -11   -1    0    0    0    0  0.00000000000E+00  0.00000000000E+00  0.45593999997E+02  0.45594000000E+02  0.51100000000E-03 0. -1.
         11   -1    0    0    0    0 -0.00000000000E+00 -0.00000000000E+00 -0.45593999997E+02  0.45594000000E+02  0.51100000000E-03 0.  1.
    9900012    2    1    2    0    0  0.84784766458E+01 -0.50837080154E+01  0.30315206967E+02  0.59301632586E+02  0.49999432002E+02 0.  0.
        -12    1    1    2    0    0 -0.84784766458E+01  0.50837080154E+01 -0.30315206967E+02  0.31886367414E+02  0.00000000000E+00 0.  1.
         11    1    3    3    0    0  0.64713495510E+01  0.16808512705E+01  0.64510325495E+01  0.92908259709E+01  0.51100000000E-03 0. -1.
        -11    1    3    3    0    0  0.14906503842E+02 -0.19604559157E+02  0.80809996348E+01  0.25919975924E+02  0.51100000000E-03 0.  1.
         12    1    3    3    0    0 -0.12899376747E+02  0.12839999871E+02  0.15783174783E+02  0.24090830691E+02  0.00000000000E+00 0. -1.
</event>
<event>
 7    1  0.3802554E-013  0.5930193E+02  0.7816164E-02  0.1266605E+00
        -11   -1    0    0    0    0  0.00000000000E+00  0.00000000000E+00  0.45593999997E+02  0.45594000000E+02  0.51100000000E-03 0.  1.
         11   -1    0    0    0    0 -0.00000000000E+00 -0.00000000000E+00 -0.45593999997E+02  0.45594000000E+02  0.51100000000E-03 0. -1.
    9900012    2    1    2    0    0  0.14000725266E+02 -0.54110157528E+01 -0.28132225975E+02  0.59301928781E+02  0.49999972194E+02 0.  0.
        -12    1    1    2    0    0 -0.14000725266E+02  0.54110157528E+01  0.28132225975E+02  0.31886071219E+02  0.00000000000E+00 0.  1.
         11    1    3    3    0    0  0.97172416532E+00 -0.14424217017E+02 -0.17781702648E+02  0.22917051157E+02  0.51100000000E-03 0.  1.
        -11    1    3    3    0    0  0.10845020603E+02 -0.38008862632E+00 -0.19992512713E+02  0.22747736241E+02  0.51100000000E-03 0. -1.
         12    1    3    3    0    0  0.21839804979E+01  0.93932898902E+01  0.96419893867E+01  0.13637141383E+02  0.00000000000E+00 0. -1.
</event>
<event>
 7    1  0.3802554E-013  0.5930195E+02  0.7816164E-02  0.1266605E+00
        -11   -1    0    0    0    0  0.00000000000E+00  0.00000000000E+00  0.45593999997E+02  0.45594000000E+02  0.51100000000E-03 0.  1.
         11   -1    0    0    0    0 -0.00000000000E+00 -0.00000000000E+00 -0.45593999997E+02  0.45594000000E+02  0.51100000000E-03 0. -1.
    9900012    2    1    2    0    0 -0.71177980922E+01  0.31081432574E+02 -0.42903263146E-01  0.59301947544E+02  0.50000006413E+02 0.  0.
        -12    1    1    2    0    0  0.71177980922E+01 -0.31081432574E+02  0.42903263146E-01  0.31886052456E+02  0.00000000000E+00 0.  1.
         11    1    3    3    0    0  0.53602344896E+01  0.57485143708E+01  0.12509230214E+02  0.14773570051E+02  0.51100000000E-03 0. -1.
        -11    1    3    3    0    0  0.51794983976E+01  0.53479810319E+01  0.79488671369E+01  0.10890940905E+02  0.51100000000E-03 0.  1.
         12    1    3    3    0    0 -0.17657530979E+02  0.19984937171E+02 -0.20501000614E+02  0.33637436588E+02  0.00000000000E+00 0. -1.
</event>
<event>
 7    1  0.3802554E-013  0.5930195E+02  0.7816164E-02  0.1266605E+00
        -11   -1    0    0    0    0  0.00000000000E+00  0.00000000000E+00  0.45593999997E+02  0.45594000000E+02  0.51100000000E-03 0. -1.
         11   -1    0    0    0    0 -0.00000000000E+00 -0.00000000000E+00 -0.45593999997E+02  0.45594000000E+02  0.51100000000E-03 0.  1.
    9900012    2    1    2    0    0 -0.28594609236E+02  0.13891433149E+02  0.24691181339E+01  0.59301950752E+02  0.50000012264E+02 0.  0.
        -12    1    1    2    0    0  0.28594609236E+02 -0.13891433149E+02 -0.24691181339E+01  0.31886049248E+02  0.00000000000E+00 0.  1.
         11    1    3    3    0    0  0.95182897238E+01  0.14621574942E+02 -0.29974709245E+00  0.17449302038E+02  0.51100000000E-03 0. -1.
        -11    1    3    3    0    0  0.58333775728E+00  0.17841974208E+01 -0.20464532983E+01  0.27769794271E+01  0.51100000000E-03 0.  1.
        -12    1    3    3    0    0 -0.38696236717E+02 -0.25143392131E+01  0.48153185247E+01  0.39075669287E+02  0.00000000000E+00 0.  1.
</event>
<event>
 7    1  0.3802554E-013  0.5930196E+02  0.7816164E-02  0.1266605E+00
        -11   -1    0    0    0    0  0.00000000000E+00  0.00000000000E+00  0.45593999997E+02  0.45594000000E+02  0.51100000000E-03 0. -1.
         11   -1    0    0    0    0 -0.00000000000E+00 -0.00000000000E+00 -0.45593999997E+02  0.45594000000E+02  0.51100000000E-03 0.  1.
    9900012    2    1    2    0    0  0.26101667375E+01 -0.11904959714E+02  0.29464871042E+02  0.59301958200E+02  0.50000025846E+02 0.  0.
        -12    1    1    2    0    0 -0.26101667375E+01  0.11904959714E+02 -0.29464871042E+02  0.31886041800E+02  0.00000000000E+00 0.  1.
         11    1    3    3    0    0 -0.33580427484E+01 -0.57473694334E+01  0.34533132009E+01  0.74989385135E+01  0.51100000000E-03 0. -1.
        -11    1    3    3    0    0 -0.42450386964E+01 -0.19447208338E+02 -0.10926835359E+01  0.19935100282E+02  0.51100000000E-03 0.  1.
        -12    1    3    3    0    0  0.10213248182E+02  0.13289618058E+02  0.27104241377E+02  0.31867919404E+02  0.00000000000E+00 0.  1.
</event>
<event>
 7    1  0.3802554E-013  0.5930195E+02  0.7816164E-02  0.1266605E+00
        -11   -1    0    0    0    0  0.00000000000E+00  0.00000000000E+00  0.45593999997E+02  0.45594000000E+02  0.51100000000E-03 0. -1.
         11   -1    0    0    0    0 -0.00000000000E+00 -0.00000000000E+00 -0.45593999997E+02  0.45594000000E+02  0.51100000000E-03 0.  1.
    9900012    2    1    2    0    0  0.70907094241E+01  0.22590398764E+02  0.21356867886E+02  0.59301951603E+02  0.50000013816E+02 0.  0.
        -12    1    1    2    0    0 -0.70907094241E+01 -0.22590398764E+02 -0.21356867886E+02  0.31886048397E+02  0.00000000000E+00 0.  1.
         11    1    3    3    0    0 -0.90450534588E+01  0.13598207552E+02 -0.33750220627E+01  0.16676780711E+02  0.51100000000E-03 0. -1.
        -11    1    3    3    0    0 -0.12944318337E+01  0.59432536527E+01 -0.51016121251E+01  0.79387822925E+01  0.51100000000E-03 0.  1.
        -12    1    3    3    0    0  0.17430194717E+02  0.30489375587E+01  0.29833502074E+02  0.34686388600E+02  0.00000000000E+00 0.  1.
</event>
<event>
 7    1  0.3802554E-013  0.5930194E+02  0.7816164E-02  0.1266605E+00
        -11   -1    0    0    0    0  0.00000000000E+00  0.00000000000E+00  0.45593999997E+02  0.45594000000E+02  0.51100000000E-03 0.  1.
         11   -1    0    0    0    0 -0.00000000000E+00 -0.00000000000E+00 -0.45593999997E+02  0.45594000000E+02  0.51100000000E-03 0. -1.
    9900012    2    1    2    0    0 -0.32292839784E+01 -0.13277493451E+02 -0.28809730636E+02  0.59301942127E+02  0.49999996533E+02 0.  0.
        -12    1    1    2    0    0  0.32292839784E+01  0.13277493451E+02  0.28809730636E+02  0.31886057873E+02  0.00000000000E+00 0.  1.
         11    1    3    3    0    0  0.63274780413E+01 -0.21964290327E+02 -0.11939203233E+02  0.25787818870E+02  0.51100000000E-03 0. -1.
        -11    1    3    3    0    0  0.26453282807E+01  0.34025479860E+01  0.58034067199E+01  0.72287360117E+01  0.51100000000E-03 0.  1.
         12    1    3    3    0    0 -0.12202090300E+02  0.52842488907E+01 -0.22673934123E+02  0.26285387245E+02  0.00000000000E+00 0. -1.
</event>
<event>
 7    1  0.3802554E-013  0.5930196E+02  0.7816164E-02  0.1266605E+00
        -11   -1    0    0    0    0  0.00000000000E+00  0.00000000000E+00  0.45593999997E+02  0.45594000000E+02  0.51100000000E-03 0.  1.
         11   -1    0    0    0    0 -0.00000000000E+00 -0.00000000000E+00 -0.45593999997E+02  0.45594000000E+02  0.51100000000E-03 0. -1.
    9900012    2    1    2    0    0  0.10292238350E+02 -0.13945010452E+02 -0.26764272803E+02  0.59301956259E+02  0.50000022307E+02 0.  0.
        -12    1    1    2    0    0 -0.10292238350E+02  0.13945010452E+02  0.26764272803E+02  0.31886043741E+02  0.00000000000E+00 0.  1.
         11    1    3    3    0    0 -0.10617348252E+02 -0.67749611219E+01 -0.25557696429E+01  0.12851464541E+02  0.51100000000E-03 0. -1.
        -11    1    3    3    0    0 -0.40588580961E+01  0.89161916805E+01 -0.77658337962E+01  0.12501239056E+02  0.51100000000E-03 0.  1.
        -12    1    3    3    0    0  0.24968444699E+02 -0.16086241010E+02 -0.16442669364E+02  0.33949252662E+02  0.00000000000E+00 0.  1.
</event>
<event>
 7    1  0.3802554E-013  0.5930186E+02  0.7816164E-02  0.1266605E+00
        -11   -1    0    0    0    0  0.00000000000E+00  0.00000000000E+00  0.45593999997E+02  0.45594000000E+02  0.51100000000E-03 0.  1.
         11   -1    0    0    0    0 -0.00000000000E+00 -0.00000000000E+00 -0.45593999997E+02  0.45594000000E+02  0.51100000000E-03 0. -1.
    9900012    2    1    2    0    0  0.31552382238E+02 -0.14042653547E+01 -0.43818850709E+01  0.59301863469E+02  0.49999853080E+02 0.  0.
        -12    1    1    2    0    0 -0.31552382238E+02  0.14042653547E+01  0.43818850709E+01  0.31886136531E+02  0.00000000000E+00 0.  1.
         11    1    3    3    0    0  0.33837864334E+02 -0.40221400939E+01  0.61215265535E+01  0.34621550532E+02  0.51100000000E-03 0. -1.
        -11    1    3    3    0    0  0.82700502038E+01  0.69989859106E+01 -0.60948000445E+01  0.12430853631E+02  0.51100000000E-03 0.  1.
         12    1    3    3    0    0 -0.10555532300E+02 -0.43811111714E+01 -0.44086115799E+01  0.12249459306E+02  0.00000000000E+00 0. -1.
</event>
<event>
 7    1  0.3802554E-013  0.5930193E+02  0.7816164E-02  0.1266605E+00
        -11   -1    0    0    0    0  0.00000000000E+00  0.00000000000E+00  0.45593999997E+02  0.45594000000E+02  0.51100000000E-03 0. -1.
         11   -1    0    0    0    0 -0.00000000000E+00 -0.00000000000E+00 -0.45593999997E+02  0.45594000000E+02  0.51100000000E-03 0.  1.
    9900012    2    1    2    0    0 -0.28049289255E+02  0.57727354392E+01 -0.14022627108E+02  0.59301934499E+02  0.49999982621E+02 0.  0.
        -12    1    1    2    0    0  0.28049289255E+02 -0.57727354392E+01  0.14022627108E+02  0.31886065501E+02  0.00000000000E+00 0.  1.
         11    1    3    3    0    0 -0.30778756309E+02  0.96589182846E+01  0.13598697337E+01  0.32287393644E+02  0.51100000000E-03 0. -1.
        -11    1    3    3    0    0 -0.43927911950E+01  0.67719933639E+01 -0.10620283184E+02  0.13339674800E+02  0.51100000000E-03 0.  1.
        -12    1    3    3    0    0  0.71222582497E+01 -0.10658176209E+02 -0.47622136584E+01  0.13674866055E+02  0.00000000000E+00 0.  1.
</event>
<event>
 7    1  0.3802554E-013  0.5930197E+02  0.7816164E-02  0.1266605E+00
        -11   -1    0    0    0    0  0.00000000000E+00  0.00000000000E+00  0.45593999997E+02  0.45594000000E+02  0.51100000000E-03 0.  1.
         11   -1    0    0    0    0 -0.00000000000E+00 -0.00000000000E+00 -0.45593999997E+02  0.45594000000E+02  0.51100000000E-03 0. -1.
    9900012    2    1    2    0    0 -0.37770172550E+00 -0.15154832428E+02 -0.28051863641E+02  0.59301973935E+02  0.50000054543E+02 0.  0.
        -12    1    1    2    0    0  0.37770172550E+00  0.15154832428E+02  0.28051863641E+02  0.31886026065E+02  0.00000000000E+00 0.  1.
         11    1    3    3    0    0  0.12988004650E+02 -0.53178867585E+01 -0.95826320864E+01  0.16993970176E+02  0.51100000000E-03 0. -1.
        -11    1    3    3    0    0  0.10757682533E+02 -0.87439976929E+01 -0.78131836620E+01  0.15913235634E+02  0.51100000000E-03 0.  1.
        -12    1    3    3    0    0 -0.24123388909E+02 -0.10929479766E+01 -0.10656047892E+02  0.26394768125E+02  0.00000000000E+00 0.  1.
</event>
<event>
 7    1  0.3802554E-013  0.5930195E+02  0.7816164E-02  0.1266605E+00
        -11   -1    0    0    0    0  0.00000000000E+00  0.00000000000E+00  0.45593999997E+02  0.45594000000E+02  0.51100000000E-03 0. -1.
         11   -1    0    0    0    0 -0.00000000000E+00 -0.00000000000E+00 -0.45593999997E+02  0.45594000000E+02  0.51100000000E-03 0.  1.
    9900012    2    1    2    0    0  0.17201765699E+02  0.68771412740E+01  0.25952352743E+02  0.59301946181E+02  0.50000003927E+02 0.  0.
        -12    1    1    2    0    0 -0.17201765699E+02 -0.68771412740E+01 -0.25952352743E+02  0.31886053819E+02  0.00000000000E+00 0.  1.
         11    1    3    3    0    0  0.33700984737E+00  0.99725810684E+01  0.76679285844E+01  0.12584239263E+02  0.51100000000E-03 0. -1.
        -11    1    3    3    0    0  0.25450916376E+02  0.85486284372E+01  0.54887000989E+01  0.27403540311E+02  0.51100000000E-03 0.  1.
         12    1    3    3    0    0 -0.85861605239E+01 -0.11644068231E+02  0.12795724059E+02  0.19314166607E+02  0.00000000000E+00 0. -1.
</event>
<event>
 7    1  0.3802554E-013  0.5930196E+02  0.7816164E-02  0.1266605E+00
        -11   -1    0    0    0    0  0.00000000000E+00  0.00000000000E+00  0.45593999997E+02  0.45594000000E+02  0.51100000000E-03 0.  1.
         11   -1    0    0    0    0 -0.00000000000E+00 -0.00000000000E+00 -0.45593999997E+02  0.45594000000E+02  0.51100000000E-03 0. -1.
    9900012    2    1    2    0    0  0.44460611279E+00 -0.44632811698E+01 -0.31568987470E+02  0.59301960370E+02  0.50000029805E+02 0.  0.
        -12    1    1    2    0    0 -0.44460611279E+00  0.44632811698E+01  0.31568987470E+02  0.31886039630E+02  0.00000000000E+00 0.  1.
         11    1    3    3    0    0  0.19054316482E+01 -0.17379481059E+02 -0.13048025323E+02  0.21815774035E+02  0.51100000000E-03 0. -1.
        -11    1    3    3    0    0 -0.13995142194E+02  0.42122115939E+01 -0.16033282299E+01  0.14702972258E+02  0.51100000000E-03 0.  1.
        -12    1    3    3    0    0  0.12534316659E+02  0.87039882954E+01 -0.16917633917E+02  0.22783214078E+02  0.00000000000E+00 0.  1.
</event>
<event>
 7    1  0.3802554E-013  0.5930194E+02  0.7816164E-02  0.1266605E+00
        -11   -1    0    0    0    0  0.00000000000E+00  0.00000000000E+00  0.45593999997E+02  0.45594000000E+02  0.51100000000E-03 0.  1.
         11   -1    0    0    0    0 -0.00000000000E+00 -0.00000000000E+00 -0.45593999997E+02  0.45594000000E+02  0.51100000000E-03 0. -1.
    9900012    2    1    2    0    0 -0.88102813859E+01 -0.93356309707E+01 -0.29188108023E+02  0.59301941704E+02  0.49999995761E+02 0.  0.
        -12    1    1    2    0    0  0.88102813859E+01  0.93356309707E+01  0.29188108023E+02  0.31886058296E+02  0.00000000000E+00 0.  1.
         11    1    3    3    0    0  0.13291571443E+01 -0.38246204298E+01 -0.26293500353E+02  0.26603431004E+02  0.51100000000E-03 0. -1.
        -11    1    3    3    0    0 -0.11820394223E+02  0.10620082245E+01 -0.14815090436E+02  0.18982531073E+02  0.51100000000E-03 0.  1.
         12    1    3    3    0    0  0.16809556931E+01 -0.65730187654E+01  0.11920482766E+02  0.13715979626E+02  0.00000000000E+00 0. -1.
</event>
<event>
 7    1  0.3802554E-013  0.5930206E+02  0.7816164E-02  0.1266604E+00
        -11   -1    0    0    0    0  0.00000000000E+00  0.00000000000E+00  0.45593999997E+02  0.45594000000E+02  0.51100000000E-03 0.  1.
         11   -1    0    0    0    0 -0.00000000000E+00 -0.00000000000E+00 -0.45593999997E+02  0.45594000000E+02  0.51100000000E-03 0. -1.
    9900012    2    1    2    0    0 -0.44863544703E+00  0.19440198902E+02 -0.25270348178E+02  0.59302061028E+02  0.50000213380E+02 0.  0.
        -12    1    1    2    0    0  0.44863544703E+00 -0.19440198902E+02  0.25270348178E+02  0.31885938972E+02  0.00000000000E+00 0.  1.
         11    1    3    3    0    0 -0.33138731698E+01  0.23765651499E+02 -0.28028398378E+02  0.36896870633E+02  0.51100000000E-03 0. -1.
        -11    1    3    3    0    0 -0.89659129723E+01  0.12693871483E+01  0.21318173106E+01  0.93028804392E+01  0.51100000000E-03 0.  1.
        -12    1    3    3    0    0  0.11831150695E+02 -0.55948397458E+01  0.62623288969E+00  0.13102309956E+02  0.00000000000E+00 0.  1.
</event>
<event>
 7    1  0.3802554E-013  0.5930175E+02  0.7816164E-02  0.1266605E+00
        -11   -1    0    0    0    0  0.00000000000E+00  0.00000000000E+00  0.45593999997E+02  0.45594000000E+02  0.51100000000E-03 0. -1.
         11   -1    0    0    0    0 -0.00000000000E+00 -0.00000000000E+00 -0.45593999997E+02  0.45594000000E+02  0.51100000000E-03 0.  1.
    9900012    2    1    2    0    0  0.20567269876E+02  0.11212924492E+02  0.21633086709E+02  0.59301753649E+02  0.49999652793E+02 0.  0.
        -12    1    1    2    0    0 -0.20567269876E+02 -0.11212924492E+02 -0.21633086709E+02  0.31886246351E+02  0.00000000000E+00 0.  1.
         11    1    3    3    0    0 -0.16601726824E+01 -0.26071085725E+01  0.88786533630E+01  0.94012591840E+01  0.51100000000E-03 0. -1.
        -11    1    3    3    0    0  0.71140609446E+01 -0.98924932684E+01  0.17559998054E+02  0.21373460602E+02  0.51100000000E-03 0.  1.
        -12    1    3    3    0    0  0.15113381613E+02  0.23712526333E+02 -0.48055647074E+01  0.28527033863E+02  0.00000000000E+00 0.  1.
</event>
<event>
 7    1  0.3802554E-013  0.5930195E+02  0.7816164E-02  0.1266605E+00
        -11   -1    0    0    0    0  0.00000000000E+00  0.00000000000E+00  0.45593999997E+02  0.45594000000E+02  0.51100000000E-03 0. -1.
         11   -1    0    0    0    0 -0.00000000000E+00 -0.00000000000E+00 -0.45593999997E+02  0.45594000000E+02  0.51100000000E-03 0.  1.
    9900012    2    1    2    0    0  0.81983806395E+01  0.22832767065E+02  0.20692299641E+02  0.59301953500E+02  0.50000017276E+02 0.  0.
        -12    1    1    2    0    0 -0.81983806395E+01 -0.22832767065E+02 -0.20692299641E+02  0.31886046500E+02  0.00000000000E+00 0.  1.
         11    1    3    3    0    0 -0.62472612231E+01  0.18448474720E+02  0.13640142393E+01  0.19525240776E+02  0.51100000000E-03 0.  1.
        -11    1    3    3    0    0 -0.84156190347E+01 -0.19098991191E+01 -0.80946282798E+00  0.86675018727E+01  0.51100000000E-03 0. -1.
         12    1    3    3    0    0  0.22861260897E+02  0.62941914642E+01  0.20137748230E+02  0.31109210851E+02  0.00000000000E+00 0. -1.
</event>
<event>
 7    1  0.3802554E-013  0.5930193E+02  0.7816164E-02  0.1266605E+00
        -11   -1    0    0    0    0  0.00000000000E+00  0.00000000000E+00  0.45593999997E+02  0.45594000000E+02  0.51100000000E-03 0.  1.
         11   -1    0    0    0    0 -0.00000000000E+00 -0.00000000000E+00 -0.45593999997E+02  0.45594000000E+02  0.51100000000E-03 0. -1.
    9900012    2    1    2    0    0 -0.19777844142E+02  0.15444286827E+02  0.19673138816E+02  0.59301929289E+02  0.49999973120E+02 0.  0.
        -12    1    1    2    0    0  0.19777844142E+02 -0.15444286827E+02 -0.19673138816E+02  0.31886070711E+02  0.00000000000E+00 0.  1.
         11    1    3    3    0    0  0.46361349664E+01  0.63878345269E+01  0.17172815227E+01  0.80775759643E+01  0.51100000000E-03 0. -1.
        -11    1    3    3    0    0  0.92809879008E+01  0.61643816476E+01  0.12874101542E+02  0.17025828270E+02  0.51100000000E-03 0.  1.
         12    1    3    3    0    0 -0.33694967009E+02  0.28920706528E+01  0.50817557516E+01  0.34198525055E+02  0.00000000000E+00 0. -1.
</event>
<event>
 7    1  0.3802554E-013  0.5930197E+02  0.7816164E-02  0.1266605E+00
        -11   -1    0    0    0    0  0.00000000000E+00  0.00000000000E+00  0.45593999997E+02  0.45594000000E+02  0.51100000000E-03 0.  1.
         11   -1    0    0    0    0 -0.00000000000E+00 -0.00000000000E+00 -0.45593999997E+02  0.45594000000E+02  0.51100000000E-03 0. -1.
    9900012    2    1    2    0    0 -0.10995533066E+02 -0.25393305433E+02 -0.15842881852E+02  0.59301974634E+02  0.50000055819E+02 0.  0.
        -12    1    1    2    0    0  0.10995533066E+02  0.25393305433E+02  0.15842881852E+02  0.31886025366E+02  0.00000000000E+00 0.  1.
         11    1    3    3    0    0 -0.17558050569E+01 -0.21302040253E+02 -0.14255708599E+01  0.21421765167E+02  0.51100000000E-03 0. -1.
        -11    1    3    3    0    0 -0.93535300046E+01 -0.14624678945E+02  0.29098967397E+01  0.17602194667E+02  0.51100000000E-03 0.  1.
        -12    1    3    3    0    0  0.11380199567E+00  0.10533413765E+02 -0.17327207732E+02  0.20278014800E+02  0.00000000000E+00 0.  1.
</event>
<event>
 7    1  0.3802554E-013  0.5930195E+02  0.7816164E-02  0.1266605E+00
        -11   -1    0    0    0    0  0.00000000000E+00  0.00000000000E+00  0.45593999997E+02  0.45594000000E+02  0.51100000000E-03 0.  1.
         11   -1    0    0    0    0 -0.00000000000E+00 -0.00000000000E+00 -0.45593999997E+02  0.45594000000E+02  0.51100000000E-03 0. -1.
    9900012    2    1    2    0    0  0.18988549446E+02 -0.11231641388E+02 -0.23021840154E+02  0.59301954425E+02  0.50000018962E+02 0.  0.
        -12    1    1    2    0    0 -0.18988549446E+02  0.11231641388E+02  0.23021840154E+02  0.31886045575E+02  0.00000000000E+00 0.  1.
         11    1    3    3    0    0  0.95292423324E+01  0.41106388110E+01 -0.22796209199E+02  0.25047374413E+02  0.51100000000E-03 0. -1.
        -11    1    3    3    0    0  0.13218584505E+02  0.44775710987E+01 -0.15258240927E+01  0.14039507067E+02  0.51100000000E-03 0.  1.
         12    1    3    3    0    0 -0.37592773915E+01 -0.19819851298E+02  0.13001931378E+01  0.20215072945E+02  0.00000000000E+00 0. -1.
</event>
<event>
 7    1  0.3802554E-013  0.5930182E+02  0.7816164E-02  0.1266605E+00
        -11   -1    0    0    0    0  0.00000000000E+00  0.00000000000E+00  0.45593999997E+02  0.45594000000E+02  0.51100000000E-03 0.  1.
         11   -1    0    0    0    0 -0.00000000000E+00 -0.00000000000E+00 -0.45593999997E+02  0.45594000000E+02  0.51100000000E-03 0. -1.
    9900012    2    1    2    0    0 -0.41548743949E+00 -0.22932284249E+02 -0.22150989856E+02  0.59301817376E+02  0.49999769018E+02 0.  0.
        -12    1    1    2    0    0  0.41548743949E+00  0.22932284249E+02  0.22150989856E+02  0.31886182624E+02  0.00000000000E+00 0.  1.
         11    1    3    3    0    0  0.19095987037E+02 -0.27161947083E+01 -0.15202359386E+02  0.24559034300E+02  0.51100000000E-03 0. -1.
        -11    1    3    3    0    0  0.49842389402E+00 -0.64025793502E+01  0.45258281238E+01  0.78564985318E+01  0.51100000000E-03 0.  1.
        -12    1    3    3    0    0 -0.20009898370E+02 -0.13813510190E+02 -0.11474458594E+02  0.26886284544E+02  0.00000000000E+00 0.  1.
</event>
<event>
 7    1  0.3802554E-013  0.5930198E+02  0.7816164E-02  0.1266605E+00
        -11   -1    0    0    0    0  0.00000000000E+00  0.00000000000E+00  0.45593999997E+02  0.45594000000E+02  0.51100000000E-03 0. -1.
         11   -1    0    0    0    0 -0.00000000000E+00 -0.00000000000E+00 -0.45593999997E+02  0.45594000000E+02  0.51100000000E-03 0.  1.
    9900012    2    1    2    0    0  0.21500163140E+01  0.30721302907E+02 -0.82642014151E+01  0.59301983512E+02  0.50000072010E+02 0.  0.
        -12    1    1    2    0    0 -0.21500163140E+01 -0.30721302907E+02  0.82642014151E+01  0.31886016488E+02  0.00000000000E+00 0.  1.
         11    1    3    3    0    0  0.41291454482E+01  0.12782357467E+02  0.86079021564E+01  0.15954136903E+02  0.51100000000E-03 0. -1.
        -11    1    3    3    0    0  0.13844280579E+02  0.22770838537E+01  0.19867662474E+01  0.14170266617E+02  0.51100000000E-03 0.  1.
        -12    1    3    3    0    0 -0.15823409713E+02  0.15661861587E+02 -0.18858869819E+02  0.29177579991E+02  0.00000000000E+00 0.  1.
</event>
<event>
 7    1  0.3802554E-013  0.5930194E+02  0.7816164E-02  0.1266605E+00
        -11   -1    0    0    0    0  0.00000000000E+00  0.00000000000E+00  0.45593999997E+02  0.45594000000E+02  0.51100000000E-03 0. -1.
         11   -1    0    0    0    0 -0.00000000000E+00 -0.00000000000E+00 -0.45593999997E+02  0.45594000000E+02  0.51100000000E-03 0.  1.
    9900012    2    1    2    0    0  0.21405051862E+02  0.22223148717E+02  0.80421359125E+01  0.59301944519E+02  0.50000000896E+02 0.  0.
        -12    1    1    2    0    0 -0.21405051862E+02 -0.22223148717E+02 -0.80421359125E+01  0.31886055481E+02  0.00000000000E+00 0.  1.
         11    1    3    3    0    0  0.79636778582E+01 -0.13100536779E+01  0.69152887927E+01  0.10628152474E+02  0.51100000000E-03 0. -1.
        -11    1    3    3    0    0  0.24903699859E+02  0.20114223463E+02  0.10268901787E+02  0.33618842876E+02  0.51100000000E-03 0.  1.
        -12    1    3    3    0    0 -0.11462325855E+02  0.34189789314E+01 -0.91420546669E+01  0.15054949169E+02  0.00000000000E+00 0.  1.
</event>
<event>
 7    1  0.3802554E-013  0.5930196E+02  0.7816164E-02  0.1266605E+00
        -11   -1    0    0    0    0  0.00000000000E+00  0.00000000000E+00  0.45593999997E+02  0.45594000000E+02  0.51100000000E-03 0. -1.
         11   -1    0    0    0    0 -0.00000000000E+00 -0.00000000000E+00 -0.45593999997E+02  0.45594000000E+02  0.51100000000E-03 0.  1.
    9900012    2    1    2    0    0 -0.21798380850E+02 -0.23268263764E+02  0.37167754570E+00  0.59301958375E+02  0.50000026167E+02 0.  0.
        -12    1    1    2    0    0  0.21798380850E+02  0.23268263764E+02 -0.37167754570E+00  0.31886041625E+02  0.00000000000E+00 0.  1.
         11    1    3    3    0    0  0.22576336390E+01 -0.27208410172E+01  0.59855964859E+01  0.69517804225E+01  0.51100000000E-03 0. -1.
        -11    1    3    3    0    0 -0.29147799047E+01 -0.28964312887E+02 -0.97449671174E+00  0.29126912075E+02  0.51100000000E-03 0.  1.
         12    1    3    3    0    0 -0.21141234585E+02  0.84168901407E+01 -0.46394222284E+01  0.23223265878E+02  0.00000000000E+00 0. -1.
</event>
<event>
 7    1  0.3802554E-013  0.5930194E+02  0.7816164E-02  0.1266605E+00
        -11   -1    0    0    0    0  0.00000000000E+00  0.00000000000E+00  0.45593999997E+02  0.45594000000E+02  0.51100000000E-03 0. -1.
         11   -1    0    0    0    0 -0.00000000000E+00 -0.00000000000E+00 -0.45593999997E+02  0.45594000000E+02  0.51100000000E-03 0.  1.
    9900012    2    1    2    0    0 -0.60875838427E+01  0.30723433657E+02  0.59777044169E+01  0.59301937170E+02  0.49999987494E+02 0.  0.
        -12    1    1    2    0    0  0.60875838427E+01 -0.30723433657E+02 -0.59777044169E+01  0.31886062830E+02  0.00000000000E+00 0.  1.
         11    1    3    3    0    0 -0.58770191864E+01  0.85075403768E+01 -0.37847432508E+01  0.11010989034E+02  0.51100000000E-03 0. -1.
        -11    1    3    3    0    0 -0.18852576778E+02  0.13056437050E+02 -0.41317980027E+01  0.23301544039E+02  0.51100000000E-03 0.  1.
         12    1    3    3    0    0  0.18642012122E+02  0.91594562295E+01  0.13894245670E+02  0.24989404097E+02  0.00000000000E+00 0. -1.
</event>
<event>
 7    1  0.3802554E-013  0.5930196E+02  0.7816164E-02  0.1266605E+00
        -11   -1    0    0    0    0  0.00000000000E+00  0.00000000000E+00  0.45593999997E+02  0.45594000000E+02  0.51100000000E-03 0.  1.
         11   -1    0    0    0    0 -0.00000000000E+00 -0.00000000000E+00 -0.45593999997E+02  0.45594000000E+02  0.51100000000E-03 0. -1.
    9900012    2    1    2    0    0  0.19926599076E+02 -0.24454834725E+02 -0.46488244913E+01  0.59301955069E+02  0.50000020137E+02 0.  0.
        -12    1    1    2    0    0 -0.19926599076E+02  0.24454834725E+02  0.46488244913E+01  0.31886044931E+02  0.00000000000E+00 0.  1.
         11    1    3    3    0    0  0.85311251545E+01 -0.50373239598E+01 -0.96922107327E+01  0.13859786370E+02  0.51100000000E-03 0. -1.
        -11    1    3    3    0    0 -0.13014780730E+02 -0.41721502897E+01 -0.55825148083E+01  0.14763327109E+02  0.51100000000E-03 0.  1.
         12    1    3    3    0    0  0.24410254651E+02 -0.15245360476E+02  0.10625901050E+02  0.30678841590E+02  0.00000000000E+00 0. -1.
</event>
<event>
 7    1  0.3802554E-013  0.5930193E+02  0.7816164E-02  0.1266605E+00
        -11   -1    0    0    0    0  0.00000000000E+00  0.00000000000E+00  0.45593999997E+02  0.45594000000E+02  0.51100000000E-03 0.  1.
         11   -1    0    0    0    0 -0.00000000000E+00 -0.00000000000E+00 -0.45593999997E+02  0.45594000000E+02  0.51100000000E-03 0. -1.
    9900012    2    1    2    0    0 -0.14916792504E+00 -0.25911809066E+02 -0.18581639454E+02  0.59301930551E+02  0.49999975421E+02 0.  0.
        -12    1    1    2    0    0  0.14916792504E+00  0.25911809066E+02  0.18581639454E+02  0.31886069449E+02  0.00000000000E+00 0.  1.
         11    1    3    3    0    0 -0.37878293487E+01 -0.11744557708E+02  0.79088113617E+01  0.14657134248E+02  0.51100000000E-03 0. -1.
        -11    1    3    3    0    0  0.17210685676E+02 -0.13606946695E+02 -0.13008441861E+02  0.25506396447E+02  0.51100000000E-03 0.  1.
        -12    1    3    3    0    0 -0.13572024252E+02 -0.56030466275E+00 -0.13482008955E+02  0.19138399856E+02  0.00000000000E+00 0.  1.
</event>
<event>
 7    1  0.3802554E-013  0.5930192E+02  0.7816164E-02  0.1266605E+00
        -11   -1    0    0    0    0  0.00000000000E+00  0.00000000000E+00  0.45593999997E+02  0.45594000000E+02  0.51100000000E-03 0.  1.
         11   -1    0    0    0    0 -0.00000000000E+00 -0.00000000000E+00 -0.45593999997E+02  0.45594000000E+02  0.51100000000E-03 0. -1.
    9900012    2    1    2    0    0  0.26166518672E+02  0.12461400229E+02 -0.13294697660E+02  0.59301918696E+02  0.49999953801E+02 0.  0.
        -12    1    1    2    0    0 -0.26166518672E+02 -0.12461400229E+02  0.13294697660E+02  0.31886081304E+02  0.00000000000E+00 0.  1.
         11    1    3    3    0    0 -0.35934026194E+01  0.14686410791E+02 -0.22991076507E+01  0.15293433250E+02  0.51100000000E-03 0. -1.
        -11    1    3    3    0    0 -0.18968938510E+01  0.88330969167E+01 -0.15074802240E+01  0.91593834022E+01  0.51100000000E-03 0.  1.
        -12    1    3    3    0    0  0.31656815142E+02 -0.11058107479E+02 -0.94881097856E+01  0.34849102044E+02  0.00000000000E+00 0.  1.
</event>
<event>
 7    1  0.3802554E-013  0.5930206E+02  0.7816164E-02  0.1266604E+00
        -11   -1    0    0    0    0  0.00000000000E+00  0.00000000000E+00  0.45593999997E+02  0.45594000000E+02  0.51100000000E-03 0.  1.
         11   -1    0    0    0    0 -0.00000000000E+00 -0.00000000000E+00 -0.45593999997E+02  0.45594000000E+02  0.51100000000E-03 0. -1.
    9900012    2    1    2    0    0  0.31596666394E+02 -0.42812372244E+01  0.18636578785E+00  0.59302061852E+02  0.50000214883E+02 0.  0.
        -12    1    1    2    0    0 -0.31596666394E+02  0.42812372244E+01 -0.18636578785E+00  0.31885938148E+02  0.00000000000E+00 0.  1.
         11    1    3    3    0    0  0.95658561366E+01 -0.18022474990E+02 -0.49598959556E+01  0.20997994583E+02  0.51100000000E-03 0. -1.
        -11    1    3    3    0    0  0.18597438186E+02 -0.27366417995E+01  0.92925063815E+01  0.20969134234E+02  0.51100000000E-03 0.  1.
         12    1    3    3    0    0  0.34333720712E+01  0.16477879565E+02 -0.41462446381E+01  0.17334933035E+02  0.00000000000E+00 0. -1.
</event>
<event>
 7    1  0.3802554E-013  0.5930197E+02  0.7816164E-02  0.1266605E+00
        -11   -1    0    0    0    0  0.00000000000E+00  0.00000000000E+00  0.45593999997E+02  0.45594000000E+02  0.51100000000E-03 0.  1.
         11   -1    0    0    0    0 -0.00000000000E+00 -0.00000000000E+00 -0.45593999997E+02  0.45594000000E+02  0.51100000000E-03 0. -1.
    9900012    2    1    2    0    0  0.53724614020E+01  0.27918658188E+02 -0.14436217820E+02  0.59301965416E+02  0.50000039007E+02 0.  0.
        -12    1    1    2    0    0 -0.53724614020E+01 -0.27918658188E+02  0.14436217820E+02  0.31886034584E+02  0.00000000000E+00 0.  1.
         11    1    3    3    0    0  0.88337933763E+01  0.23639154787E+02  0.66276765287E+00  0.25244500504E+02  0.51100000000E-03 0. -1.
        -11    1    3    3    0    0  0.10270067789E+02  0.11049179182E+02 -0.90822431408E+01  0.17608117268E+02  0.51100000000E-03 0.  1.
        -12    1    3    3    0    0 -0.13731399763E+02 -0.67696757812E+01 -0.60167423321E+01  0.16449347645E+02  0.00000000000E+00 0.  1.
</event>
<event>
 7    1  0.3802554E-013  0.5930176E+02  0.7816164E-02  0.1266605E+00
        -11   -1    0    0    0    0  0.00000000000E+00  0.00000000000E+00  0.45593999997E+02  0.45594000000E+02  0.51100000000E-03 0.  1.
         11   -1    0    0    0    0 -0.00000000000E+00 -0.00000000000E+00 -0.45593999997E+02  0.45594000000E+02  0.51100000000E-03 0. -1.
    9900012    2    1    2    0    0 -0.23476123047E+02 -0.15390524597E+02 -0.15124006225E+02  0.59301762138E+02  0.49999668277E+02 0.  0.
        -12    1    1    2    0    0  0.23476123047E+02  0.15390524597E+02  0.15124006225E+02  0.31886237862E+02  0.00000000000E+00 0.  1.
         11    1    3    3    0    0 -0.41340599796E+01 -0.11672426716E+02  0.43850144504E+01  0.13136375046E+02  0.51100000000E-03 0. -1.
        -11    1    3    3    0    0  0.36228030974E+01  0.11594380287E+02  0.36573260891E+00  0.12152699993E+02  0.51100000000E-03 0.  1.
         12    1    3    3    0    0 -0.22964866165E+02 -0.15312478168E+02 -0.19874753284E+02  0.34012687099E+02  0.00000000000E+00 0. -1.
</event>
<event>
 7    1  0.3802554E-013  0.5930195E+02  0.7816164E-02  0.1266605E+00
        -11   -1    0    0    0    0  0.00000000000E+00  0.00000000000E+00  0.45593999997E+02  0.45594000000E+02  0.51100000000E-03 0.  1.
         11   -1    0    0    0    0 -0.00000000000E+00 -0.00000000000E+00 -0.45593999997E+02  0.45594000000E+02  0.51100000000E-03 0. -1.
    9900012    2    1    2    0    0 -0.49049850302E+01 -0.21747472569E+02 -0.22797127778E+02  0.59301945427E+02  0.50000002552E+02 0.  0.
        -12    1    1    2    0    0  0.49049850302E+01  0.21747472569E+02  0.22797127778E+02  0.31886054573E+02  0.00000000000E+00 0.  1.
         11    1    3    3    0    0 -0.10828762657E+01 -0.11218056531E+01  0.50122993019E+00  0.16377730716E+01  0.51100000000E-03 0. -1.
        -11    1    3    3    0    0 -0.20538322132E+02  0.16976052781E+01  0.10604766722E+01  0.20635628188E+02  0.51100000000E-03 0.  1.
         12    1    3    3    0    0  0.16716213368E+02 -0.22323272194E+02 -0.24358834381E+02  0.37028544168E+02  0.00000000000E+00 0. -1.
</event>
<event>
 7    1  0.3802554E-013  0.5930194E+02  0.7816164E-02  0.1266605E+00
        -11   -1    0    0    0    0  0.00000000000E+00  0.00000000000E+00  0.45593999997E+02  0.45594000000E+02  0.51100000000E-03 0. -1.
         11   -1    0    0    0    0 -0.00000000000E+00 -0.00000000000E+00 -0.45593999997E+02  0.45594000000E+02  0.51100000000E-03 0.  1.
    9900012    2    1    2    0    0 -0.64344002484E+01 -0.31131460058E+02 -0.24802106245E+01  0.59301941030E+02  0.49999994533E+02 0.  0.
        -12    1    1    2    0    0  0.64344002484E+01  0.31131460058E+02  0.24802106245E+01  0.31886058970E+02  0.00000000000E+00 0.  1.
         11    1    3    3    0    0  0.68409041229E+01 -0.12081045214E+02 -0.46111156227E+01  0.14629149334E+02  0.51100000000E-03 0.  1.
        -11    1    3    3    0    0 -0.37433834138E+01 -0.20723306641E+02  0.16909561521E+02  0.27007436543E+02  0.51100000000E-03 0. -1.
         12    1    3    3    0    0 -0.95319209575E+01  0.16728917969E+01 -0.14778656523E+02  0.17665355154E+02  0.00000000000E+00 0. -1.
</event>
<event>
 7    1  0.3802554E-013  0.5930193E+02  0.7816164E-02  0.1266605E+00
        -11   -1    0    0    0    0  0.00000000000E+00  0.00000000000E+00  0.45593999997E+02  0.45594000000E+02  0.51100000000E-03 0.  1.
         11   -1    0    0    0    0 -0.00000000000E+00 -0.00000000000E+00 -0.45593999997E+02  0.45594000000E+02  0.51100000000E-03 0. -1.
    9900012    2    1    2    0    0 -0.46030827672E+01 -0.18009019663E+02 -0.25907687876E+02  0.59301930137E+02  0.49999974667E+02 0.  0.
        -12    1    1    2    0    0  0.46030827672E+01  0.18009019663E+02  0.25907687876E+02  0.31886069863E+02  0.00000000000E+00 0.  1.
         11    1    3    3    0    0  0.29420614619E+01  0.14658209311E+02 -0.19873217246E+02  0.24868928200E+02  0.51100000000E-03 0.  1.
        -11    1    3    3    0    0 -0.14727882839E+01 -0.16108885316E+02 -0.41215848853E+01  0.16692895305E+02  0.51100000000E-03 0. -1.
        -12    1    3    3    0    0 -0.60723559452E+01 -0.16558343659E+02 -0.19128857454E+01  0.17740106632E+02  0.00000000000E+00 0.  1.
</event>
<event>
 7    1  0.3802554E-013  0.5930194E+02  0.7816164E-02  0.1266605E+00
        -11   -1    0    0    0    0  0.00000000000E+00  0.00000000000E+00  0.45593999997E+02  0.45594000000E+02  0.51100000000E-03 0.  1.
         11   -1    0    0    0    0 -0.00000000000E+00 -0.00000000000E+00 -0.45593999997E+02  0.45594000000E+02  0.51100000000E-03 0. -1.
    9900012    2    1    2    0    0  0.24579523225E+02 -0.11821156960E+02 -0.16517507533E+02  0.59301940837E+02  0.49999994181E+02 0.  0.
        -12    1    1    2    0    0 -0.24579523225E+02  0.11821156960E+02  0.16517507533E+02  0.31886059163E+02  0.00000000000E+00 0.  1.
         11    1    3    3    0    0  0.10152201550E+02 -0.15942971203E+02 -0.14036761514E+02  0.23543071192E+02  0.51100000000E-03 0. -1.
        -11    1    3    3    0    0 -0.68095939768E+01 -0.35437947525E+01  0.78057307267E+01  0.10947989944E+02  0.51100000000E-03 0.  1.
         12    1    3    3    0    0  0.21236915652E+02  0.76656089963E+01 -0.10286476745E+02  0.24810879701E+02  0.00000000000E+00 0. -1.
</event>
<event>
 7    1  0.3802554E-013  0.5930195E+02  0.7816164E-02  0.1266605E+00
        -11   -1    0    0    0    0  0.00000000000E+00  0.00000000000E+00  0.45593999997E+02  0.45594000000E+02  0.51100000000E-03 0.  1.
         11   -1    0    0    0    0 -0.00000000000E+00 -0.00000000000E+00 -0.45593999997E+02  0.45594000000E+02  0.51100000000E-03 0. -1.
    9900012    2    1    2    0    0  0.31221114989E+02 -0.41309936636E+01 -0.49896929204E+01  0.59301950303E+02  0.50000011445E+02 0.  0.
        -12    1    1    2    0    0 -0.31221114989E+02  0.41309936636E+01  0.49896929204E+01  0.31886049697E+02  0.00000000000E+00 0.  1.
         11    1    3    3    0    0 -0.25753878952E+01  0.40465654603E+01 -0.56296048144E+01  0.73959289791E+01  0.51100000000E-03 0. -1.
        -11    1    3    3    0    0  0.17545961401E+02  0.37473824274E+01  0.17918747252E+02  0.25357151652E+02  0.51100000000E-03 0.  1.
         12    1    3    3    0    0  0.16250541483E+02 -0.11924941551E+02 -0.17278835358E+02  0.26548869672E+02  0.00000000000E+00 0. -1.
</event>
<event>
 7    1  0.3802554E-013  0.5930196E+02  0.7816164E-02  0.1266605E+00
        -11   -1    0    0    0    0  0.00000000000E+00  0.00000000000E+00  0.45593999997E+02  0.45594000000E+02  0.51100000000E-03 0.  1.
         11   -1    0    0    0    0 -0.00000000000E+00 -0.00000000000E+00 -0.45593999997E+02  0.45594000000E+02  0.51100000000E-03 0. -1.
    9900012    2    1    2    0    0  0.65453216048E+01 -0.14589954412E+02 -0.27586439290E+02  0.59301958581E+02  0.50000026542E+02 0.  0.
        -12    1    1    2    0    0 -0.65453216048E+01  0.14589954412E+02  0.27586439290E+02  0.31886041419E+02  0.00000000000E+00 0.  1.
         11    1    3    3    0    0 -0.15444535594E+01 -0.13499193361E+01 -0.26991778154E+02  0.27069608552E+02  0.51100000000E-03 0. -1.
        -11    1    3    3    0    0 -0.48653081344E+01  0.62335833506E+01 -0.35299830592E+01  0.86596515687E+01  0.51100000000E-03 0.  1.
        -12    1    3    3    0    0  0.12955083299E+02 -0.19473618427E+02  0.29353219227E+01  0.23572698460E+02  0.00000000000E+00 0.  1.
</event>
<event>
 7    1  0.3802554E-013  0.5930194E+02  0.7816164E-02  0.1266605E+00
        -11   -1    0    0    0    0  0.00000000000E+00  0.00000000000E+00  0.45593999997E+02  0.45594000000E+02  0.51100000000E-03 0. -1.
         11   -1    0    0    0    0 -0.00000000000E+00 -0.00000000000E+00 -0.45593999997E+02  0.45594000000E+02  0.51100000000E-03 0.  1.
    9900012    2    1    2    0    0 -0.28892207597E+02 -0.89915519422E+01  0.10055512700E+02  0.59301937185E+02  0.49999987521E+02 0.  0.
        -12    1    1    2    0    0  0.28892207597E+02  0.89915519422E+01 -0.10055512700E+02  0.31886062815E+02  0.00000000000E+00 0.  1.
         11    1    3    3    0    0 -0.30588547229E+01  0.14888714621E+01  0.44143769957E+01  0.55731548487E+01  0.51100000000E-03 0. -1.
        -11    1    3    3    0    0  0.12683113188E+02  0.11754737353E+01  0.43732752713E+01  0.13467317309E+02  0.51100000000E-03 0.  1.
         12    1    3    3    0    0 -0.38516466062E+02 -0.11655897140E+02  0.12678604333E+01  0.40261465027E+02  0.00000000000E+00 0. -1.
</event>
<event>
 7    1  0.3802554E-013  0.5930203E+02  0.7816164E-02  0.1266604E+00
        -11   -1    0    0    0    0  0.00000000000E+00  0.00000000000E+00  0.45593999997E+02  0.45594000000E+02  0.51100000000E-03 0.  1.
         11   -1    0    0    0    0 -0.00000000000E+00 -0.00000000000E+00 -0.45593999997E+02  0.45594000000E+02  0.51100000000E-03 0. -1.
    9900012    2    1    2    0    0 -0.77422538706E+01  0.29516006206E+02 -0.92508505356E+01  0.59302025764E+02  0.50000149067E+02 0.  0.
        -12    1    1    2    0    0  0.77422538706E+01 -0.29516006206E+02  0.92508505356E+01  0.31885974236E+02  0.00000000000E+00 0.  1.
         11    1    3    3    0    0 -0.70983949172E+01 -0.14071372408E+01  0.39568188795E+01  0.82476458169E+01  0.51100000000E-03 0. -1.
        -11    1    3    3    0    0 -0.69789922320E+01  0.84665547666E+01  0.12301253728E+02  0.16483619922E+02  0.51100000000E-03 0.  1.
         12    1    3    3    0    0  0.63351332786E+01  0.22456588680E+02 -0.25508923143E+02  0.34570760025E+02  0.00000000000E+00 0. -1.
</event>
<event>
 7    1  0.3802554E-013  0.5930195E+02  0.7816164E-02  0.1266605E+00
        -11   -1    0    0    0    0  0.00000000000E+00  0.00000000000E+00  0.45593999997E+02  0.45594000000E+02  0.51100000000E-03 0.  1.
         11   -1    0    0    0    0 -0.00000000000E+00 -0.00000000000E+00 -0.45593999997E+02  0.45594000000E+02  0.51100000000E-03 0. -1.
    9900012    2    1    2    0    0  0.17633045670E+02  0.25531003658E+02  0.73459931062E+01  0.59301951921E+02  0.50000014396E+02 0.  0.
        -12    1    1    2    0    0 -0.17633045670E+02 -0.25531003658E+02 -0.73459931062E+01  0.31886048079E+02  0.00000000000E+00 0.  1.
         11    1    3    3    0    0 -0.46635244819E+00  0.33255407509E+01 -0.13614664753E+02  0.14022688846E+02  0.51100000000E-03 0. -1.
        -11    1    3    3    0    0  0.23142876367E+01 -0.29898512572E+01 -0.46813567143E+01  0.60174943916E+01  0.51100000000E-03 0.  1.
        -12    1    3    3    0    0  0.15785110481E+02  0.25195314164E+02  0.25642014573E+02  0.39261768683E+02  0.00000000000E+00 0.  1.
</event>
<event>
 7    1  0.3802554E-013  0.5930184E+02  0.7816164E-02  0.1266605E+00
        -11   -1    0    0    0    0  0.00000000000E+00  0.00000000000E+00  0.45593999997E+02  0.45594000000E+02  0.51100000000E-03 0. -1.
         11   -1    0    0    0    0 -0.00000000000E+00 -0.00000000000E+00 -0.45593999997E+02  0.45594000000E+02  0.51100000000E-03 0.  1.
    9900012    2    1    2    0    0 -0.15052842121E+02  0.19538464973E+02  0.20208601796E+02  0.59301839116E+02  0.49999808665E+02 0.  0.
        -12    1    1    2    0    0  0.15052842121E+02 -0.19538464973E+02 -0.20208601796E+02  0.31886160884E+02  0.00000000000E+00 0.  1.
         11    1    3    3    0    0  0.12200581959E+01  0.10491382110E+02  0.20758464569E+01  0.10764143224E+02  0.51100000000E-03 0. -1.
        -11    1    3    3    0    0 -0.48884978396E+01 -0.55376513976E+01 -0.11461659664E+02  0.13635711813E+02  0.51100000000E-03 0.  1.
        -12    1    3    3    0    0 -0.11384402477E+02  0.14584734260E+02  0.29594415003E+02  0.34901984078E+02  0.00000000000E+00 0.  1.
</event>
<event>
 7    1  0.3802554E-013  0.5930194E+02  0.7816164E-02  0.1266605E+00
        -11   -1    0    0    0    0  0.00000000000E+00  0.00000000000E+00  0.45593999997E+02  0.45594000000E+02  0.51100000000E-03 0.  1.
         11   -1    0    0    0    0 -0.00000000000E+00 -0.00000000000E+00 -0.45593999997E+02  0.45594000000E+02  0.51100000000E-03 0. -1.
    9900012    2    1    2    0    0 -0.13514771968E+02 -0.31858541688E+01 -0.28704038571E+02  0.59301944138E+02  0.50000000201E+02 0.  0.
        -12    1    1    2    0    0  0.13514771968E+02  0.31858541688E+01  0.28704038571E+02  0.31886055862E+02  0.00000000000E+00 0.  1.
         11    1    3    3    0    0  0.11979453808E+02  0.59789300264E+00 -0.12912929787E+02  0.17624089921E+02  0.51100000000E-03 0. -1.
        -11    1    3    3    0    0  0.39082217514E+01  0.63594466487E+01 -0.28423216373E+01  0.79872117467E+01  0.51100000000E-03 0.  1.
        -12    1    3    3    0    0 -0.29402447528E+02 -0.10143193820E+02 -0.12948787147E+02  0.33690642470E+02  0.00000000000E+00 0.  1.
</event>
<event>
 7    1  0.3802554E-013  0.5930181E+02  0.7816164E-02  0.1266605E+00
        -11   -1    0    0    0    0  0.00000000000E+00  0.00000000000E+00  0.45593999997E+02  0.45594000000E+02  0.51100000000E-03 0.  1.
         11   -1    0    0    0    0 -0.00000000000E+00 -0.00000000000E+00 -0.45593999997E+02  0.45594000000E+02  0.51100000000E-03 0. -1.
    9900012    2    1    2    0    0  0.79606123690E+00  0.98848101132E+01 -0.30304879935E+02  0.59301812828E+02  0.49999760723E+02 0.  0.
        -12    1    1    2    0    0 -0.79606123690E+00 -0.98848101132E+01  0.30304879935E+02  0.31886187172E+02  0.00000000000E+00 0.  1.
         11    1    3    3    0    0  0.58919027447E+01  0.17790994566E+02 -0.18563291297E+02  0.26378585815E+02  0.51100000000E-03 0. -1.
        -11    1    3    3    0    0 -0.41581700900E+01 -0.35337404488E+01 -0.21503876338E+02  0.22185454647E+02  0.51100000000E-03 0.  1.
        -12    1    3    3    0    0 -0.93767141780E+00 -0.43724440036E+01  0.97622876998E+01  0.10737772366E+02  0.00000000000E+00 0.  1.
</event>
<event>
 7    1  0.3802554E-013  0.5930194E+02  0.7816164E-02  0.1266605E+00
        -11   -1    0    0    0    0  0.00000000000E+00  0.00000000000E+00  0.45593999997E+02  0.45594000000E+02  0.51100000000E-03 0.  1.
         11   -1    0    0    0    0 -0.00000000000E+00 -0.00000000000E+00 -0.45593999997E+02  0.45594000000E+02  0.51100000000E-03 0. -1.
    9900012    2    1    2    0    0  0.24856128436E+02  0.86204263756E+01  0.18016153683E+02  0.59301942463E+02  0.49999997147E+02 0.  0.
        -12    1    1    2    0    0 -0.24856128436E+02 -0.86204263756E+01 -0.18016153683E+02  0.31886057537E+02  0.00000000000E+00 0.  1.
         11    1    3    3    0    0 -0.51629723207E+01  0.11514181997E+02  0.13248238462E+02  0.18296133276E+02  0.51100000000E-03 0. -1.
        -11    1    3    3    0    0 -0.30101393889E+01 -0.67487831815E+01 -0.14692308095E+00  0.73911163044E+01  0.51100000000E-03 0.  1.
         12    1    3    3    0    0  0.33029240146E+02  0.38550275604E+01  0.49148383013E+01  0.33614692883E+02  0.00000000000E+00 0. -1.
</event>
<event>
 7    1  0.3802554E-013  0.5930192E+02  0.7816164E-02  0.1266605E+00
        -11   -1    0    0    0    0  0.00000000000E+00  0.00000000000E+00  0.45593999997E+02  0.45594000000E+02  0.51100000000E-03 0. -1.
         11   -1    0    0    0    0 -0.00000000000E+00 -0.00000000000E+00 -0.45593999997E+02  0.45594000000E+02  0.51100000000E-03 0.  1.
    9900012    2    1    2    0    0  0.22551913119E+02  0.17805981582E+02  0.13823172980E+02  0.59301923467E+02  0.49999962502E+02 0.  0.
        -12    1    1    2    0    0 -0.22551913119E+02 -0.17805981582E+02 -0.13823172980E+02  0.31886076533E+02  0.00000000000E+00 0.  1.
         11    1    3    3    0    0  0.85304706129E+01  0.58294171792E+01 -0.65069676858E+00  0.10352508878E+02  0.51100000000E-03 0. -1.
        -11    1    3    3    0    0  0.13332142375E+02  0.19038272241E+01  0.28584847305E+02  0.31598482149E+02  0.51100000000E-03 0.  1.
        -12    1    3    3    0    0  0.68930013158E+00  0.10072737179E+02 -0.14110977556E+02  0.17350932440E+02  0.00000000000E+00 0.  1.
</event>
<event>
 7    1  0.3802554E-013  0.5930196E+02  0.7816164E-02  0.1266605E+00
        -11   -1    0    0    0    0  0.00000000000E+00  0.00000000000E+00  0.45593999997E+02  0.45594000000E+02  0.51100000000E-03 0.  1.
         11   -1    0    0    0    0 -0.00000000000E+00 -0.00000000000E+00 -0.45593999997E+02  0.45594000000E+02  0.51100000000E-03 0. -1.
    9900012    2    1    2    0    0 -0.27380437275E+02 -0.16055249828E+02 -0.30430255985E+01  0.59301962347E+02  0.50000033411E+02 0.  0.
        -12    1    1    2    0    0  0.27380437275E+02  0.16055249828E+02  0.30430255985E+01  0.31886037653E+02  0.00000000000E+00 0.  1.
         11    1    3    3    0    0 -0.28038986827E+02  0.14692917592E+01  0.37576395283E+00  0.28079971499E+02  0.51100000000E-03 0. -1.
        -11    1    3    3    0    0 -0.12371789642E+02 -0.97269769447E+01 -0.30604387545E+01  0.16032515244E+02  0.51100000000E-03 0.  1.
        -12    1    3    3    0    0  0.13030339194E+02 -0.77975646424E+01 -0.35835079689E+00  0.15189475605E+02  0.00000000000E+00 0.  1.
</event>
<event>
 7    1  0.3802554E-013  0.5930195E+02  0.7816164E-02  0.1266605E+00
        -11   -1    0    0    0    0  0.00000000000E+00  0.00000000000E+00  0.45593999997E+02  0.45594000000E+02  0.51100000000E-03 0. -1.
         11   -1    0    0    0    0 -0.00000000000E+00 -0.00000000000E+00 -0.45593999997E+02  0.45594000000E+02  0.51100000000E-03 0.  1.
    9900012    2    1    2    0    0 -0.16329054580E+02  0.27382675427E+02 -0.52090602402E+00  0.59301948502E+02  0.50000008161E+02 0.  0.
        -12    1    1    2    0    0  0.16329054580E+02 -0.27382675427E+02  0.52090602402E+00  0.31886051498E+02  0.00000000000E+00 0.  1.
         11    1    3    3    0    0 -0.97783808749E-01  0.17754224481E+02 -0.41217148938E+01  0.18226644851E+02  0.51100000000E-03 0. -1.
        -11    1    3    3    0    0 -0.25851329108E+02  0.14351492317E+02 -0.57537552901E+00  0.29573427357E+02  0.51100000000E-03 0.  1.
         12    1    3    3    0    0  0.96200583361E+01 -0.47230413703E+01  0.41761843988E+01  0.11501876295E+02  0.00000000000E+00 0. -1.
</event>
<event>
 7    1  0.3802554E-013  0.5930166E+02  0.7816164E-02  0.1266606E+00
        -11   -1    0    0    0    0  0.00000000000E+00  0.00000000000E+00  0.45593999997E+02  0.45594000000E+02  0.51100000000E-03 0.  1.
         11   -1    0    0    0    0 -0.00000000000E+00 -0.00000000000E+00 -0.45593999997E+02  0.45594000000E+02  0.51100000000E-03 0. -1.
    9900012    2    1    2    0    0 -0.84762419466E+01  0.81973934277E+01 -0.29625912348E+02  0.59301660935E+02  0.49999483704E+02 0.  0.
        -12    1    1    2    0    0  0.84762419466E+01 -0.81973934277E+01  0.29625912348E+02  0.31886339065E+02  0.00000000000E+00 0.  1.
         11    1    3    3    0    0 -0.11313302953E+02  0.17925522578E+01 -0.36277897780E+02  0.38043263988E+02  0.51100000000E-03 0. -1.
        -11    1    3    3    0    0 -0.40345140224E+01 -0.50874869108E+01  0.46954076463E+00  0.65100149965E+01  0.51100000000E-03 0.  1.
        -12    1    3    3    0    0  0.68715750284E+01  0.11492328081E+02  0.61824446676E+01  0.14748381950E+02  0.00000000000E+00 0.  1.
</event>
<event>
 7    1  0.3802554E-013  0.5930193E+02  0.7816164E-02  0.1266605E+00
        -11   -1    0    0    0    0  0.00000000000E+00  0.00000000000E+00  0.45593999997E+02  0.45594000000E+02  0.51100000000E-03 0.  1.
         11   -1    0    0    0    0 -0.00000000000E+00 -0.00000000000E+00 -0.45593999997E+02  0.45594000000E+02  0.51100000000E-03 0. -1.
    9900012    2    1    2    0    0 -0.20424612286E+02 -0.17049818209E+01 -0.24426418664E+02  0.59301926570E+02  0.49999968161E+02 0.  0.
        -12    1    1    2    0    0  0.20424612286E+02  0.17049818209E+01  0.24426418664E+02  0.31886073430E+02  0.00000000000E+00 0.  1.
         11    1    3    3    0    0 -0.16143162587E+02  0.51230623076E+00 -0.12456799004E+02  0.20396960501E+02  0.51100000000E-03 0. -1.
        -11    1    3    3    0    0 -0.19359640394E+02 -0.71651369526E+01 -0.99234018161E+01  0.22904339492E+02  0.51100000000E-03 0.  1.
        -12    1    3    3    0    0  0.15078190695E+02  0.49478489009E+01 -0.20462178446E+01  0.16000626577E+02  0.00000000000E+00 0.  1.
</event>
<event>
 7    1  0.3802554E-013  0.5930193E+02  0.7816164E-02  0.1266605E+00
        -11   -1    0    0    0    0  0.00000000000E+00  0.00000000000E+00  0.45593999997E+02  0.45594000000E+02  0.51100000000E-03 0. -1.
         11   -1    0    0    0    0 -0.00000000000E+00 -0.00000000000E+00 -0.45593999997E+02  0.45594000000E+02  0.51100000000E-03 0.  1.
    9900012    2    1    2    0    0  0.24410663873E+02  0.11978031888E+02  0.16654358477E+02  0.59301930708E+02  0.49999975708E+02 0.  0.
        -12    1    1    2    0    0 -0.24410663873E+02 -0.11978031888E+02 -0.16654358477E+02  0.31886069292E+02  0.00000000000E+00 0.  1.
         11    1    3    3    0    0 -0.78776969998E+01  0.54445475070E+01 -0.10638319193E+02  0.14313456714E+02  0.51100000000E-03 0.  1.
        -11    1    3    3    0    0  0.17889414225E+02  0.52256431002E+01  0.66537521449E+01  0.19789161301E+02  0.51100000000E-03 0. -1.
        -12    1    3    3    0    0  0.14398946648E+02  0.13078412807E+01  0.20638925525E+02  0.25199312693E+02  0.00000000000E+00 0.  1.
</event>
<event>
 7    1  0.3802554E-013  0.5930210E+02  0.7816164E-02  0.1266604E+00
        -11   -1    0    0    0    0  0.00000000000E+00  0.00000000000E+00  0.45593999997E+02  0.45594000000E+02  0.51100000000E-03 0.  1.
         11   -1    0    0    0    0 -0.00000000000E+00 -0.00000000000E+00 -0.45593999997E+02  0.45594000000E+02  0.51100000000E-03 0. -1.
    9900012    2    1    2    0    0  0.91998202172E+01  0.29259005558E+01 -0.30389352676E+02  0.59302104339E+02  0.50000292368E+02 0.  0.
        -12    1    1    2    0    0 -0.91998202172E+01 -0.29259005558E+01  0.30389352676E+02  0.31885895661E+02  0.00000000000E+00 0.  1.
         11    1    3    3    0    0 -0.90012897481E+01 -0.55553810282E+01 -0.71788908644E+01  0.12783659484E+02  0.51100000000E-03 0. -1.
        -11    1    3    3    0    0 -0.21612031738E+01 -0.91175372519E+01 -0.16187069997E+02  0.18703516248E+02  0.51100000000E-03 0.  1.
        -12    1    3    3    0    0  0.20362313139E+02  0.17598818836E+02 -0.70233918138E+01  0.27814928606E+02  0.00000000000E+00 0.  1.
</event>
<event>
 7    1  0.3802554E-013  0.5930184E+02  0.7816164E-02  0.1266605E+00
        -11   -1    0    0    0    0  0.00000000000E+00  0.00000000000E+00  0.45593999997E+02  0.45594000000E+02  0.51100000000E-03 0.  1.
         11   -1    0    0    0    0 -0.00000000000E+00 -0.00000000000E+00 -0.45593999997E+02  0.45594000000E+02  0.51100000000E-03 0. -1.
    9900012    2    1    2    0    0 -0.23423945849E+02  0.21526925284E+02 -0.21534317864E+01  0.59301842819E+02  0.49999815419E+02 0.  0.
        -12    1    1    2    0    0  0.23423945849E+02 -0.21526925284E+02  0.21534317864E+01  0.31886157181E+02  0.00000000000E+00 0.  1.
         11    1    3    3    0    0 -0.11145392153E+01  0.36134922864E+01 -0.95324399879E+01  0.10255093200E+02  0.51100000000E-03 0. -1.
        -11    1    3    3    0    0  0.67745020775E+01 -0.69697871878E+01 -0.12799789847E+01  0.98035788518E+01  0.51100000000E-03 0.  1.
         12    1    3    3    0    0 -0.29083908711E+02  0.24883220185E+02  0.86589871862E+01  0.39243170767E+02  0.00000000000E+00 0. -1.
</event>
<event>
 7    1  0.3802554E-013  0.5930195E+02  0.7816164E-02  0.1266605E+00
        -11   -1    0    0    0    0  0.00000000000E+00  0.00000000000E+00  0.45593999997E+02  0.45594000000E+02  0.51100000000E-03 0.  1.
         11   -1    0    0    0    0 -0.00000000000E+00 -0.00000000000E+00 -0.45593999997E+02  0.45594000000E+02  0.51100000000E-03 0. -1.
    9900012    2    1    2    0    0  0.76852407097E+01  0.23895347121E+02 -0.19663923153E+02  0.59301946426E+02  0.50000004373E+02 0.  0.
        -12    1    1    2    0    0 -0.76852407097E+01 -0.23895347121E+02  0.19663923153E+02  0.31886053574E+02  0.00000000000E+00 0.  1.
         11    1    3    3    0    0  0.67300405178E+01 -0.45410885224E+01 -0.13657786901E+02  0.15888677529E+02  0.51100000000E-03 0.  1.
        -11    1    3    3    0    0 -0.20379741138E+01  0.17677344563E+02 -0.19166369200E+02  0.26153232265E+02  0.51100000000E-03 0. -1.
         12    1    3    3    0    0  0.29931743057E+01  0.10759091080E+02  0.13160232948E+02  0.17260036632E+02  0.00000000000E+00 0. -1.
</event>
<event>
 7    1  0.3802554E-013  0.5930194E+02  0.7816164E-02  0.1266605E+00
        -11   -1    0    0    0    0  0.00000000000E+00  0.00000000000E+00  0.45593999997E+02  0.45594000000E+02  0.51100000000E-03 0. -1.
         11   -1    0    0    0    0 -0.00000000000E+00 -0.00000000000E+00 -0.45593999997E+02  0.45594000000E+02  0.51100000000E-03 0.  1.
    9900012    2    1    2    0    0  0.19980583457E+02 -0.16208400064E+02  0.18835742116E+02  0.59301935192E+02  0.49999983885E+02 0.  0.
        -12    1    1    2    0    0 -0.19980583457E+02  0.16208400064E+02 -0.18835742116E+02  0.31886064808E+02  0.00000000000E+00 0.  1.
         11    1    3    3    0    0 -0.19737374652E+01 -0.39481897025E+01 -0.23990555965E+01  0.50238739558E+01  0.51100000000E-03 0.  1.
        -11    1    3    3    0    0 -0.10973601413E+02 -0.41859335710E+01  0.16189867087E+02  0.20001344065E+02  0.51100000000E-03 0. -1.
         12    1    3    3    0    0  0.32927922335E+02 -0.80742767901E+01  0.50449306249E+01  0.34276717171E+02  0.00000000000E+00 0. -1.
</event>
<event>
 7    1  0.3802554E-013  0.5930198E+02  0.7816164E-02  0.1266605E+00
        -11   -1    0    0    0    0  0.00000000000E+00  0.00000000000E+00  0.45593999997E+02  0.45594000000E+02  0.51100000000E-03 0. -1.
         11   -1    0    0    0    0 -0.00000000000E+00 -0.00000000000E+00 -0.45593999997E+02  0.45594000000E+02  0.51100000000E-03 0.  1.
    9900012    2    1    2    0    0 -0.31619927418E+02  0.41071477070E+01  0.17232776029E+00  0.59301981605E+02  0.50000068533E+02 0.  0.
        -12    1    1    2    0    0  0.31619927418E+02 -0.41071477070E+01 -0.17232776029E+00  0.31886018395E+02  0.00000000000E+00 0.  1.
         11    1    3    3    0    0 -0.33211872637E+02 -0.85605464153E+01 -0.50765696175E+01  0.34671068607E+02  0.51100000000E-03 0. -1.
        -11    1    3    3    0    0  0.46711187247E+01 -0.43747923500E+01  0.33075313008E+01  0.72040212252E+01  0.51100000000E-03 0.  1.
         12    1    3    3    0    0 -0.30791735056E+01  0.17042486472E+02  0.19413660770E+01  0.17426891773E+02  0.00000000000E+00 0. -1.
</event>
<event>
 7    1  0.3802554E-013  0.5930193E+02  0.7816164E-02  0.1266605E+00
        -11   -1    0    0    0    0  0.00000000000E+00  0.00000000000E+00  0.45593999997E+02  0.45594000000E+02  0.51100000000E-03 0.  1.
         11   -1    0    0    0    0 -0.00000000000E+00 -0.00000000000E+00 -0.45593999997E+02  0.45594000000E+02  0.51100000000E-03 0. -1.
    9900012    2    1    2    0    0 -0.19649411289E+02 -0.24965843799E+02 -0.27072090046E+01  0.59301926219E+02  0.49999967521E+02 0.  0.
        -12    1    1    2    0    0  0.19649411289E+02  0.24965843799E+02  0.27072090046E+01  0.31886073781E+02  0.00000000000E+00 0.  1.
         11    1    3    3    0    0 -0.11486034050E+01  0.85060576228E+00 -0.48611338845E+00  0.15096775922E+01  0.51100000000E-03 0. -1.
        -11    1    3    3    0    0 -0.94477179056E+01 -0.95906726931E+01  0.22889380652E+02  0.26554926534E+02  0.51100000000E-03 0.  1.
         12    1    3    3    0    0 -0.90530899780E+01 -0.16225776868E+02 -0.25110476268E+02  0.31237322093E+02  0.00000000000E+00 0. -1.
</event>
<event>
 7    1  0.3802554E-013  0.5930191E+02  0.7816164E-02  0.1266605E+00
        -11   -1    0    0    0    0  0.00000000000E+00  0.00000000000E+00  0.45593999997E+02  0.45594000000E+02  0.51100000000E-03 0.  1.
         11   -1    0    0    0    0 -0.00000000000E+00 -0.00000000000E+00 -0.45593999997E+02  0.45594000000E+02  0.51100000000E-03 0. -1.
    9900012    2    1    2    0    0  0.94502057733E+01 -0.26688396158E+02 -0.14667842832E+02  0.59301913818E+02  0.49999944905E+02 0.  0.
        -12    1    1    2    0    0 -0.94502057733E+01  0.26688396158E+02  0.14667842832E+02  0.31886086182E+02  0.00000000000E+00 0.  1.
         11    1    3    3    0    0  0.16488521209E+02 -0.23000101374E+02 -0.15530350626E+00  0.28300178698E+02  0.51100000000E-03 0. -1.
        -11    1    3    3    0    0  0.18008180360E+01 -0.10884039286E+02  0.17220807569E+01  0.11165608768E+02  0.51100000000E-03 0.  1.
        -12    1    3    3    0    0 -0.88391334715E+01  0.71957445017E+01 -0.16234620082E+02  0.19836126353E+02  0.00000000000E+00 0.  1.
</event>
<event>
 7    1  0.3802554E-013  0.5930184E+02  0.7816164E-02  0.1266605E+00
        -11   -1    0    0    0    0  0.00000000000E+00  0.00000000000E+00  0.45593999997E+02  0.45594000000E+02  0.51100000000E-03 0. -1.
         11   -1    0    0    0    0 -0.00000000000E+00 -0.00000000000E+00 -0.45593999997E+02  0.45594000000E+02  0.51100000000E-03 0.  1.
    9900012    2    1    2    0    0 -0.20802051258E+02  0.91472111466E+01  0.22368065438E+02  0.59301840624E+02  0.49999811417E+02 0.  0.
        -12    1    1    2    0    0  0.20802051258E+02 -0.91472111466E+01 -0.22368065438E+02  0.31886159376E+02  0.00000000000E+00 0.  1.
         11    1    3    3    0    0  0.10517896350E+02  0.15993010281E+02  0.82568148792E+01  0.20846522820E+02  0.51100000000E-03 0.  1.
        -11    1    3    3    0    0 -0.12811982301E+02 -0.46506106423E+01  0.14383475209E+02  0.19815635977E+02  0.51100000000E-03 0. -1.
        -12    1    3    3    0    0 -0.18507965308E+02 -0.21951884925E+01 -0.27222465040E+00  0.18639681827E+02  0.00000000000E+00 0.  1.
</event>
<event>
 7    1  0.3802554E-013  0.5930195E+02  0.7816164E-02  0.1266605E+00
        -11   -1    0    0    0    0  0.00000000000E+00  0.00000000000E+00  0.45593999997E+02  0.45594000000E+02  0.51100000000E-03 0.  1.
         11   -1    0    0    0    0 -0.00000000000E+00 -0.00000000000E+00 -0.45593999997E+02  0.45594000000E+02  0.51100000000E-03 0. -1.
    9900012    2    1    2    0    0 -0.15355433880E+02 -0.11950982018E+02 -0.25260732039E+02  0.59301954400E+02  0.50000018917E+02 0.  0.
        -12    1    1    2    0    0  0.15355433880E+02  0.11950982018E+02  0.25260732039E+02  0.31886045600E+02  0.00000000000E+00 0.  1.
         11    1    3    3    0    0  0.37645982634E+01 -0.33951914491E+01 -0.11370191267E+02  0.12449127470E+02  0.51100000000E-03 0. -1.
        -11    1    3    3    0    0 -0.14930659449E+02 -0.24058238993E+02 -0.59281578915E+01  0.28928645168E+02  0.51100000000E-03 0.  1.
        -12    1    3    3    0    0 -0.41893726949E+01  0.15502448424E+02 -0.79623828802E+01  0.17924181762E+02  0.00000000000E+00 0.  1.
</event>
<event>
 7    1  0.3802554E-013  0.5930195E+02  0.7816164E-02  0.1266605E+00
        -11   -1    0    0    0    0  0.00000000000E+00  0.00000000000E+00  0.45593999997E+02  0.45594000000E+02  0.51100000000E-03 0. -1.
         11   -1    0    0    0    0 -0.00000000000E+00 -0.00000000000E+00 -0.45593999997E+02  0.45594000000E+02  0.51100000000E-03 0.  1.
    9900012    2    1    2    0    0 -0.23935075440E+02  0.20274666771E+02  0.57245206747E+01  0.59301951547E+02  0.50000013713E+02 0.  0.
        -12    1    1    2    0    0  0.23935075440E+02 -0.20274666771E+02 -0.57245206747E+01  0.31886048453E+02  0.00000000000E+00 0.  1.
         11    1    3    3    0    0 -0.11139745626E+02  0.55925966380E+01  0.49947353865E+01  0.13428270611E+02  0.51100000000E-03 0. -1.
        -11    1    3    3    0    0 -0.99729399449E+01  0.26152980830E+02 -0.10189611343E+02  0.29787012556E+02  0.51100000000E-03 0.  1.
        -12    1    3    3    0    0 -0.28223898692E+01 -0.11470910696E+02  0.10919396631E+02  0.16086668380E+02  0.00000000000E+00 0.  1.
</event>
<event>
 7    1  0.3802554E-013  0.5930196E+02  0.7816164E-02  0.1266605E+00
        -11   -1    0    0    0    0  0.00000000000E+00  0.00000000000E+00  0.45593999997E+02  0.45594000000E+02  0.51100000000E-03 0.  1.
         11   -1    0    0    0    0 -0.00000000000E+00 -0.00000000000E+00 -0.45593999997E+02  0.45594000000E+02  0.51100000000E-03 0. -1.
    9900012    2    1    2    0    0  0.11214671626E+02  0.29192363262E+02 -0.62254999152E+01  0.59301956318E+02  0.50000022414E+02 0.  0.
        -12    1    1    2    0    0 -0.11214671626E+02 -0.29192363262E+02  0.62254999152E+01  0.31886043682E+02  0.00000000000E+00 0.  1.
         11    1    3    3    0    0  0.11027957909E+02 -0.35555634655E+01 -0.20280061032E+01  0.11763107422E+02  0.51100000000E-03 0.  1.
        -11    1    3    3    0    0 -0.39162363737E+01  0.26976904817E+02 -0.17553117795E+02  0.32422249234E+02  0.51100000000E-03 0. -1.
         12    1    3    3    0    0  0.41029500901E+01  0.57710219109E+01  0.13355623983E+02  0.15116599661E+02  0.00000000000E+00 0. -1.
</event>
<event>
 7    1  0.3802554E-013  0.5930193E+02  0.7816164E-02  0.1266605E+00
        -11   -1    0    0    0    0  0.00000000000E+00  0.00000000000E+00  0.45593999997E+02  0.45594000000E+02  0.51100000000E-03 0.  1.
         11   -1    0    0    0    0 -0.00000000000E+00 -0.00000000000E+00 -0.45593999997E+02  0.45594000000E+02  0.51100000000E-03 0. -1.
    9900012    2    1    2    0    0  0.27392476462E+02 -0.31666455980E+01 -0.16010811459E+02  0.59301929457E+02  0.49999973427E+02 0.  0.
        -12    1    1    2    0    0 -0.27392476462E+02  0.31666455980E+01  0.16010811459E+02  0.31886070543E+02  0.00000000000E+00 0.  1.
         11    1    3    3    0    0  0.10159326385E+02 -0.17482193589E+02 -0.36442074755E+01  0.20545540968E+02  0.51100000000E-03 0. -1.
        -11    1    3    3    0    0  0.70846471743E+01  0.23794853145E+00  0.88547138509E+01  0.11342610049E+02  0.51100000000E-03 0.  1.
         12    1    3    3    0    0  0.10148502903E+02  0.14077599459E+02 -0.21221317835E+02  0.27413778440E+02  0.00000000000E+00 0. -1.
</event>
<event>
 7    1  0.3802554E-013  0.5930195E+02  0.7816164E-02  0.1266605E+00
        -11   -1    0    0    0    0  0.00000000000E+00  0.00000000000E+00  0.45593999997E+02  0.45594000000E+02  0.51100000000E-03 0. -1.
         11   -1    0    0    0    0 -0.00000000000E+00 -0.00000000000E+00 -0.45593999997E+02  0.45594000000E+02  0.51100000000E-03 0.  1.
    9900012    2    1    2    0    0  0.22907779536E+02 -0.50880573248E+01  0.21588556878E+02  0.59301945389E+02  0.50000002483E+02 0.  0.
        -12    1    1    2    0    0 -0.22907779536E+02  0.50880573248E+01 -0.21588556878E+02  0.31886054611E+02  0.00000000000E+00 0.  1.
         11    1    3    3    0    0 -0.85068971776E+01 -0.70115706830E+01 -0.45896650512E+01  0.11941291747E+02  0.51100000000E-03 0. -1.
        -11    1    3    3    0    0 -0.39089029235E+01 -0.60558482255E+00  0.36924574537E+01  0.54111456597E+01  0.51100000000E-03 0.  1.
         12    1    3    3    0    0  0.35323579637E+02  0.25290981808E+01  0.22485764475E+02  0.41949507983E+02  0.00000000000E+00 0. -1.
</event>
<event>
 7    1  0.3802554E-013  0.5930192E+02  0.7816164E-02  0.1266605E+00
        -11   -1    0    0    0    0  0.00000000000E+00  0.00000000000E+00  0.45593999997E+02  0.45594000000E+02  0.51100000000E-03 0. -1.
         11   -1    0    0    0    0 -0.00000000000E+00 -0.00000000000E+00 -0.45593999997E+02  0.45594000000E+02  0.51100000000E-03 0.  1.
    9900012    2    1    2    0    0  0.30406741066E+02  0.45684368356E+01  0.84428262319E+01  0.59301924165E+02  0.49999963775E+02 0.  0.
        -12    1    1    2    0    0 -0.30406741066E+02 -0.45684368356E+01 -0.84428262319E+01  0.31886075835E+02  0.00000000000E+00 0.  1.
         11    1    3    3    0    0  0.40449637016E+02  0.68980003709E+01  0.51608900056E+01  0.41356865569E+02  0.51100000000E-03 0. -1.
        -11    1    3    3    0    0  0.75640410913E+00  0.13909243402E+01  0.59987605910E+01  0.62041878264E+01  0.51100000000E-03 0.  1.
        -12    1    3    3    0    0 -0.10799300059E+02 -0.37204878755E+01 -0.27168243647E+01  0.11740870769E+02  0.00000000000E+00 0.  1.
</event>
<event>
 7    1  0.3802554E-013  0.5930185E+02  0.7816164E-02  0.1266605E+00
        -11   -1    0    0    0    0  0.00000000000E+00  0.00000000000E+00  0.45593999997E+02  0.45594000000E+02  0.51100000000E-03 0.  1.
         11   -1    0    0    0    0 -0.00000000000E+00 -0.00000000000E+00 -0.45593999997E+02  0.45594000000E+02  0.51100000000E-03 0. -1.
    9900012    2    1    2    0    0  0.15044782147E+02 -0.19619857449E+02 -0.20135594813E+02  0.59301851681E+02  0.49999831582E+02 0.  0.
        -12    1    1    2    0    0 -0.15044782147E+02  0.19619857449E+02  0.20135594813E+02  0.31886148319E+02  0.00000000000E+00 0.  1.
         11    1    3    3    0    0  0.60672693580E+01 -0.27937920907E+02 -0.20274598430E+02  0.35048516714E+02  0.51100000000E-03 0. -1.
        -11    1    3    3    0    0  0.65703682091E+01 -0.57757019683E+01 -0.36233616049E+01  0.94687497174E+01  0.51100000000E-03 0.  1.
         12    1    3    3    0    0  0.24071445799E+01  0.14093765427E+02  0.37623652222E+01  0.14784585250E+02  0.00000000000E+00 0. -1.
</event>
<event>
 7    1  0.3802554E-013  0.5930193E+02  0.7816164E-02  0.1266605E+00
        -11   -1    0    0    0    0  0.00000000000E+00  0.00000000000E+00  0.45593999997E+02  0.45594000000E+02  0.51100000000E-03 0.  1.
         11   -1    0    0    0    0 -0.00000000000E+00 -0.00000000000E+00 -0.45593999997E+02  0.45594000000E+02  0.51100000000E-03 0. -1.
    9900012    2    1    2    0    0  0.27469648995E+02  0.66204195305E-01 -0.16190588568E+02  0.59301934751E+02  0.49999983082E+02 0.  0.
        -12    1    1    2    0    0 -0.27469648995E+02 -0.66204195305E-01  0.16190588568E+02  0.31886065249E+02  0.00000000000E+00 0.  1.
         11    1    3    3    0    0 -0.28531371306E+01 -0.37777788228E+01 -0.15658820327E+02  0.16358809816E+02  0.51100000000E-03 0.  1.
        -11    1    3    3    0    0 -0.10061356985E+01 -0.85706985663E+00 -0.98367855520E+01  0.99251815117E+01  0.51100000000E-03 0. -1.
         12    1    3    3    0    0  0.31328921824E+02  0.47010528747E+01  0.93050173108E+01  0.33017943423E+02  0.00000000000E+00 0. -1.
</event>
<event>
 7    1  0.3802554E-013  0.5930191E+02  0.7816164E-02  0.1266605E+00
        -11   -1    0    0    0    0  0.00000000000E+00  0.00000000000E+00  0.45593999997E+02  0.45594000000E+02  0.51100000000E-03 0. -1.
         11   -1    0    0    0    0 -0.00000000000E+00 -0.00000000000E+00 -0.45593999997E+02  0.45594000000E+02  0.51100000000E-03 0.  1.
    9900012    2    1    2    0    0  0.24790474261E+02  0.19102654531E+02 -0.61027715355E+01  0.59301908288E+02  0.49999934819E+02 0.  0.
        -12    1    1    2    0    0 -0.24790474261E+02 -0.19102654531E+02  0.61027715355E+01  0.31886091712E+02  0.00000000000E+00 0.  1.
         11    1    3    3    0    0  0.25542702222E+02  0.19533684867E+02  0.36063824395E+01  0.32357386728E+02  0.51100000000E-03 0. -1.
        -11    1    3    3    0    0  0.50455327246E+01 -0.57094483262E+01  0.57935492571E+01  0.95718553019E+01  0.51100000000E-03 0.  1.
        -12    1    3    3    0    0 -0.57977606847E+01  0.52784179901E+01 -0.15502703232E+02  0.17372666259E+02  0.00000000000E+00 0.  1.
</event>
<event>
 7    1  0.3802554E-013  0.5930195E+02  0.7816164E-02  0.1266605E+00
        -11   -1    0    0    0    0  0.00000000000E+00  0.00000000000E+00  0.45593999997E+02  0.45594000000E+02  0.51100000000E-03 0. -1.
         11   -1    0    0    0    0 -0.00000000000E+00 -0.00000000000E+00 -0.45593999997E+02  0.45594000000E+02  0.51100000000E-03 0.  1.
    9900012    2    1    2    0    0  0.26607297816E+02  0.17289918933E+02  0.31353972708E+01  0.59301948037E+02  0.50000007311E+02 0.  0.
        -12    1    1    2    0    0 -0.26607297816E+02 -0.17289918933E+02 -0.31353972708E+01  0.31886051963E+02  0.00000000000E+00 0.  1.
         11    1    3    3    0    0  0.19650489440E+02  0.59660024815E+01 -0.93863442315E+01  0.22579600951E+02  0.51100000000E-03 0. -1.
        -11    1    3    3    0    0 -0.98849418035E+01  0.15253644652E+01 -0.43890018534E+01  0.10922552300E+02  0.51100000000E-03 0.  1.
         12    1    3    3    0    0  0.16841750180E+02  0.97985519858E+01  0.16910743356E+02  0.25799794786E+02  0.00000000000E+00 0. -1.
</event>
<event>
 7    1  0.3802554E-013  0.5930194E+02  0.7816164E-02  0.1266605E+00
        -11   -1    0    0    0    0  0.00000000000E+00  0.00000000000E+00  0.45593999997E+02  0.45594000000E+02  0.51100000000E-03 0.  1.
         11   -1    0    0    0    0 -0.00000000000E+00 -0.00000000000E+00 -0.45593999997E+02  0.45594000000E+02  0.51100000000E-03 0. -1.
    9900012    2    1    2    0    0  0.12843708363E+02  0.20900074528E+02  0.20370250823E+02  0.59301935985E+02  0.49999985332E+02 0.  0.
        -12    1    1    2    0    0 -0.12843708363E+02 -0.20900074528E+02 -0.20370250823E+02  0.31886064015E+02  0.00000000000E+00 0.  1.
         11    1    3    3    0    0  0.11928930581E+02  0.15732994119E+02  0.83582557870E+01  0.21440310838E+02  0.51100000000E-03 0. -1.
        -11    1    3    3    0    0  0.12703377874E+02 -0.82924025518E+01  0.12948472263E+02  0.19944991444E+02  0.51100000000E-03 0.  1.
         12    1    3    3    0    0 -0.11788600091E+02  0.13459482960E+02 -0.93647722664E+00  0.17916633704E+02  0.00000000000E+00 0. -1.
</event>
<event>
 7    1  0.3802554E-013  0.5930195E+02  0.7816164E-02  0.1266605E+00
        -11   -1    0    0    0    0  0.00000000000E+00  0.00000000000E+00  0.45593999997E+02  0.45594000000E+02  0.51100000000E-03 0. -1.
         11   -1    0    0    0    0 -0.00000000000E+00 -0.00000000000E+00 -0.45593999997E+02  0.45594000000E+02  0.51100000000E-03 0.  1.
    9900012    2    1    2    0    0 -0.17554109262E+02  0.19533763337E+02 -0.18083286161E+02  0.59301954455E+02  0.50000019017E+02 0.  0.
        -12    1    1    2    0    0  0.17554109262E+02 -0.19533763337E+02  0.18083286161E+02  0.31886045545E+02  0.00000000000E+00 0.  1.
         11    1    3    3    0    0 -0.62312286587E+01 -0.85663628610E+01 -0.11686896240E+02  0.15773215502E+02  0.51100000000E-03 0. -1.
        -11    1    3    3    0    0 -0.15727162464E+02  0.19456499372E+02 -0.16145453549E+02  0.29775403902E+02  0.51100000000E-03 0.  1.
        -12    1    3    3    0    0  0.44042818607E+01  0.86436268260E+01  0.97490636277E+01  0.13753335051E+02  0.00000000000E+00 0.  1.
</event>
<event>
 7    1  0.3802554E-013  0.5930201E+02  0.7816164E-02  0.1266605E+00
        -11   -1    0    0    0    0  0.00000000000E+00  0.00000000000E+00  0.45593999997E+02  0.45594000000E+02  0.51100000000E-03 0. -1.
         11   -1    0    0    0    0 -0.00000000000E+00 -0.00000000000E+00 -0.45593999997E+02  0.45594000000E+02  0.51100000000E-03 0.  1.
    9900012    2    1    2    0    0  0.30903039759E+02 -0.49111065855E+01  0.61318403740E+01  0.59302010904E+02  0.50000121967E+02 0.  0.
        -12    1    1    2    0    0 -0.30903039759E+02  0.49111065855E+01 -0.61318403740E+01  0.31885989096E+02  0.00000000000E+00 0.  1.
         11    1    3    3    0    0  0.81326133870E+01 -0.13229476067E+02  0.89089346499E+01  0.17903283340E+02  0.51100000000E-03 0. -1.
        -11    1    3    3    0    0  0.29220118349E+02  0.67963176795E+01 -0.99748559527E+01  0.31614917394E+02  0.51100000000E-03 0.  1.
         12    1    3    3    0    0 -0.64496919766E+01  0.15220518018E+01  0.71977616769E+01  0.97838101697E+01  0.00000000000E+00 0. -1.
</event>
<event>
 7    1  0.3802554E-013  0.5930200E+02  0.7816164E-02  0.1266605E+00
        -11   -1    0    0    0    0  0.00000000000E+00  0.00000000000E+00  0.45593999997E+02  0.45594000000E+02  0.51100000000E-03 0.  1.
         11   -1    0    0    0    0 -0.00000000000E+00 -0.00000000000E+00 -0.45593999997E+02  0.45594000000E+02  0.51100000000E-03 0. -1.
    9900012    2    1    2    0    0 -0.28099728187E+01 -0.26112307928E+02 -0.18082274672E+02  0.59301996333E+02  0.50000095391E+02 0.  0.
        -12    1    1    2    0    0  0.28099728187E+01  0.26112307928E+02  0.18082274672E+02  0.31886003667E+02  0.00000000000E+00 0.  1.
         11    1    3    3    0    0 -0.52071978634E+01 -0.88527943299E+01  0.53663347128E+01  0.11588115703E+02  0.51100000000E-03 0. -1.
        -11    1    3    3    0    0 -0.17747122195E+01  0.11044669568E+02 -0.13249690986E+02  0.17340376029E+02  0.51100000000E-03 0.  1.
         12    1    3    3    0    0  0.41719372641E+01 -0.28304183166E+02 -0.10198918399E+02  0.30373504601E+02  0.00000000000E+00 0. -1.
</event>
<event>
 7    1  0.3802554E-013  0.5930189E+02  0.7816164E-02  0.1266605E+00
        -11   -1    0    0    0    0  0.00000000000E+00  0.00000000000E+00  0.45593999997E+02  0.45594000000E+02  0.51100000000E-03 0. -1.
         11   -1    0    0    0    0 -0.00000000000E+00 -0.00000000000E+00 -0.45593999997E+02  0.45594000000E+02  0.51100000000E-03 0.  1.
    9900012    2    1    2    0    0 -0.18656604300E+02  0.25787606539E+02 -0.19117152244E+01  0.59301887191E+02  0.49999896342E+02 0.  0.
        -12    1    1    2    0    0  0.18656604300E+02 -0.25787606539E+02  0.19117152244E+01  0.31886112809E+02  0.00000000000E+00 0.  1.
         11    1    3    3    0    0 -0.20318050065E+02  0.23100907880E+02 -0.68375109601E+01  0.31515498722E+02  0.51100000000E-03 0. -1.
        -11    1    3    3    0    0 -0.94352628525E+01  0.10139417394E+02  0.11594229620E+01  0.13898785272E+02  0.51100000000E-03 0.  1.
        -12    1    3    3    0    0  0.11096708617E+02 -0.74527187348E+01  0.37663727737E+01  0.13887603196E+02  0.00000000000E+00 0.  1.
</event>
<event>
 7    1  0.3802554E-013  0.5930194E+02  0.7816164E-02  0.1266605E+00
        -11   -1    0    0    0    0  0.00000000000E+00  0.00000000000E+00  0.45593999997E+02  0.45594000000E+02  0.51100000000E-03 0.  1.
         11   -1    0    0    0    0 -0.00000000000E+00 -0.00000000000E+00 -0.45593999997E+02  0.45594000000E+02  0.51100000000E-03 0. -1.
    9900012    2    1    2    0    0 -0.13168785103E+02  0.25225314664E+02 -0.14387067591E+02  0.59301935413E+02  0.49999984289E+02 0.  0.
        -12    1    1    2    0    0  0.13168785103E+02 -0.25225314664E+02  0.14387067591E+02  0.31886064587E+02  0.00000000000E+00 0.  1.
         11    1    3    3    0    0  0.11661117604E+01 -0.39793085210E+00 -0.48221647197E+01  0.49770913640E+01  0.51100000000E-03 0. -1.
        -11    1    3    3    0    0  0.80939297112E+01  0.20738911725E+02 -0.19230726042E+02  0.29418276328E+02  0.51100000000E-03 0.  1.
         12    1    3    3    0    0 -0.22428826574E+02  0.48843337913E+01  0.96658231711E+01  0.24906567721E+02  0.00000000000E+00 0. -1.
</event>
<event>
 7    1  0.3802554E-013  0.5930194E+02  0.7816164E-02  0.1266605E+00
        -11   -1    0    0    0    0  0.00000000000E+00  0.00000000000E+00  0.45593999997E+02  0.45594000000E+02  0.51100000000E-03 0.  1.
         11   -1    0    0    0    0 -0.00000000000E+00 -0.00000000000E+00 -0.45593999997E+02  0.45594000000E+02  0.51100000000E-03 0. -1.
    9900012    2    1    2    0    0  0.77472934235E+00  0.71842853592E+01 -0.31056504859E+02  0.59301942612E+02  0.49999997418E+02 0.  0.
        -12    1    1    2    0    0 -0.77472934235E+00 -0.71842853592E+01  0.31056504859E+02  0.31886057388E+02  0.00000000000E+00 0.  1.
         11    1    3    3    0    0 -0.64971730797E+01 -0.72608966287E+01 -0.16388710404E+02  0.19066297670E+02  0.51100000000E-03 0. -1.
        -11    1    3    3    0    0 -0.34113512912E+01  0.48747014940E+01  0.10037603449E+02  0.11668483858E+02  0.51100000000E-03 0.  1.
         12    1    3    3    0    0  0.10683253713E+02  0.95704804939E+01 -0.24705397904E+02  0.28567161084E+02  0.00000000000E+00 0. -1.
</event>
<event>
 7    1  0.3802554E-013  0.5930192E+02  0.7816164E-02  0.1266605E+00
        -11   -1    0    0    0    0  0.00000000000E+00  0.00000000000E+00  0.45593999997E+02  0.45594000000E+02  0.51100000000E-03 0. -1.
         11   -1    0    0    0    0 -0.00000000000E+00 -0.00000000000E+00 -0.45593999997E+02  0.45594000000E+02  0.51100000000E-03 0.  1.
    9900012    2    1    2    0    0 -0.31648770592E+02  0.32941776490E+01 -0.20556145149E+01  0.59301924082E+02  0.49999963625E+02 0.  0.
        -12    1    1    2    0    0  0.31648770592E+02 -0.32941776490E+01  0.20556145149E+01  0.31886075918E+02  0.00000000000E+00 0.  1.
         11    1    3    3    0    0 -0.21674628537E+02 -0.13762955894E+02  0.14567267561E+01  0.25716347530E+02  0.51100000000E-03 0. -1.
        -11    1    3    3    0    0 -0.15047100380E+02  0.29110189937E+01 -0.87775826713E+01  0.17661687893E+02  0.51100000000E-03 0.  1.
         12    1    3    3    0    0  0.50729583254E+01  0.14146114549E+02  0.52652414003E+01  0.15923888659E+02  0.00000000000E+00 0. -1.
</event>
<event>
 7    1  0.3802554E-013  0.5930195E+02  0.7816164E-02  0.1266605E+00
        -11   -1    0    0    0    0  0.00000000000E+00  0.00000000000E+00  0.45593999997E+02  0.45594000000E+02  0.51100000000E-03 0.  1.
         11   -1    0    0    0    0 -0.00000000000E+00 -0.00000000000E+00 -0.45593999997E+02  0.45594000000E+02  0.51100000000E-03 0. -1.
    9900012    2    1    2    0    0  0.26174688121E+02  0.18114118671E+02  0.18667623353E+01  0.59301946700E+02  0.50000004874E+02 0.  0.
        -12    1    1    2    0    0 -0.26174688121E+02 -0.18114118671E+02 -0.18667623353E+01  0.31886053300E+02  0.00000000000E+00 0.  1.
         11    1    3    3    0    0  0.12828178844E+02  0.53955376520E+01  0.52174464236E+01  0.14862561907E+02  0.51100000000E-03 0. -1.
        -11    1    3    3    0    0  0.43774006791E+01  0.25535114287E+02  0.54728416722E+01  0.26479344679E+02  0.51100000000E-03 0.  1.
         12    1    3    3    0    0  0.89691085979E+01 -0.12816533269E+02 -0.88235257605E+01  0.17960040115E+02  0.00000000000E+00 0. -1.
</event>
<event>
 7    1  0.3802554E-013  0.5930194E+02  0.7816164E-02  0.1266605E+00
        -11   -1    0    0    0    0  0.00000000000E+00  0.00000000000E+00  0.45593999997E+02  0.45594000000E+02  0.51100000000E-03 0. -1.
         11   -1    0    0    0    0 -0.00000000000E+00 -0.00000000000E+00 -0.45593999997E+02  0.45594000000E+02  0.51100000000E-03 0.  1.
    9900012    2    1    2    0    0 -0.82790074699E+01  0.74647981601E+00  0.30783465572E+02  0.59301938007E+02  0.49999989019E+02 0.  0.
        -12    1    1    2    0    0  0.82790074699E+01 -0.74647981601E+00 -0.30783465572E+02  0.31886061993E+02  0.00000000000E+00 0.  1.
         11    1    3    3    0    0  0.17098533175E+02 -0.44816257066E+01  0.11141568033E+02  0.20894481190E+02  0.51100000000E-03 0. -1.
        -11    1    3    3    0    0 -0.36974990966E+01 -0.61796757660E+01  0.32339457625E+00  0.72086390154E+01  0.51100000000E-03 0.  1.
         12    1    3    3    0    0 -0.21680041548E+02  0.11407781289E+02  0.19318502963E+02  0.31198817801E+02  0.00000000000E+00 0. -1.
</event>
<event>
 7    1  0.3802554E-013  0.5930194E+02  0.7816164E-02  0.1266605E+00
        -11   -1    0    0    0    0  0.00000000000E+00  0.00000000000E+00  0.45593999997E+02  0.45594000000E+02  0.51100000000E-03 0. -1.
         11   -1    0    0    0    0 -0.00000000000E+00 -0.00000000000E+00 -0.45593999997E+02  0.45594000000E+02  0.51100000000E-03 0.  1.
    9900012    2    1    2    0    0  0.11308346916E+02  0.43754951334E+01  0.29490626172E+02  0.59301941924E+02  0.49999996162E+02 0.  0.
        -12    1    1    2    0    0 -0.11308346916E+02 -0.43754951334E+01 -0.29490626172E+02  0.31886058076E+02  0.00000000000E+00 0.  1.
         11    1    3    3    0    0  0.93346338603E+01  0.54135124078E+01  0.16430993796E+02  0.19657544691E+02  0.51100000000E-03 0. -1.
        -11    1    3    3    0    0  0.58548923486E+01  0.15102116634E+02  0.16020945194E+02  0.22782106496E+02  0.51100000000E-03 0.  1.
        -12    1    3    3    0    0 -0.38811792931E+01 -0.16140133909E+02 -0.29613128170E+01  0.16862290737E+02  0.00000000000E+00 0.  1.
</event>
<event>
 7    1  0.3802554E-013  0.5930193E+02  0.7816164E-02  0.1266605E+00
        -11   -1    0    0    0    0  0.00000000000E+00  0.00000000000E+00  0.45593999997E+02  0.45594000000E+02  0.51100000000E-03 0.  1.
         11   -1    0    0    0    0 -0.00000000000E+00 -0.00000000000E+00 -0.45593999997E+02  0.45594000000E+02  0.51100000000E-03 0. -1.
    9900012    2    1    2    0    0  0.51315681835E+01 -0.16179777780E+01 -0.31428813639E+02  0.59301934534E+02  0.49999982686E+02 0.  0.
        -12    1    1    2    0    0 -0.51315681835E+01  0.16179777780E+01  0.31428813639E+02  0.31886065466E+02  0.00000000000E+00 0.  1.
         11    1    3    3    0    0  0.18247443633E+02 -0.39880612647E+01 -0.22487996275E+02  0.29233265444E+02  0.51100000000E-03 0. -1.
        -11    1    3    3    0    0 -0.11039721105E+02 -0.92061353921E+01 -0.11036219117E+02  0.18122541312E+02  0.51100000000E-03 0.  1.
         12    1    3    3    0    0 -0.20761543452E+01  0.11576218879E+02  0.20954017528E+01  0.11946127778E+02  0.00000000000E+00 0. -1.
</event>
<event>
 7    1  0.3802554E-013  0.5930223E+02  0.7816164E-02  0.1266604E+00
        -11   -1    0    0    0    0  0.00000000000E+00  0.00000000000E+00  0.45593999997E+02  0.45594000000E+02  0.51100000000E-03 0.  1.
         11   -1    0    0    0    0 -0.00000000000E+00 -0.00000000000E+00 -0.45593999997E+02  0.45594000000E+02  0.51100000000E-03 0. -1.
    9900012    2    1    2    0    0  0.23037694682E+02  0.24895830201E+01  0.21903627282E+02  0.59302230635E+02  0.50000522701E+02 0.  0.
        -12    1    1    2    0    0 -0.23037694682E+02 -0.24895830201E+01 -0.21903627282E+02  0.31885769365E+02  0.00000000000E+00 0.  1.
         11    1    3    3    0    0  0.40447290832E+01  0.31537197604E+01  0.53778010445E+00  0.51570330022E+01  0.51100000000E-03 0. -1.
        -11    1    3    3    0    0  0.21308352062E+01  0.33177996144E+01  0.33026333636E+02  0.33260892451E+02  0.51100000000E-03 0.  1.
         12    1    3    3    0    0  0.16862130392E+02 -0.39819363548E+01 -0.11660486458E+02  0.20884305182E+02  0.00000000000E+00 0. -1.
</event>
<event>
 7    1  0.3967824E-013  0.5930192E+02  0.7816164E-02  0.1266605E+00
        -11   -1    0    0    0    0  0.00000000000E+00  0.00000000000E+00  0.45593999997E+02  0.45594000000E+02  0.51100000000E-03 0. -1.
         11   -1    0    0    0    0 -0.00000000000E+00 -0.00000000000E+00 -0.45593999997E+02  0.45594000000E+02  0.51100000000E-03 0.  1.
    9900012    2    1    2    0    0  0.11478365002E+02 -0.10427432024E+02  0.27861047272E+02  0.59301919074E+02  0.49999954490E+02 0.  0.
        -12    1    1    2    0    0 -0.11478365002E+02  0.10427432024E+02 -0.27861047272E+02  0.31886080926E+02  0.00000000000E+00 0.  1.
         11    1    3    3    0    0 -0.12323415438E+01 -0.16727509950E+02  0.21435504114E+02  0.27217808356E+02  0.51100000000E-03 0. -1.
        -11    1    3    3    0    0 -0.60848997808E+01  0.12518844589E+01 -0.62868163270E+01  0.88383980354E+01  0.51100000000E-03 0.  1.
        -12    1    3    3    0    0  0.18795606327E+02  0.50481934670E+01  0.12712359485E+02  0.23245712683E+02  0.00000000000E+00 0.  1.
</event>
<event>
 7    1  0.3802554E-013  0.5930194E+02  0.7816164E-02  0.1266605E+00
        -11   -1    0    0    0    0  0.00000000000E+00  0.00000000000E+00  0.45593999997E+02  0.45594000000E+02  0.51100000000E-03 0.  1.
         11   -1    0    0    0    0 -0.00000000000E+00 -0.00000000000E+00 -0.45593999997E+02  0.45594000000E+02  0.51100000000E-03 0. -1.
    9900012    2    1    2    0    0  0.42170597480E+01  0.18067108944E+02 -0.25932923437E+02  0.59301944482E+02  0.50000000829E+02 0.  0.
        -12    1    1    2    0    0 -0.42170597480E+01 -0.18067108944E+02  0.25932923437E+02  0.31886055518E+02  0.00000000000E+00 0.  1.
         11    1    3    3    0    0  0.13737023847E+02 -0.33738158831E+01 -0.77116042630E+01  0.16110782053E+02  0.51100000000E-03 0. -1.
        -11    1    3    3    0    0  0.18991927953E+01 -0.52814029439E+01 -0.12319842132E+02  0.13538044938E+02  0.51100000000E-03 0.  1.
        -12    1    3    3    0    0 -0.11419156894E+02  0.26722327771E+02 -0.59014770414E+01  0.29653117491E+02  0.00000000000E+00 0.  1.
</event>
<event>
 7    1  0.3802554E-013  0.5930192E+02  0.7816164E-02  0.1266605E+00
        -11   -1    0    0    0    0  0.00000000000E+00  0.00000000000E+00  0.45593999997E+02  0.45594000000E+02  0.51100000000E-03 0.  1.
         11   -1    0    0    0    0 -0.00000000000E+00 -0.00000000000E+00 -0.45593999997E+02  0.45594000000E+02  0.51100000000E-03 0. -1.
    9900012    2    1    2    0    0  0.14679626943E+02  0.72005525807E+01 -0.27374849854E+02  0.59301924525E+02  0.49999964432E+02 0.  0.
        -12    1    1    2    0    0 -0.14679626943E+02 -0.72005525807E+01  0.27374849854E+02  0.31886075475E+02  0.00000000000E+00 0.  1.
         11    1    3    3    0    0 -0.13419702476E+02  0.26358393741E+00 -0.47468325788E+01  0.14236934742E+02  0.51100000000E-03 0. -1.
        -11    1    3    3    0    0  0.26211748650E+01  0.27824977152E+01  0.56208648639E+01  0.67975711315E+01  0.51100000000E-03 0.  1.
         12    1    3    3    0    0  0.25478154554E+02  0.41544709280E+01 -0.28248882139E+02  0.38267418652E+02  0.00000000000E+00 0. -1.
</event>
<event>
 7    1  0.3802554E-013  0.5930194E+02  0.7816164E-02  0.1266605E+00
        -11   -1    0    0    0    0  0.00000000000E+00  0.00000000000E+00  0.45593999997E+02  0.45594000000E+02  0.51100000000E-03 0. -1.
         11   -1    0    0    0    0 -0.00000000000E+00 -0.00000000000E+00 -0.45593999997E+02  0.45594000000E+02  0.51100000000E-03 0.  1.
    9900012    2    1    2    0    0 -0.30924932522E+02 -0.17762049189E+01 -0.75640261512E+01  0.59301939613E+02  0.49999991948E+02 0.  0.
        -12    1    1    2    0    0  0.30924932522E+02  0.17762049189E+01  0.75640261512E+01  0.31886060387E+02  0.00000000000E+00 0.  1.
         11    1    3    3    0    0  0.88486466685E+01  0.61941086464E+00 -0.48875435534E+01  0.10127699637E+02  0.51100000000E-03 0. -1.
        -11    1    3    3    0    0 -0.17915902724E+02  0.12920806329E+02 -0.40141464694E+01  0.22450839155E+02  0.51100000000E-03 0.  1.
         12    1    3    3    0    0 -0.21857676466E+02 -0.15316422112E+02  0.13376638715E+01  0.26723400821E+02  0.00000000000E+00 0. -1.
</event>
<event>
 7    1  0.3802554E-013  0.5930195E+02  0.7816164E-02  0.1266605E+00
        -11   -1    0    0    0    0  0.00000000000E+00  0.00000000000E+00  0.45593999997E+02  0.45594000000E+02  0.51100000000E-03 0. -1.
         11   -1    0    0    0    0 -0.00000000000E+00 -0.00000000000E+00 -0.45593999997E+02  0.45594000000E+02  0.51100000000E-03 0.  1.
    9900012    2    1    2    0    0  0.19977000527E+02 -0.45972920913E+01  0.24423445823E+02  0.59301947398E+02  0.50000006147E+02 0.  0.
        -12    1    1    2    0    0 -0.19977000527E+02  0.45972920913E+01 -0.24423445823E+02  0.31886052602E+02  0.00000000000E+00 0.  1.
         11    1    3    3    0    0 -0.40377921015E+01  0.19382183936E+01  0.16358147920E+02  0.16960231697E+02  0.51100000000E-03 0. -1.
        -11    1    3    3    0    0 -0.53962783695E+01 -0.64887246016E+01 -0.53744019313E+01  0.10005376733E+02  0.51100000000E-03 0.  1.
         12    1    3    3    0    0  0.29411070998E+02 -0.46785883331E-01  0.13439699834E+02  0.32336338967E+02  0.00000000000E+00 0. -1.
</event>
<event>
 7    1  0.3802554E-013  0.5930194E+02  0.7816164E-02  0.1266605E+00
        -11   -1    0    0    0    0  0.00000000000E+00  0.00000000000E+00  0.45593999997E+02  0.45594000000E+02  0.51100000000E-03 0.  1.
         11   -1    0    0    0    0 -0.00000000000E+00 -0.00000000000E+00 -0.45593999997E+02  0.45594000000E+02  0.51100000000E-03 0. -1.
    9900012    2    1    2    0    0  0.14930831652E+02 -0.98375356538E+01 -0.26401021768E+02  0.59301940476E+02  0.49999993523E+02 0.  0.
        -12    1    1    2    0    0 -0.14930831652E+02  0.98375356538E+01  0.26401021768E+02  0.31886059524E+02  0.00000000000E+00 0.  1.
         11    1    3    3    0    0  0.11090275855E+00 -0.13535894679E+02 -0.25130260852E+02  0.28544049379E+02  0.51100000000E-03 0. -1.
        -11    1    3    3    0    0 -0.58134380669E+01  0.76562807795E+01  0.80031204870E+00  0.96465121764E+01  0.51100000000E-03 0.  1.
        -12    1    3    3    0    0  0.20633366960E+02 -0.39579217541E+01 -0.20710729649E+01  0.21111378921E+02  0.00000000000E+00 0.  1.
</event>
<event>
 7    1  0.3802554E-013  0.5930195E+02  0.7816164E-02  0.1266605E+00
        -11   -1    0    0    0    0  0.00000000000E+00  0.00000000000E+00  0.45593999997E+02  0.45594000000E+02  0.51100000000E-03 0.  1.
         11   -1    0    0    0    0 -0.00000000000E+00 -0.00000000000E+00 -0.45593999997E+02  0.45594000000E+02  0.51100000000E-03 0. -1.
    9900012    2    1    2    0    0 -0.69726820060E+01  0.78674266709E+01 -0.30103249411E+02  0.59301947848E+02  0.50000006967E+02 0.  0.
        -12    1    1    2    0    0  0.69726820060E+01 -0.78674266709E+01  0.30103249411E+02  0.31886052152E+02  0.00000000000E+00 0.  1.
         11    1    3    3    0    0  0.66146166840E+01  0.18148989999E+02 -0.17251723021E+02  0.25899052865E+02  0.51100000000E-03 0. -1.
        -11    1    3    3    0    0 -0.16827608491E+02 -0.33612399832E+01 -0.17458733752E+02  0.24480067938E+02  0.51100000000E-03 0.  1.
        -12    1    3    3    0    0  0.32403098006E+01 -0.69203233448E+01  0.46072073622E+01  0.89228270452E+01  0.00000000000E+00 0.  1.
</event>
<event>
 7    1  0.3802554E-013  0.5930189E+02  0.7816164E-02  0.1266605E+00
        -11   -1    0    0    0    0  0.00000000000E+00  0.00000000000E+00  0.45593999997E+02  0.45594000000E+02  0.51100000000E-03 0.  1.
         11   -1    0    0    0    0 -0.00000000000E+00 -0.00000000000E+00 -0.45593999997E+02  0.45594000000E+02  0.51100000000E-03 0. -1.
    9900012    2    1    2    0    0 -0.19109376966E+02  0.18270517829E+02 -0.17825367871E+02  0.59301892531E+02  0.49999906083E+02 0.  0.
        -12    1    1    2    0    0  0.19109376966E+02 -0.18270517829E+02  0.17825367871E+02  0.31886107469E+02  0.00000000000E+00 0.  1.
         11    1    3    3    0    0  0.30771706899E+01  0.19196873565E+02 -0.15894610206E+02  0.25112299138E+02  0.51100000000E-03 0. -1.
        -11    1    3    3    0    0 -0.18394322711E+02  0.82496043964E+01  0.64819856206E+01  0.21176005726E+02  0.51100000000E-03 0.  1.
        -12    1    3    3    0    0 -0.37922249455E+01 -0.91759601323E+01 -0.84127432848E+01  0.13013587667E+02  0.00000000000E+00 0.  1.
</event>
<event>
 7    1  0.3802554E-013  0.5930188E+02  0.7816164E-02  0.1266605E+00
        -11   -1    0    0    0    0  0.00000000000E+00  0.00000000000E+00  0.45593999997E+02  0.45594000000E+02  0.51100000000E-03 0.  1.
         11   -1    0    0    0    0 -0.00000000000E+00 -0.00000000000E+00 -0.45593999997E+02  0.45594000000E+02  0.51100000000E-03 0. -1.
    9900012    2    1    2    0    0  0.19754291303E+02 -0.50662775398E+01 -0.24511747428E+02  0.59301875197E+02  0.49999874469E+02 0.  0.
        -12    1    1    2    0    0 -0.19754291303E+02  0.50662775398E+01  0.24511747428E+02  0.31886124803E+02  0.00000000000E+00 0.  1.
         11    1    3    3    0    0  0.52316510522E+01  0.90572413986E+01  0.44846185102E+01  0.11380491990E+02  0.51100000000E-03 0.  1.
        -11    1    3    3    0    0  0.75846764516E+01  0.93987556763E+01 -0.16354572894E+02  0.20330665998E+02  0.51100000000E-03 0. -1.
         12    1    3    3    0    0  0.69379637992E+01 -0.23522274615E+02 -0.12641793044E+02  0.27590717209E+02  0.00000000000E+00 0. -1.
</event>
<event>
 7    1  0.3802554E-013  0.5930193E+02  0.7816164E-02  0.1266605E+00
        -11   -1    0    0    0    0  0.00000000000E+00  0.00000000000E+00  0.45593999997E+02  0.45594000000E+02  0.51100000000E-03 0.  1.
         11   -1    0    0    0    0 -0.00000000000E+00 -0.00000000000E+00 -0.45593999997E+02  0.45594000000E+02  0.51100000000E-03 0. -1.
    9900012    2    1    2    0    0 -0.91296670985E+01 -0.27349645830E+02 -0.13614983180E+02  0.59301925997E+02  0.49999967116E+02 0.  0.
        -12    1    1    2    0    0  0.91296670985E+01  0.27349645830E+02  0.13614983180E+02  0.31886074003E+02  0.00000000000E+00 0.  1.
         11    1    3    3    0    0  0.31953791495E+01 -0.16182246137E+02  0.57555897252E+01  0.17470041536E+02  0.51100000000E-03 0. -1.
        -11    1    3    3    0    0  0.10756661863E+02 -0.50574076404E+01 -0.14420834148E+01  0.11973418531E+02  0.51100000000E-03 0.  1.
        -12    1    3    3    0    0 -0.23081708111E+02 -0.61099920526E+01 -0.17928489491E+02  0.29858465929E+02  0.00000000000E+00 0.  1.
</event>
<event>
 7    1  0.3802554E-013  0.5930197E+02  0.7816164E-02  0.1266605E+00
        -11   -1    0    0    0    0  0.00000000000E+00  0.00000000000E+00  0.45593999997E+02  0.45594000000E+02  0.51100000000E-03 0.  1.
         11   -1    0    0    0    0 -0.00000000000E+00 -0.00000000000E+00 -0.45593999997E+02  0.45594000000E+02  0.51100000000E-03 0. -1.
    9900012    2    1    2    0    0  0.91824068358E+01 -0.29921159589E+02 -0.60931627797E+01  0.59301968276E+02  0.50000044223E+02 0.  0.
        -12    1    1    2    0    0 -0.91824068358E+01  0.29921159589E+02  0.60931627797E+01  0.31886031724E+02  0.00000000000E+00 0.  1.
         11    1    3    3    0    0  0.64054529401E+01 -0.12519446755E+02 -0.23034260330E+02  0.26987840292E+02  0.51100000000E-03 0. -1.
        -11    1    3    3    0    0  0.60637575099E+00 -0.56499193697E+01 -0.48437554570E+01  0.74666758082E+01  0.51100000000E-03 0.  1.
        -12    1    3    3    0    0  0.21705781447E+01 -0.11751793464E+02  0.21784853007E+02  0.24847452176E+02  0.00000000000E+00 0.  1.
</event>
<event>
 7    1  0.3802554E-013  0.5930195E+02  0.7816164E-02  0.1266605E+00
        -11   -1    0    0    0    0  0.00000000000E+00  0.00000000000E+00  0.45593999997E+02  0.45594000000E+02  0.51100000000E-03 0.  1.
         11   -1    0    0    0    0 -0.00000000000E+00 -0.00000000000E+00 -0.45593999997E+02  0.45594000000E+02  0.51100000000E-03 0. -1.
    9900012    2    1    2    0    0  0.38668994880E+01 -0.31373855269E+02  0.41771112406E+01  0.59301953453E+02  0.50000017189E+02 0.  0.
        -12    1    1    2    0    0 -0.38668994880E+01  0.31373855269E+02 -0.41771112406E+01  0.31886046547E+02  0.00000000000E+00 0.  1.
         11    1    3    3    0    0 -0.62937325478E+01 -0.58882654584E+01 -0.11018286787E+01  0.86888875116E+01  0.51100000000E-03 0. -1.
        -11    1    3    3    0    0  0.22022940026E+01 -0.10087939993E+02  0.23375808129E+02  0.25554745902E+02  0.51100000000E-03 0.  1.
         12    1    3    3    0    0  0.79583380332E+01 -0.15397649818E+02 -0.18096868210E+02  0.25058320039E+02  0.00000000000E+00 0. -1.
</event>
<event>
 7    1  0.3802554E-013  0.5930181E+02  0.7816164E-02  0.1266605E+00
        -11   -1    0    0    0    0  0.00000000000E+00  0.00000000000E+00  0.45593999997E+02  0.45594000000E+02  0.51100000000E-03 0. -1.
         11   -1    0    0    0    0 -0.00000000000E+00 -0.00000000000E+00 -0.45593999997E+02  0.45594000000E+02  0.51100000000E-03 0.  1.
    9900012    2    1    2    0    0  0.59482198861E+01  0.31226359877E+02 -0.25024569681E+01  0.59301809229E+02  0.49999754159E+02 0.  0.
        -12    1    1    2    0    0 -0.59482198861E+01 -0.31226359877E+02  0.25024569681E+01  0.31886190771E+02  0.00000000000E+00 0.  1.
         11    1    3    3    0    0 -0.13700071939E+01 -0.85516176338E+01  0.48594678232E+01  0.99308364024E+01  0.51100000000E-03 0. -1.
        -11    1    3    3    0    0  0.12777718371E+02  0.12016760009E+02  0.53715529712E+01  0.18344650159E+02  0.51100000000E-03 0.  1.
         12    1    3    3    0    0 -0.54594912909E+01  0.27761217502E+02 -0.12733477763E+02  0.31026322667E+02  0.00000000000E+00 0. -1.
</event>
<event>
 7    1  0.3802554E-013  0.5930195E+02  0.7816164E-02  0.1266605E+00
        -11   -1    0    0    0    0  0.00000000000E+00  0.00000000000E+00  0.45593999997E+02  0.45594000000E+02  0.51100000000E-03 0.  1.
         11   -1    0    0    0    0 -0.00000000000E+00 -0.00000000000E+00 -0.45593999997E+02  0.45594000000E+02  0.51100000000E-03 0. -1.
    9900012    2    1    2    0    0  0.31167625230E+02  0.40120906796E+01 -0.54039195242E+01  0.59301951636E+02  0.50000013875E+02 0.  0.
        -12    1    1    2    0    0 -0.31167625230E+02 -0.40120906796E+01  0.54039195242E+01  0.31886048364E+02  0.00000000000E+00 0.  1.
         11    1    3    3    0    0  0.18592046891E+02  0.11210705646E+02 -0.12266783574E+02  0.24936280961E+02  0.51100000000E-03 0. -1.
        -11    1    3    3    0    0  0.72717996919E+01  0.62313825803E+01 -0.88402488544E+01  0.13033004247E+02  0.51100000000E-03 0.  1.
        -12    1    3    3    0    0  0.53037786472E+01 -0.13429997547E+02  0.15703112904E+02  0.21332666428E+02  0.00000000000E+00 0.  1.
</event>
<event>
 7    1  0.3802554E-013  0.5930194E+02  0.7816164E-02  0.1266605E+00
        -11   -1    0    0    0    0  0.00000000000E+00  0.00000000000E+00  0.45593999997E+02  0.45594000000E+02  0.51100000000E-03 0. -1.
         11   -1    0    0    0    0 -0.00000000000E+00 -0.00000000000E+00 -0.45593999997E+02  0.45594000000E+02  0.51100000000E-03 0.  1.
    9900012    2    1    2    0    0  0.17804516540E+02  0.25558393949E+02 -0.68182518874E+01  0.59301939264E+02  0.49999991311E+02 0.  0.
        -12    1    1    2    0    0 -0.17804516540E+02 -0.25558393949E+02  0.68182518874E+01  0.31886060736E+02  0.00000000000E+00 0.  1.
         11    1    3    3    0    0 -0.12042398110E+02  0.39129501844E+01  0.60611136075E+01  0.14038077853E+02  0.51100000000E-03 0. -1.
        -11    1    3    3    0    0  0.11653579311E+02  0.22196556162E+02 -0.91265138014E+01  0.26679322904E+02  0.51100000000E-03 0.  1.
        -12    1    3    3    0    0  0.18193335339E+02 -0.55111239740E+00 -0.37528516936E+01  0.18584538506E+02  0.00000000000E+00 0.  1.
</event>
<event>
 7    1  0.3802554E-013  0.5930196E+02  0.7816164E-02  0.1266605E+00
        -11   -1    0    0    0    0  0.00000000000E+00  0.00000000000E+00  0.45593999997E+02  0.45594000000E+02  0.51100000000E-03 0.  1.
         11   -1    0    0    0    0 -0.00000000000E+00 -0.00000000000E+00 -0.45593999997E+02  0.45594000000E+02  0.51100000000E-03 0. -1.
    9900012    2    1    2    0    0  0.87433597295E+01 -0.15512923024E+02 -0.26450380648E+02  0.59301956713E+02  0.50000023135E+02 0.  0.
        -12    1    1    2    0    0 -0.87433597295E+01  0.15512923024E+02  0.26450380648E+02  0.31886043287E+02  0.00000000000E+00 0.  1.
         11    1    3    3    0    0  0.13163342455E+01 -0.30295506856E+01 -0.22795459007E+01  0.40133829841E+01  0.51100000000E-03 0. -1.
        -11    1    3    3    0    0  0.46816863938E+01 -0.19155905538E+02  0.87590564741E+01  0.21577487691E+02  0.51100000000E-03 0.  1.
         12    1    3    3    0    0  0.27453390902E+01  0.66725331998E+01 -0.32929891221E+02  0.33711086038E+02  0.00000000000E+00 0. -1.
</event>
<event>
 7    1  0.3802554E-013  0.5930200E+02  0.7816164E-02  0.1266605E+00
        -11   -1    0    0    0    0  0.00000000000E+00  0.00000000000E+00  0.45593999997E+02  0.45594000000E+02  0.51100000000E-03 0. -1.
         11   -1    0    0    0    0 -0.00000000000E+00 -0.00000000000E+00 -0.45593999997E+02  0.45594000000E+02  0.51100000000E-03 0.  1.
    9900012    2    1    2    0    0  0.31861056496E+02  0.10934683977E+01 -0.62821895496E+00  0.59301995966E+02  0.50000094723E+02 0.  0.
        -12    1    1    2    0    0 -0.31861056496E+02 -0.10934683977E+01  0.62821895496E+00  0.31886004034E+02  0.00000000000E+00 0.  1.
         11    1    3    3    0    0  0.27934349045E+01  0.17562309271E+01  0.88638607010E+01  0.94580998315E+01  0.51100000000E-03 0. -1.
        -11    1    3    3    0    0 -0.11660638148E+01  0.11403159303E+02 -0.12730687401E+02  0.17130736962E+02  0.51100000000E-03 0.  1.
         12    1    3    3    0    0  0.30233685407E+02 -0.12065921832E+02  0.32386077451E+01  0.32713159172E+02  0.00000000000E+00 0. -1.
</event>
<event>
 7    1  0.3802554E-013  0.5930191E+02  0.7816164E-02  0.1266605E+00
        -11   -1    0    0    0    0  0.00000000000E+00  0.00000000000E+00  0.45593999997E+02  0.45594000000E+02  0.51100000000E-03 0.  1.
         11   -1    0    0    0    0 -0.00000000000E+00 -0.00000000000E+00 -0.45593999997E+02  0.45594000000E+02  0.51100000000E-03 0. -1.
    9900012    2    1    2    0    0  0.26609456987E+02 -0.13548957328E+02 -0.11184155576E+02  0.59301909275E+02  0.49999936619E+02 0.  0.
        -12    1    1    2    0    0 -0.26609456987E+02  0.13548957328E+02  0.11184155576E+02  0.31886090725E+02  0.00000000000E+00 0.  1.
         11    1    3    3    0    0  0.65101725924E+00 -0.16719579738E+02  0.38862386551E+01  0.17177631421E+02  0.51100000000E-03 0. -1.
        -11    1    3    3    0    0  0.31155499455E+01  0.71173097150E+00  0.85775455190E+01  0.91535512141E+01  0.51100000000E-03 0.  1.
         12    1    3    3    0    0  0.22842889782E+02  0.24588914389E+01 -0.23647939750E+02  0.32970726639E+02  0.00000000000E+00 0. -1.
</event>
<event>
 7    1  0.3802554E-013  0.5930192E+02  0.7816164E-02  0.1266605E+00
        -11   -1    0    0    0    0  0.00000000000E+00  0.00000000000E+00  0.45593999997E+02  0.45594000000E+02  0.51100000000E-03 0. -1.
         11   -1    0    0    0    0 -0.00000000000E+00 -0.00000000000E+00 -0.45593999997E+02  0.45594000000E+02  0.51100000000E-03 0.  1.
    9900012    2    1    2    0    0  0.99031950236E+01 -0.29792660453E+02  0.55719340916E+01  0.59301916232E+02  0.49999949307E+02 0.  0.
        -12    1    1    2    0    0 -0.99031950236E+01  0.29792660453E+02 -0.55719340916E+01  0.31886083768E+02  0.00000000000E+00 0.  1.
         11    1    3    3    0    0 -0.46293939998E+01 -0.18681633951E+01 -0.39519434889E+01  0.63670386269E+01  0.51100000000E-03 0. -1.
        -11    1    3    3    0    0 -0.94228184145E+01 -0.21924692750E+02  0.14245292242E+02  0.27792265297E+02  0.51100000000E-03 0.  1.
         12    1    3    3    0    0  0.23955407438E+02 -0.59998043083E+01 -0.47214146615E+01  0.25142612308E+02  0.00000000000E+00 0. -1.
</event>
<event>
 7    1  0.3802554E-013  0.5930195E+02  0.7816164E-02  0.1266605E+00
        -11   -1    0    0    0    0  0.00000000000E+00  0.00000000000E+00  0.45593999997E+02  0.45594000000E+02  0.51100000000E-03 0.  1.
         11   -1    0    0    0    0 -0.00000000000E+00 -0.00000000000E+00 -0.45593999997E+02  0.45594000000E+02  0.51100000000E-03 0. -1.
    9900012    2    1    2    0    0 -0.17301784421E+02 -0.18745317369E+02 -0.19130646678E+02  0.59301948038E+02  0.50000007314E+02 0.  0.
        -12    1    1    2    0    0  0.17301784421E+02  0.18745317369E+02  0.19130646678E+02  0.31886051962E+02  0.00000000000E+00 0.  1.
         11    1    3    3    0    0  0.51387510807E+01 -0.19400080875E+02 -0.81003403815E+01  0.21642213731E+02  0.51100000000E-03 0. -1.
        -11    1    3    3    0    0  0.64027418777E+00 -0.19736311423E+01  0.76023490412E+01  0.78804112917E+01  0.51100000000E-03 0.  1.
         12    1    3    3    0    0 -0.23080809689E+02  0.26283946486E+01 -0.18632655337E+02  0.29779323016E+02  0.00000000000E+00 0. -1.
</event>
<event>
 7    1  0.3802554E-013  0.5930194E+02  0.7816164E-02  0.1266605E+00
        -11   -1    0    0    0    0  0.00000000000E+00  0.00000000000E+00  0.45593999997E+02  0.45594000000E+02  0.51100000000E-03 0.  1.
         11   -1    0    0    0    0 -0.00000000000E+00 -0.00000000000E+00 -0.45593999997E+02  0.45594000000E+02  0.51100000000E-03 0. -1.
    9900012    2    1    2    0    0 -0.22884459596E+02 -0.19626738108E+02 -0.10383318950E+02  0.59301942668E+02  0.49999997520E+02 0.  0.
        -12    1    1    2    0    0  0.22884459596E+02  0.19626738108E+02  0.10383318950E+02  0.31886057332E+02  0.00000000000E+00 0.  1.
         11    1    3    3    0    0 -0.12678117567E+02  0.11021448492E+02  0.54987380019E+01  0.17676060415E+02  0.51100000000E-03 0. -1.
        -11    1    3    3    0    0 -0.42363895390E+01  0.23075413372E+01 -0.33167743791E+01  0.58542920915E+01  0.51100000000E-03 0.  1.
        -12    1    3    3    0    0 -0.59699524907E+01 -0.32955727937E+02 -0.12565282572E+02  0.35771590162E+02  0.00000000000E+00 0.  1.
</event>
<event>
 7    1  0.3802554E-013  0.5930199E+02  0.7816164E-02  0.1266605E+00
        -11   -1    0    0    0    0  0.00000000000E+00  0.00000000000E+00  0.45593999997E+02  0.45594000000E+02  0.51100000000E-03 0.  1.
         11   -1    0    0    0    0 -0.00000000000E+00 -0.00000000000E+00 -0.45593999997E+02  0.45594000000E+02  0.51100000000E-03 0. -1.
    9900012    2    1    2    0    0 -0.79137450396E+01  0.12575311598E+02 -0.28212615931E+02  0.59301991783E+02  0.50000087095E+02 0.  0.
        -12    1    1    2    0    0  0.79137450396E+01 -0.12575311598E+02  0.28212615931E+02  0.31886008217E+02  0.00000000000E+00 0.  1.
         11    1    3    3    0    0 -0.10514163506E+02  0.39221857026E+01  0.26358994296E+01  0.11527321500E+02  0.51100000000E-03 0. -1.
        -11    1    3    3    0    0 -0.52978781872E+01 -0.35009010736E+01 -0.32565084895E+02  0.33178435407E+02  0.51100000000E-03 0.  1.
         12    1    3    3    0    0  0.78982966533E+01  0.12154026969E+02  0.17165695341E+01  0.14596234876E+02  0.00000000000E+00 0. -1.
</event>
<event>
 7    1  0.3802554E-013  0.5930194E+02  0.7816164E-02  0.1266605E+00
        -11   -1    0    0    0    0  0.00000000000E+00  0.00000000000E+00  0.45593999997E+02  0.45594000000E+02  0.51100000000E-03 0.  1.
         11   -1    0    0    0    0 -0.00000000000E+00 -0.00000000000E+00 -0.45593999997E+02  0.45594000000E+02  0.51100000000E-03 0. -1.
    9900012    2    1    2    0    0  0.21205248412E+02 -0.23665632846E+02  0.26450475387E+01  0.59301936984E+02  0.49999987153E+02 0.  0.
        -12    1    1    2    0    0 -0.21205248412E+02  0.23665632846E+02 -0.26450475387E+01  0.31886063016E+02  0.00000000000E+00 0.  1.
         11    1    3    3    0    0  0.74433691081E+01 -0.76502933189E+01 -0.66266177937E+01  0.12563550262E+02  0.51100000000E-03 0. -1.
        -11    1    3    3    0    0  0.16929809580E+02 -0.16456641980E+02 -0.11119730374E+02  0.26097661227E+02  0.51100000000E-03 0.  1.
        -12    1    3    3    0    0 -0.31679302762E+01  0.44130245308E+00  0.20391395706E+02  0.20640725494E+02  0.00000000000E+00 0.  1.
</event>
<event>
 7    1  0.3802554E-013  0.5930194E+02  0.7816164E-02  0.1266605E+00
        -11   -1    0    0    0    0  0.00000000000E+00  0.00000000000E+00  0.45593999997E+02  0.45594000000E+02  0.51100000000E-03 0.  1.
         11   -1    0    0    0    0 -0.00000000000E+00 -0.00000000000E+00 -0.45593999997E+02  0.45594000000E+02  0.51100000000E-03 0. -1.
    9900012    2    1    2    0    0  0.31429205489E+02 -0.83076108103E+00 -0.53137405177E+01  0.59301937842E+02  0.49999988718E+02 0.  0.
        -12    1    1    2    0    0 -0.31429205489E+02  0.83076108103E+00  0.53137405177E+01  0.31886062158E+02  0.00000000000E+00 0.  1.
         11    1    3    3    0    0  0.18236669489E+02 -0.16795997686E+02  0.96062470830E+00  0.24811377479E+02  0.51100000000E-03 0. -1.
        -11    1    3    3    0    0  0.18286906498E+02  0.50219530139E+01  0.30888531301E+01  0.19213848528E+02  0.51100000000E-03 0.  1.
        -12    1    3    3    0    0 -0.50943704973E+01  0.10943283591E+02 -0.93632183561E+01  0.15276711835E+02  0.00000000000E+00 0.  1.
</event>
<event>
 7    1  0.3802554E-013  0.5930195E+02  0.7816164E-02  0.1266605E+00
        -11   -1    0    0    0    0  0.00000000000E+00  0.00000000000E+00  0.45593999997E+02  0.45594000000E+02  0.51100000000E-03 0. -1.
         11   -1    0    0    0    0 -0.00000000000E+00 -0.00000000000E+00 -0.45593999997E+02  0.45594000000E+02  0.51100000000E-03 0.  1.
    9900012    2    1    2    0    0 -0.54022844736E+01 -0.21435203183E+02  0.22979715249E+02  0.59301954056E+02  0.50000018289E+02 0.  0.
        -12    1    1    2    0    0  0.54022844736E+01  0.21435203183E+02 -0.22979715249E+02  0.31886045944E+02  0.00000000000E+00 0.  1.
         11    1    3    3    0    0 -0.21720573622E+02 -0.15450941777E+02  0.19666411243E+02  0.33125257006E+02  0.51100000000E-03 0. -1.
        -11    1    3    3    0    0  0.24293097625E+01 -0.96008500480E+01 -0.32113514804E+01  0.10411082852E+02  0.51100000000E-03 0.  1.
        -12    1    3    3    0    0  0.13888979386E+02  0.36165886421E+01  0.65246554868E+01  0.15765614198E+02  0.00000000000E+00 0.  1.
</event>
<event>
 7    1  0.3802554E-013  0.5930181E+02  0.7816164E-02  0.1266605E+00
        -11   -1    0    0    0    0  0.00000000000E+00  0.00000000000E+00  0.45593999997E+02  0.45594000000E+02  0.51100000000E-03 0. -1.
         11   -1    0    0    0    0 -0.00000000000E+00 -0.00000000000E+00 -0.45593999997E+02  0.45594000000E+02  0.51100000000E-03 0.  1.
    9900012    2    1    2    0    0 -0.30529192345E+02  0.59783897654E+01 -0.69968975533E+01  0.59301806988E+02  0.49999750072E+02 0.  0.
        -12    1    1    2    0    0  0.30529192345E+02 -0.59783897654E+01  0.69968975533E+01  0.31886193012E+02  0.00000000000E+00 0.  1.
         11    1    3    3    0    0 -0.19141698763E+02  0.49644211305E+01 -0.15848363186E+01  0.19838392453E+02  0.51100000000E-03 0. -1.
        -11    1    3    3    0    0 -0.36933642176E+01  0.18968369471E+02 -0.48399526852E+01  0.19921473889E+02  0.51100000000E-03 0.  1.
        -12    1    3    3    0    0 -0.76941293645E+01 -0.17954400836E+02 -0.57210854940E+00  0.19541940647E+02  0.00000000000E+00 0.  1.
</event>
<event>
 7    1  0.3802554E-013  0.5930194E+02  0.7816164E-02  0.1266605E+00
        -11   -1    0    0    0    0  0.00000000000E+00  0.00000000000E+00  0.45593999997E+02  0.45594000000E+02  0.51100000000E-03 0. -1.
         11   -1    0    0    0    0 -0.00000000000E+00 -0.00000000000E+00 -0.45593999997E+02  0.45594000000E+02  0.51100000000E-03 0.  1.
    9900012    2    1    2    0    0  0.38500989559E+01  0.12269718568E+02  0.29177932915E+02  0.59301936824E+02  0.49999986862E+02 0.  0.
        -12    1    1    2    0    0 -0.38500989559E+01 -0.12269718568E+02 -0.29177932915E+02  0.31886063176E+02  0.00000000000E+00 0.  1.
         11    1    3    3    0    0 -0.14977303404E+01  0.13633998339E+02  0.58578114413E+01  0.14914525202E+02  0.51100000000E-03 0. -1.
        -11    1    3    3    0    0  0.26844555084E+01 -0.16096521767E+02 -0.41623597741E+00  0.16324140622E+02  0.51100000000E-03 0.  1.
         12    1    3    3    0    0  0.26633737879E+01  0.14732241996E+02  0.23736357451E+02  0.28063271000E+02  0.00000000000E+00 0. -1.
</event>
<event>
 7    1  0.3802554E-013  0.5930194E+02  0.7816164E-02  0.1266605E+00
        -11   -1    0    0    0    0  0.00000000000E+00  0.00000000000E+00  0.45593999997E+02  0.45594000000E+02  0.51100000000E-03 0.  1.
         11   -1    0    0    0    0 -0.00000000000E+00 -0.00000000000E+00 -0.45593999997E+02  0.45594000000E+02  0.51100000000E-03 0. -1.
    9900012    2    1    2    0    0  0.18468051065E+02 -0.11160366479E+01 -0.25969329536E+02  0.59301944671E+02  0.50000001173E+02 0.  0.
        -12    1    1    2    0    0 -0.18468051065E+02  0.11160366479E+01  0.25969329536E+02  0.31886055329E+02  0.00000000000E+00 0.  1.
         11    1    3    3    0    0  0.14081899637E+02 -0.20046881940E+02 -0.73344443581E+01  0.25572865448E+02  0.51100000000E-03 0. -1.
        -11    1    3    3    0    0  0.27369154703E+01  0.26694102526E+00  0.36782523223E+01  0.45925487706E+01  0.51100000000E-03 0.  1.
        -12    1    3    3    0    0  0.16492359576E+01  0.18663904267E+02 -0.22313137500E+02  0.29136530453E+02  0.00000000000E+00 0.  1.
</event>
<event>
 7    1  0.3802554E-013  0.5930196E+02  0.7816164E-02  0.1266605E+00
        -11   -1    0    0    0    0  0.00000000000E+00  0.00000000000E+00  0.45593999997E+02  0.45594000000E+02  0.51100000000E-03 0.  1.
         11   -1    0    0    0    0 -0.00000000000E+00 -0.00000000000E+00 -0.45593999997E+02  0.45594000000E+02  0.51100000000E-03 0. -1.
    9900012    2    1    2    0    0 -0.14165538965E+02 -0.28547545071E+02  0.10464053675E+01  0.59301956220E+02  0.50000022236E+02 0.  0.
        -12    1    1    2    0    0  0.14165538965E+02  0.28547545071E+02 -0.10464053675E+01  0.31886043780E+02  0.00000000000E+00 0.  1.
         11    1    3    3    0    0  0.95505211660E+01 -0.11907316045E+01  0.61015398353E+01  0.11395573040E+02  0.51100000000E-03 0. -1.
        -11    1    3    3    0    0 -0.31258582595E+01 -0.13308703163E+01  0.10659476076E+02  0.11187789600E+02  0.51100000000E-03 0.  1.
         12    1    3    3    0    0 -0.20590201871E+02 -0.26025943150E+02 -0.15714610544E+02  0.36718593580E+02  0.00000000000E+00 0. -1.
</event>
<event>
 7    1  0.3802554E-013  0.5930184E+02  0.7816164E-02  0.1266605E+00
        -11   -1    0    0    0    0  0.00000000000E+00  0.00000000000E+00  0.45593999997E+02  0.45594000000E+02  0.51100000000E-03 0.  1.
         11   -1    0    0    0    0 -0.00000000000E+00 -0.00000000000E+00 -0.45593999997E+02  0.45594000000E+02  0.51100000000E-03 0. -1.
    9900012    2    1    2    0    0  0.60108495181E+01  0.93445033821E+01 -0.29887739145E+02  0.59301843025E+02  0.49999815796E+02 0.  0.
        -12    1    1    2    0    0 -0.60108495181E+01 -0.93445033821E+01  0.29887739145E+02  0.31886156975E+02  0.00000000000E+00 0.  1.
         11    1    3    3    0    0 -0.11004235198E+02  0.28895617577E+01 -0.80255748458E+00  0.11405562600E+02  0.51100000000E-03 0. -1.
        -11    1    3    3    0    0 -0.90172634578E+01 -0.15208073925E+00 -0.10619514800E+01  0.90808540362E+01  0.51100000000E-03 0.  1.
         12    1    3    3    0    0  0.26032348174E+02  0.66070223637E+01 -0.28023230181E+02  0.38815426389E+02  0.00000000000E+00 0. -1.
</event>
<event>
 7    1  0.3802554E-013  0.5930196E+02  0.7816164E-02  0.1266605E+00
        -11   -1    0    0    0    0  0.00000000000E+00  0.00000000000E+00  0.45593999997E+02  0.45594000000E+02  0.51100000000E-03 0.  1.
         11   -1    0    0    0    0 -0.00000000000E+00 -0.00000000000E+00 -0.45593999997E+02  0.45594000000E+02  0.51100000000E-03 0. -1.
    9900012    2    1    2    0    0 -0.21412845601E+00 -0.31012897431E+02 -0.74076830660E+01  0.59301961888E+02  0.50000032573E+02 0.  0.
        -12    1    1    2    0    0  0.21412845601E+00  0.31012897431E+02  0.74076830660E+01  0.31886038112E+02  0.00000000000E+00 0.  1.
         11    1    3    3    0    0 -0.18227911250E+02 -0.19168673414E+02 -0.15601697223E+02  0.30710059354E+02  0.51100000000E-03 0. -1.
        -11    1    3    3    0    0 -0.80849161098E+00 -0.30201374375E+01 -0.35382464901E+01  0.47216604402E+01  0.51100000000E-03 0.  1.
        -12    1    3    3    0    0  0.18822274405E+02 -0.88240865796E+01  0.11732260647E+02  0.23870242094E+02  0.00000000000E+00 0.  1.
</event>
<event>
 7    1  0.3802554E-013  0.5930198E+02  0.7816164E-02  0.1266605E+00
        -11   -1    0    0    0    0  0.00000000000E+00  0.00000000000E+00  0.45593999997E+02  0.45594000000E+02  0.51100000000E-03 0.  1.
         11   -1    0    0    0    0 -0.00000000000E+00 -0.00000000000E+00 -0.45593999997E+02  0.45594000000E+02  0.51100000000E-03 0. -1.
    9900012    2    1    2    0    0  0.29437824451E+02  0.12218447081E+02  0.91794328706E+00  0.59301975203E+02  0.50000056856E+02 0.  0.
        -12    1    1    2    0    0 -0.29437824451E+02 -0.12218447081E+02 -0.91794328706E+00  0.31886024797E+02  0.00000000000E+00 0.  1.
         11    1    3    3    0    0  0.31043084831E+01  0.15191667586E+02 -0.54700762817E+00  0.15515241307E+02  0.51100000000E-03 0. -1.
        -11    1    3    3    0    0  0.24400856352E+02  0.64897333987E+01  0.13278277578E+02  0.28527724865E+02  0.51100000000E-03 0.  1.
         12    1    3    3    0    0  0.19326596158E+01 -0.94629539033E+01 -0.11813326663E+02  0.15259009031E+02  0.00000000000E+00 0. -1.
</event>
<event>
 7    1  0.3802554E-013  0.5930180E+02  0.7816164E-02  0.1266605E+00
        -11   -1    0    0    0    0  0.00000000000E+00  0.00000000000E+00  0.45593999997E+02  0.45594000000E+02  0.51100000000E-03 0. -1.
         11   -1    0    0    0    0 -0.00000000000E+00 -0.00000000000E+00 -0.45593999997E+02  0.45594000000E+02  0.51100000000E-03 0.  1.
    9900012    2    1    2    0    0  0.70305091395E+01 -0.30281896094E+02  0.70928465631E+01  0.59301799816E+02  0.49999736991E+02 0.  0.
        -12    1    1    2    0    0 -0.70305091395E+01  0.30281896094E+02 -0.70928465631E+01  0.31886200184E+02  0.00000000000E+00 0.  1.
         11    1    3    3    0    0  0.15014572145E+02 -0.51405157408E+01 -0.28135325234E+01  0.16117637677E+02  0.51100000000E-03 0. -1.
        -11    1    3    3    0    0  0.97318897197E+01 -0.90049613445E+01 -0.58633589625E+01  0.14497516509E+02  0.51100000000E-03 0.  1.
         12    1    3    3    0    0 -0.17715952725E+02 -0.16136419009E+02  0.15769738049E+02  0.28686645630E+02  0.00000000000E+00 0. -1.
</event>
<event>
 7    1  0.3802554E-013  0.5930195E+02  0.7816164E-02  0.1266605E+00
        -11   -1    0    0    0    0  0.00000000000E+00  0.00000000000E+00  0.45593999997E+02  0.45594000000E+02  0.51100000000E-03 0.  1.
         11   -1    0    0    0    0 -0.00000000000E+00 -0.00000000000E+00 -0.45593999997E+02  0.45594000000E+02  0.51100000000E-03 0. -1.
    9900012    2    1    2    0    0  0.31504854891E+02  0.35702724871E+01  0.33789735103E+01  0.59301949926E+02  0.50000010757E+02 0.  0.
        -12    1    1    2    0    0 -0.31504854891E+02 -0.35702724871E+01 -0.33789735103E+01  0.31886050074E+02  0.00000000000E+00 0.  1.
         11    1    3    3    0    0 -0.31446289331E+01  0.82696424589E+00 -0.92485103362E+01  0.98034435119E+01  0.51100000000E-03 0. -1.
        -11    1    3    3    0    0  0.32867079269E+02  0.13744159579E+02  0.13985133224E+02  0.38271801288E+02  0.51100000000E-03 0.  1.
         12    1    3    3    0    0  0.17824045549E+01 -0.11000851338E+02 -0.13576493777E+01  0.11226705126E+02  0.00000000000E+00 0. -1.
</event>
<event>
 7    1  0.3802554E-013  0.5930194E+02  0.7816164E-02  0.1266605E+00
        -11   -1    0    0    0    0  0.00000000000E+00  0.00000000000E+00  0.45593999997E+02  0.45594000000E+02  0.51100000000E-03 0.  1.
         11   -1    0    0    0    0 -0.00000000000E+00 -0.00000000000E+00 -0.45593999997E+02  0.45594000000E+02  0.51100000000E-03 0. -1.
    9900012    2    1    2    0    0 -0.17054225922E+02  0.40102091931E+01 -0.26641930075E+02  0.59301939759E+02  0.49999992216E+02 0.  0.
        -12    1    1    2    0    0  0.17054225922E+02 -0.40102091931E+01  0.26641930075E+02  0.31886060241E+02  0.00000000000E+00 0.  1.
         11    1    3    3    0    0 -0.18916817427E+02  0.67548793744E+00 -0.36848442107E+02  0.41425957460E+02  0.51100000000E-03 0. -1.
        -11    1    3    3    0    0 -0.57952596361E+01 -0.80045792070E+00  0.52498426729E+01  0.78604462650E+01  0.51100000000E-03 0.  1.
        -12    1    3    3    0    0  0.76578511414E+01  0.41351791764E+01  0.49566693591E+01  0.10015536035E+02  0.00000000000E+00 0.  1.
</event>
<event>
 7    1  0.3802554E-013  0.5930194E+02  0.7816164E-02  0.1266605E+00
        -11   -1    0    0    0    0  0.00000000000E+00  0.00000000000E+00  0.45593999997E+02  0.45594000000E+02  0.51100000000E-03 0.  1.
         11   -1    0    0    0    0 -0.00000000000E+00 -0.00000000000E+00 -0.45593999997E+02  0.45594000000E+02  0.51100000000E-03 0. -1.
    9900012    2    1    2    0    0  0.20755170905E+02 -0.21487909632E+02  0.11145097056E+02  0.59301943988E+02  0.49999999927E+02 0.  0.
        -12    1    1    2    0    0 -0.20755170905E+02  0.21487909632E+02 -0.11145097056E+02  0.31886056012E+02  0.00000000000E+00 0.  1.
         11    1    3    3    0    0  0.11126416206E+01 -0.14585495337E+02 -0.50169649647E-01  0.14627958260E+02  0.51100000000E-03 0. -1.
        -11    1    3    3    0    0 -0.94457774940E+01 -0.74871619078E+01  0.98203485480E+01  0.15547332625E+02  0.51100000000E-03 0.  1.
        -12    1    3    3    0    0  0.29088306778E+02  0.58474761304E+00  0.13749181578E+01  0.29126653102E+02  0.00000000000E+00 0.  1.
</event>
<event>
 7    1  0.3802554E-013  0.5930194E+02  0.7816164E-02  0.1266605E+00
        -11   -1    0    0    0    0  0.00000000000E+00  0.00000000000E+00  0.45593999997E+02  0.45594000000E+02  0.51100000000E-03 0.  1.
         11   -1    0    0    0    0 -0.00000000000E+00 -0.00000000000E+00 -0.45593999997E+02  0.45594000000E+02  0.51100000000E-03 0. -1.
    9900012    2    1    2    0    0 -0.14743389285E+02 -0.17383654752E+02  0.22297119360E+02  0.59301944868E+02  0.50000001532E+02 0.  0.
        -12    1    1    2    0    0  0.14743389285E+02  0.17383654752E+02 -0.22297119360E+02  0.31886055132E+02  0.00000000000E+00 0.  1.
         11    1    3    3    0    0 -0.29833521914E+01 -0.29553550663E+00 -0.32365110776E+01  0.44116590700E+01  0.51100000000E-03 0. -1.
        -11    1    3    3    0    0 -0.23771327682E+02 -0.17238136252E+02  0.30089688264E+02  0.42043057707E+02  0.51100000000E-03 0.  1.
         12    1    3    3    0    0  0.12011290589E+02  0.15001700719E+00 -0.45560578268E+01  0.12847228091E+02  0.00000000000E+00 0. -1.
</event>
<event>
 7    1  0.3802554E-013  0.5930194E+02  0.7816164E-02  0.1266605E+00
        -11   -1    0    0    0    0  0.00000000000E+00  0.00000000000E+00  0.45593999997E+02  0.45594000000E+02  0.51100000000E-03 0.  1.
         11   -1    0    0    0    0 -0.00000000000E+00 -0.00000000000E+00 -0.45593999997E+02  0.45594000000E+02  0.51100000000E-03 0. -1.
    9900012    2    1    2    0    0 -0.26068289290E+02 -0.15549187414E+02 -0.97666870640E+01  0.59301935459E+02  0.49999984372E+02 0.  0.
        -12    1    1    2    0    0  0.26068289290E+02  0.15549187414E+02  0.97666870640E+01  0.31886064541E+02  0.00000000000E+00 0.  1.
         11    1    3    3    0    0 -0.26171908449E+02 -0.61437527519E+01  0.38941692366E+01  0.27163929098E+02  0.51100000000E-03 0. -1.
        -11    1    3    3    0    0  0.88013230458E+01  0.54415696256E+01 -0.29866988120E+00  0.10351964611E+02  0.51100000000E-03 0.  1.
        -12    1    3    3    0    0 -0.86977038859E+01 -0.14847004288E+02 -0.13362186419E+02  0.21786041749E+02  0.00000000000E+00 0.  1.
</event>
<event>
 7    1  0.3802554E-013  0.5930196E+02  0.7816164E-02  0.1266605E+00
        -11   -1    0    0    0    0  0.00000000000E+00  0.00000000000E+00  0.45593999997E+02  0.45594000000E+02  0.51100000000E-03 0.  1.
         11   -1    0    0    0    0 -0.00000000000E+00 -0.00000000000E+00 -0.45593999997E+02  0.45594000000E+02  0.51100000000E-03 0. -1.
    9900012    2    1    2    0    0 -0.23637456556E+02  0.20299054141E+02 -0.67778022583E+01  0.59301959874E+02  0.50000028899E+02 0.  0.
        -12    1    1    2    0    0  0.23637456556E+02 -0.20299054141E+02  0.67778022583E+01  0.31886040126E+02  0.00000000000E+00 0.  1.
         11    1    3    3    0    0 -0.30109823803E+02  0.26749623964E+02 -0.50352193568E+01  0.40589374297E+02  0.51100000000E-03 0. -1.
        -11    1    3    3    0    0 -0.51683508848E+01 -0.31340910884E+01  0.14061882033E+01  0.62057830564E+01  0.51100000000E-03 0.  1.
         12    1    3    3    0    0  0.11640718131E+02 -0.33164787340E+01 -0.31487711048E+01  0.12506802520E+02  0.00000000000E+00 0. -1.
</event>
<event>
 7    1  0.3802554E-013  0.5930197E+02  0.7816164E-02  0.1266605E+00
        -11   -1    0    0    0    0  0.00000000000E+00  0.00000000000E+00  0.45593999997E+02  0.45594000000E+02  0.51100000000E-03 0. -1.
         11   -1    0    0    0    0 -0.00000000000E+00 -0.00000000000E+00 -0.45593999997E+02  0.45594000000E+02  0.51100000000E-03 0.  1.
    9900012    2    1    2    0    0 -0.63699012651E+01  0.11455257993E+02  0.29067514246E+02  0.59301969167E+02  0.50000045848E+02 0.  0.
        -12    1    1    2    0    0  0.63699012651E+01 -0.11455257993E+02 -0.29067514246E+02  0.31886030833E+02  0.00000000000E+00 0.  1.
         11    1    3    3    0    0 -0.26704476675E+01  0.14545064596E+02  0.39026497837E+01  0.15294471891E+02  0.51100000000E-03 0. -1.
        -11    1    3    3    0    0 -0.70166101148E+01 -0.65594244973E+01 -0.67461175660E+01  0.11737502703E+02  0.51100000000E-03 0.  1.
        -12    1    3    3    0    0  0.33171565171E+01  0.34696178946E+01  0.31910982028E+02  0.32269994573E+02  0.00000000000E+00 0.  1.
</event>
<event>
 7    1  0.3802554E-013  0.5930194E+02  0.7816164E-02  0.1266605E+00
        -11   -1    0    0    0    0  0.00000000000E+00  0.00000000000E+00  0.45593999997E+02  0.45594000000E+02  0.51100000000E-03 0. -1.
         11   -1    0    0    0    0 -0.00000000000E+00 -0.00000000000E+00 -0.45593999997E+02  0.45594000000E+02  0.51100000000E-03 0.  1.
    9900012    2    1    2    0    0  0.90695536277E+01 -0.30242911990E+02  0.44531267901E+01  0.59301939302E+02  0.49999991381E+02 0.  0.
        -12    1    1    2    0    0 -0.90695536277E+01  0.30242911990E+02 -0.44531267901E+01  0.31886060698E+02  0.00000000000E+00 0.  1.
         11    1    3    3    0    0 -0.20755661233E+01  0.29747428133E+00 -0.16708558447E+01  0.26810865699E+01  0.51100000000E-03 0. -1.
        -11    1    3    3    0    0 -0.10252373924E+02  0.73712764761E+01 -0.21135366089E+00  0.12628996738E+02  0.51100000000E-03 0.  1.
         12    1    3    3    0    0  0.21397493675E+02 -0.37911662747E+02  0.63353362957E+01  0.43991855994E+02  0.00000000000E+00 0. -1.
</event>
<event>
 7    1  0.3802554E-013  0.5930193E+02  0.7816164E-02  0.1266605E+00
        -11   -1    0    0    0    0  0.00000000000E+00  0.00000000000E+00  0.45593999997E+02  0.45594000000E+02  0.51100000000E-03 0.  1.
         11   -1    0    0    0    0 -0.00000000000E+00 -0.00000000000E+00 -0.45593999997E+02  0.45594000000E+02  0.51100000000E-03 0. -1.
    9900012    2    1    2    0    0 -0.72218511707E+01  0.27126078884E+02 -0.15124223103E+02  0.59301930716E+02  0.49999975722E+02 0.  0.
        -12    1    1    2    0    0  0.72218511707E+01 -0.27126078884E+02  0.15124223103E+02  0.31886069284E+02  0.00000000000E+00 0.  1.
         11    1    3    3    0    0  0.11329152574E+02  0.10172444108E+02 -0.20751372067E+01  0.15366668861E+02  0.51100000000E-03 0. -1.
        -11    1    3    3    0    0  0.11121941727E+01 -0.91627624502E+01 -0.21720352488E+01  0.94821373635E+01  0.51100000000E-03 0.  1.
        -12    1    3    3    0    0 -0.19663197918E+02  0.26116397226E+02 -0.10877050647E+02  0.34453124491E+02  0.00000000000E+00 0.  1.
</event>
<event>
 7    1  0.3802554E-013  0.5930197E+02  0.7816164E-02  0.1266605E+00
        -11   -1    0    0    0    0  0.00000000000E+00  0.00000000000E+00  0.45593999997E+02  0.45594000000E+02  0.51100000000E-03 0.  1.
         11   -1    0    0    0    0 -0.00000000000E+00 -0.00000000000E+00 -0.45593999997E+02  0.45594000000E+02  0.51100000000E-03 0. -1.
    9900012    2    1    2    0    0  0.14689393110E+02 -0.86978548974E+01  0.26931168853E+02  0.59301971624E+02  0.50000050329E+02 0.  0.
        -12    1    1    2    0    0 -0.14689393110E+02  0.86978548974E+01 -0.26931168853E+02  0.31886028376E+02  0.00000000000E+00 0.  1.
         11    1    3    3    0    0  0.18852882278E+02 -0.11890176488E+02  0.18328555851E+02  0.28857294172E+02  0.51100000000E-03 0. -1.
        -11    1    3    3    0    0  0.73802898406E+01  0.26597631749E+01 -0.73473904709E+01  0.10748356399E+02  0.51100000000E-03 0.  1.
        -12    1    3    3    0    0 -0.11543779008E+02  0.53255841577E+00  0.15950003473E+02  0.19696321053E+02  0.00000000000E+00 0.  1.
</event>
<event>
 7    1  0.3802554E-013  0.5930193E+02  0.7816164E-02  0.1266605E+00
        -11   -1    0    0    0    0  0.00000000000E+00  0.00000000000E+00  0.45593999997E+02  0.45594000000E+02  0.51100000000E-03 0. -1.
         11   -1    0    0    0    0 -0.00000000000E+00 -0.00000000000E+00 -0.45593999997E+02  0.45594000000E+02  0.51100000000E-03 0.  1.
    9900012    2    1    2    0    0  0.13096999181E+02  0.27958180380E+02  0.79705920992E+01  0.59301928180E+02  0.49999971098E+02 0.  0.
        -12    1    1    2    0    0 -0.13096999181E+02 -0.27958180380E+02 -0.79705920992E+01  0.31886071820E+02  0.00000000000E+00 0.  1.
         11    1    3    3    0    0  0.59873114786E+01  0.48841268328E+01  0.82739859001E+01  0.11320840808E+02  0.51100000000E-03 0. -1.
        -11    1    3    3    0    0 -0.62942701862E+01  0.23044410499E+02  0.14552407710E+02  0.27972044309E+02  0.51100000000E-03 0.  1.
         12    1    3    3    0    0  0.13403957889E+02  0.29643048001E-01 -0.14855801510E+02  0.20009043063E+02  0.00000000000E+00 0. -1.
</event>
<event>
 7    1  0.3802554E-013  0.5930193E+02  0.7816164E-02  0.1266605E+00
        -11   -1    0    0    0    0  0.00000000000E+00  0.00000000000E+00  0.45593999997E+02  0.45594000000E+02  0.51100000000E-03 0. -1.
         11   -1    0    0    0    0 -0.00000000000E+00 -0.00000000000E+00 -0.45593999997E+02  0.45594000000E+02  0.51100000000E-03 0.  1.
    9900012    2    1    2    0    0 -0.18755851839E+02 -0.19229598803E+02 -0.17180279106E+02  0.59301930338E+02  0.49999975032E+02 0.  0.
        -12    1    1    2    0    0  0.18755851839E+02  0.19229598803E+02  0.17180279106E+02  0.31886069662E+02  0.00000000000E+00 0.  1.
         11    1    3    3    0    0 -0.46529536925E+00 -0.25994056021E+01 -0.19471178312E+02  0.19649432419E+02  0.51100000000E-03 0. -1.
        -11    1    3    3    0    0  0.85196043880E+01 -0.64247407237E+01 -0.12683365777E+01  0.10745679608E+02  0.51100000000E-03 0.  1.
         12    1    3    3    0    0 -0.26810160858E+02 -0.10205452477E+02  0.35592357833E+01  0.28906818311E+02  0.00000000000E+00 0. -1.
</event>
<event>
 7    1  0.3802554E-013  0.5930195E+02  0.7816164E-02  0.1266605E+00
        -11   -1    0    0    0    0  0.00000000000E+00  0.00000000000E+00  0.45593999997E+02  0.45594000000E+02  0.51100000000E-03 0.  1.
         11   -1    0    0    0    0 -0.00000000000E+00 -0.00000000000E+00 -0.45593999997E+02  0.45594000000E+02  0.51100000000E-03 0. -1.
    9900012    2    1    2    0    0  0.94764931231E+01  0.30328122749E+02  0.26685910620E+01  0.59301947725E+02  0.50000006744E+02 0.  0.
        -12    1    1    2    0    0 -0.94764931231E+01 -0.30328122749E+02 -0.26685910620E+01  0.31886052275E+02  0.00000000000E+00 0.  1.
         11    1    3    3    0    0  0.97966851217E+00  0.13762063546E+02 -0.13491140782E+02  0.19296761990E+02  0.51100000000E-03 0. -1.
        -11    1    3    3    0    0  0.57784691662E+01  0.64467972189E+01 -0.91594964745E+01  0.12603502538E+02  0.51100000000E-03 0.  1.
        -12    1    3    3    0    0  0.27183554448E+01  0.10119261984E+02  0.25319228319E+02  0.27401683198E+02  0.00000000000E+00 0.  1.
</event>
<event>
 7    1  0.3802554E-013  0.5930192E+02  0.7816164E-02  0.1266605E+00
        -11   -1    0    0    0    0  0.00000000000E+00  0.00000000000E+00  0.45593999997E+02  0.45594000000E+02  0.51100000000E-03 0. -1.
         11   -1    0    0    0    0 -0.00000000000E+00 -0.00000000000E+00 -0.45593999997E+02  0.45594000000E+02  0.51100000000E-03 0.  1.
    9900012    2    1    2    0    0  0.31835127720E+02 -0.15075066903E+01  0.98701867759E+00  0.59301919350E+02  0.49999954993E+02 0.  0.
        -12    1    1    2    0    0 -0.31835127720E+02  0.15075066903E+01 -0.98701867759E+00  0.31886080650E+02  0.00000000000E+00 0.  1.
         11    1    3    3    0    0  0.38377231507E+02  0.35465105894E+01  0.72066901186E+01  0.39208749256E+02  0.51100000000E-03 0. -1.
        -11    1    3    3    0    0 -0.29577007868E+01  0.55816231203E+01 -0.62265726215E+01  0.88697642287E+01  0.51100000000E-03 0.  1.
        -12    1    3    3    0    0 -0.35844030000E+01 -0.10635640400E+02  0.69011804281E-02  0.11223405865E+02  0.00000000000E+00 0.  1.
</event>
<event>
 7    1  0.3802554E-013  0.5930194E+02  0.7816164E-02  0.1266605E+00
        -11   -1    0    0    0    0  0.00000000000E+00  0.00000000000E+00  0.45593999997E+02  0.45594000000E+02  0.51100000000E-03 0.  1.
         11   -1    0    0    0    0 -0.00000000000E+00 -0.00000000000E+00 -0.45593999997E+02  0.45594000000E+02  0.51100000000E-03 0. -1.
    9900012    2    1    2    0    0 -0.15789323096E+02  0.15627419149E+02 -0.22873608726E+02  0.59301938324E+02  0.49999989597E+02 0.  0.
        -12    1    1    2    0    0  0.15789323096E+02 -0.15627419149E+02  0.22873608726E+02  0.31886061676E+02  0.00000000000E+00 0.  1.
         11    1    3    3    0    0  0.64628427993E+01  0.83368086437E+01 -0.47213264241E+01  0.11556887075E+02  0.51100000000E-03 0. -1.
        -11    1    3    3    0    0 -0.54222158078E+01  0.84250291079E+01 -0.26927398928E+02  0.28730930250E+02  0.51100000000E-03 0.  1.
        -12    1    3    3    0    0 -0.16829950087E+02 -0.11344186022E+01  0.87751166269E+01  0.19014120998E+02  0.00000000000E+00 0.  1.
</event>
<event>
 7    1  0.3802554E-013  0.5930196E+02  0.7816164E-02  0.1266605E+00
        -11   -1    0    0    0    0  0.00000000000E+00  0.00000000000E+00  0.45593999997E+02  0.45594000000E+02  0.51100000000E-03 0. -1.
         11   -1    0    0    0    0 -0.00000000000E+00 -0.00000000000E+00 -0.45593999997E+02  0.45594000000E+02  0.51100000000E-03 0.  1.
    9900012    2    1    2    0    0 -0.21383547680E+01  0.41193545738E+00  0.31811589073E+02  0.59301961499E+02  0.50000031864E+02 0.  0.
        -12    1    1    2    0    0  0.21383547680E+01 -0.41193545738E+00 -0.31811589073E+02  0.31886038501E+02  0.00000000000E+00 0.  1.
         11    1    3    3    0    0  0.36353858511E+01  0.16258725730E+00 -0.33986145681E+01  0.49792616065E+01  0.51100000000E-03 0. -1.
        -11    1    3    3    0    0 -0.21651481126E+01 -0.86118583228E+01 -0.68330092908E+01  0.11204552037E+02  0.51100000000E-03 0.  1.
         12    1    3    3    0    0 -0.36085925065E+01  0.88612065229E+01  0.42043212931E+02  0.43118147856E+02  0.00000000000E+00 0. -1.
</event>
<event>
 7    1  0.3802554E-013  0.5930192E+02  0.7816164E-02  0.1266605E+00
        -11   -1    0    0    0    0  0.00000000000E+00  0.00000000000E+00  0.45593999997E+02  0.45594000000E+02  0.51100000000E-03 0. -1.
         11   -1    0    0    0    0 -0.00000000000E+00 -0.00000000000E+00 -0.45593999997E+02  0.45594000000E+02  0.51100000000E-03 0.  1.
    9900012    2    1    2    0    0 -0.28215109170E+02  0.14745416172E+02  0.17894511451E+01  0.59301924372E+02  0.49999964152E+02 0.  0.
        -12    1    1    2    0    0  0.28215109170E+02 -0.14745416172E+02 -0.17894511451E+01  0.31886075628E+02  0.00000000000E+00 0.  1.
         11    1    3    3    0    0 -0.24962025331E+02 -0.41279643315E+01  0.77068872897E+00  0.25312778582E+02  0.51100000000E-03 0. -1.
        -11    1    3    3    0    0 -0.13707917316E+02  0.18406322123E+02  0.35480376781E+01  0.23222580883E+02  0.51100000000E-03 0.  1.
         12    1    3    3    0    0  0.10454833477E+02  0.46705838019E+00 -0.25292752620E+01  0.10766564907E+02  0.00000000000E+00 0. -1.
</event>
<event>
 7    1  0.3802554E-013  0.5930192E+02  0.7816164E-02  0.1266605E+00
        -11   -1    0    0    0    0  0.00000000000E+00  0.00000000000E+00  0.45593999997E+02  0.45594000000E+02  0.51100000000E-03 0. -1.
         11   -1    0    0    0    0 -0.00000000000E+00 -0.00000000000E+00 -0.45593999997E+02  0.45594000000E+02  0.51100000000E-03 0.  1.
    9900012    2    1    2    0    0 -0.14755115756E+02 -0.22177705251E+02  0.17525927005E+02  0.59301918890E+02  0.49999954155E+02 0.  0.
        -12    1    1    2    0    0  0.14755115756E+02  0.22177705251E+02 -0.17525927005E+02  0.31886081110E+02  0.00000000000E+00 0.  1.
         11    1    3    3    0    0 -0.30936300769E+01 -0.58305638780E+01  0.76474034727E+01  0.10101920725E+02  0.51100000000E-03 0. -1.
        -11    1    3    3    0    0  0.49666476508E+01 -0.27582234967E+02  0.73483490825E+01  0.28973186037E+02  0.51100000000E-03 0.  1.
        -12    1    3    3    0    0 -0.16628133330E+02  0.11235093594E+02  0.25301744498E+01  0.20226812128E+02  0.00000000000E+00 0.  1.
</event>
<event>
 7    1  0.3802554E-013  0.5930156E+02  0.7816164E-02  0.1266606E+00
        -11   -1    0    0    0    0  0.00000000000E+00  0.00000000000E+00  0.45593999997E+02  0.45594000000E+02  0.51100000000E-03 0. -1.
         11   -1    0    0    0    0 -0.00000000000E+00 -0.00000000000E+00 -0.45593999997E+02  0.45594000000E+02  0.51100000000E-03 0.  1.
    9900012    2    1    2    0    0  0.21532622232E+01 -0.11339170512E+02  0.29724261963E+02  0.59301559694E+02  0.49999299063E+02 0.  0.
        -12    1    1    2    0    0 -0.21532622232E+01  0.11339170512E+02 -0.29724261963E+02  0.31886440306E+02  0.00000000000E+00 0.  1.
         11    1    3    3    0    0  0.31015680329E+01  0.49595637735E+01  0.69378261385E+01  0.90747137077E+01  0.51100000000E-03 0. -1.
        -11    1    3    3    0    0  0.12685184639E+02  0.86648103359E+01  0.32004090792E+01  0.15691891729E+02  0.51100000000E-03 0.  1.
         12    1    3    3    0    0 -0.13633490449E+02 -0.24963544622E+02  0.19586026746E+02  0.34534954258E+02  0.00000000000E+00 0. -1.
</event>
<event>
 7    1  0.3802554E-013  0.5930194E+02  0.7816164E-02  0.1266605E+00
        -11   -1    0    0    0    0  0.00000000000E+00  0.00000000000E+00  0.45593999997E+02  0.45594000000E+02  0.51100000000E-03 0.  1.
         11   -1    0    0    0    0 -0.00000000000E+00 -0.00000000000E+00 -0.45593999997E+02  0.45594000000E+02  0.51100000000E-03 0. -1.
    9900012    2    1    2    0    0 -0.27795508446E+02 -0.13896695594E+02 -0.71422836952E+01  0.59301942631E+02  0.49999997452E+02 0.  0.
        -12    1    1    2    0    0  0.27795508446E+02  0.13896695594E+02  0.71422836952E+01  0.31886057369E+02  0.00000000000E+00 0.  1.
         11    1    3    3    0    0 -0.15988923735E+02  0.84511744594E+01 -0.12157495170E+02  0.21791574542E+02  0.51100000000E-03 0. -1.
        -11    1    3    3    0    0 -0.99489926231E+01  0.36507650846E+01 -0.13395057438E+01  0.10681985575E+02  0.51100000000E-03 0.  1.
        -12    1    3    3    0    0 -0.18575920876E+01 -0.25998635138E+02  0.63547172184E+01  0.26828382514E+02  0.00000000000E+00 0.  1.
</event>
<event>
 7    1  0.3802554E-013  0.5930193E+02  0.7816164E-02  0.1266605E+00
        -11   -1    0    0    0    0  0.00000000000E+00  0.00000000000E+00  0.45593999997E+02  0.45594000000E+02  0.51100000000E-03 0.  1.
         11   -1    0    0    0    0 -0.00000000000E+00 -0.00000000000E+00 -0.45593999997E+02  0.45594000000E+02  0.51100000000E-03 0. -1.
    9900012    2    1    2    0    0  0.38961148812E+00 -0.20241199333E+02 -0.24634602487E+02  0.59301928005E+02  0.49999970779E+02 0.  0.
        -12    1    1    2    0    0 -0.38961148812E+00  0.20241199333E+02  0.24634602487E+02  0.31886071995E+02  0.00000000000E+00 0.  1.
         11    1    3    3    0    0  0.68490625816E+00 -0.29948449557E+01  0.16779392717E+01  0.35005247252E+01  0.51100000000E-03 0. -1.
        -11    1    3    3    0    0 -0.12072594628E+02 -0.16180072990E+02  0.62702554385E+01  0.21139025676E+02  0.51100000000E-03 0.  1.
         12    1    3    3    0    0  0.11777299858E+02 -0.10662813878E+01 -0.32582797198E+02  0.34662377604E+02  0.00000000000E+00 0. -1.
</event>
<event>
 7    1  0.3802554E-013  0.5930195E+02  0.7816164E-02  0.1266605E+00
        -11   -1    0    0    0    0  0.00000000000E+00  0.00000000000E+00  0.45593999997E+02  0.45594000000E+02  0.51100000000E-03 0.  1.
         11   -1    0    0    0    0 -0.00000000000E+00 -0.00000000000E+00 -0.45593999997E+02  0.45594000000E+02  0.51100000000E-03 0. -1.
    9900012    2    1    2    0    0 -0.17325991948E+02  0.23128856286E+02 -0.13475382527E+02  0.59301954081E+02  0.50000018335E+02 0.  0.
        -12    1    1    2    0    0  0.17325991948E+02 -0.23128856286E+02  0.13475382527E+02  0.31886045919E+02  0.00000000000E+00 0.  1.
         11    1    3    3    0    0 -0.11899600044E+02  0.10677852600E+02 -0.48506240268E+00  0.15995383808E+02  0.51100000000E-03 0. -1.
        -11    1    3    3    0    0 -0.13653615956E+02  0.14789175358E+02  0.72017737239E+01  0.21377709921E+02  0.51100000000E-03 0.  1.
         12    1    3    3    0    0  0.82272240530E+01 -0.23381716715E+01 -0.20192093848E+02  0.21928860352E+02  0.00000000000E+00 0. -1.
</event>
<event>
 7    1  0.3802554E-013  0.5930198E+02  0.7816164E-02  0.1266605E+00
        -11   -1    0    0    0    0  0.00000000000E+00  0.00000000000E+00  0.45593999997E+02  0.45594000000E+02  0.51100000000E-03 0.  1.
         11   -1    0    0    0    0 -0.00000000000E+00 -0.00000000000E+00 -0.45593999997E+02  0.45594000000E+02  0.51100000000E-03 0. -1.
    9900012    2    1    2    0    0 -0.13262177113E+02 -0.26890156044E+02 -0.10851370035E+02  0.59301983230E+02  0.50000071495E+02 0.  0.
        -12    1    1    2    0    0  0.13262177113E+02  0.26890156044E+02  0.10851370035E+02  0.31886016770E+02  0.00000000000E+00 0.  1.
         11    1    3    3    0    0 -0.91918150281E+01  0.55924834192E+01 -0.28565410651E+01  0.11132167867E+02  0.51100000000E-03 0. -1.
        -11    1    3    3    0    0 -0.31801444161E+00 -0.13949959640E+01 -0.15827280143E+02  0.15891820032E+02  0.51100000000E-03 0.  1.
        -12    1    3    3    0    0 -0.37523476432E+01 -0.31087643499E+02  0.78324511737E+01  0.32277995331E+02  0.00000000000E+00 0.  1.
</event>
<event>
 7    1  0.3802554E-013  0.5930195E+02  0.7816164E-02  0.1266605E+00
        -11   -1    0    0    0    0  0.00000000000E+00  0.00000000000E+00  0.45593999997E+02  0.45594000000E+02  0.51100000000E-03 0.  1.
         11   -1    0    0    0    0 -0.00000000000E+00 -0.00000000000E+00 -0.45593999997E+02  0.45594000000E+02  0.51100000000E-03 0. -1.
    9900012    2    1    2    0    0  0.67116031906E+01  0.22394231248E+02 -0.21683468676E+02  0.59301952512E+02  0.50000015474E+02 0.  0.
        -12    1    1    2    0    0 -0.67116031906E+01 -0.22394231248E+02  0.21683468676E+02  0.31886047488E+02  0.00000000000E+00 0.  1.
         11    1    3    3    0    0  0.22162958280E+01 -0.72407952618E+01 -0.40915553234E+01  0.86070847821E+01  0.51100000000E-03 0. -1.
        -11    1    3    3    0    0  0.73295053584E+01  0.14349865906E+02  0.10043431682E+02  0.18987122492E+02  0.51100000000E-03 0.  1.
         12    1    3    3    0    0 -0.28341979957E+01  0.15285160604E+02 -0.27635345034E+02  0.31707745239E+02  0.00000000000E+00 0. -1.
</event>
<event>
 7    1  0.3802554E-013  0.5930210E+02  0.7816164E-02  0.1266604E+00
        -11   -1    0    0    0    0  0.00000000000E+00  0.00000000000E+00  0.45593999997E+02  0.45594000000E+02  0.51100000000E-03 0. -1.
         11   -1    0    0    0    0 -0.00000000000E+00 -0.00000000000E+00 -0.45593999997E+02  0.45594000000E+02  0.51100000000E-03 0.  1.
    9900012    2    1    2    0    0  0.23173562438E+02 -0.18187683057E+02  0.12202647372E+02  0.59302103213E+02  0.50000290314E+02 0.  0.
        -12    1    1    2    0    0 -0.23173562438E+02  0.18187683057E+02 -0.12202647372E+02  0.31885896787E+02  0.00000000000E+00 0.  1.
         11    1    3    3    0    0  0.17442651884E+01  0.19780343251E+01 -0.15069734194E+01  0.30374413552E+01  0.51100000000E-03 0. -1.
        -11    1    3    3    0    0  0.18722441358E+02  0.11642470172E+01 -0.12365928544E+02  0.22467787397E+02  0.51100000000E-03 0.  1.
         12    1    3    3    0    0  0.27068558920E+01 -0.21329964399E+02  0.26075549336E+02  0.33796874460E+02  0.00000000000E+00 0. -1.
</event>
<event>
 7    1  0.3802554E-013  0.5930194E+02  0.7816164E-02  0.1266605E+00
        -11   -1    0    0    0    0  0.00000000000E+00  0.00000000000E+00  0.45593999997E+02  0.45594000000E+02  0.51100000000E-03 0. -1.
         11   -1    0    0    0    0 -0.00000000000E+00 -0.00000000000E+00 -0.45593999997E+02  0.45594000000E+02  0.51100000000E-03 0.  1.
    9900012    2    1    2    0    0  0.17818963266E+01 -0.19289590840E+02  0.25327006168E+02  0.59301941750E+02  0.49999995846E+02 0.  0.
        -12    1    1    2    0    0 -0.17818963266E+01  0.19289590840E+02 -0.25327006168E+02  0.31886058250E+02  0.00000000000E+00 0.  1.
         11    1    3    3    0    0 -0.93455215351E+01 -0.24070665102E+01 -0.90629853558E+01  0.13238974498E+02  0.51100000000E-03 0. -1.
        -11    1    3    3    0    0 -0.45229722180E+01 -0.79806715917E+00 -0.45614593609E+00  0.46154369514E+01  0.51100000000E-03 0.  1.
        -12    1    3    3    0    0  0.15650390080E+02 -0.16084457171E+02  0.34846137460E+02  0.41447530300E+02  0.00000000000E+00 0.  1.
</event>
<event>
 7    1  0.3802554E-013  0.5930191E+02  0.7816164E-02  0.1266605E+00
        -11   -1    0    0    0    0  0.00000000000E+00  0.00000000000E+00  0.45593999997E+02  0.45594000000E+02  0.51100000000E-03 0.  1.
         11   -1    0    0    0    0 -0.00000000000E+00 -0.00000000000E+00 -0.45593999997E+02  0.45594000000E+02  0.51100000000E-03 0. -1.
    9900012    2    1    2    0    0  0.21800888086E+02 -0.24484663317E+01 -0.23139766702E+02  0.59301913509E+02  0.49999944340E+02 0.  0.
        -12    1    1    2    0    0 -0.21800888086E+02  0.24484663317E+01  0.23139766702E+02  0.31886086491E+02  0.00000000000E+00 0.  1.
         11    1    3    3    0    0 -0.73380291544E+01  0.19473127346E+01 -0.13570397821E+02  0.15549739420E+02  0.51100000000E-03 0. -1.
        -11    1    3    3    0    0  0.34594751198E+00  0.37690511965E+01  0.81399720438E+01  0.89768909840E+01  0.51100000000E-03 0.  1.
        -12    1    3    3    0    0  0.28792969729E+02 -0.81648302628E+01 -0.17709340925E+02  0.34775283105E+02  0.00000000000E+00 0.  1.
</event>
<event>
 7    1  0.3802554E-013  0.5930194E+02  0.7816164E-02  0.1266605E+00
        -11   -1    0    0    0    0  0.00000000000E+00  0.00000000000E+00  0.45593999997E+02  0.45594000000E+02  0.51100000000E-03 0. -1.
         11   -1    0    0    0    0 -0.00000000000E+00 -0.00000000000E+00 -0.45593999997E+02  0.45594000000E+02  0.51100000000E-03 0.  1.
    9900012    2    1    2    0    0  0.25877216204E+02  0.17113563208E+02  0.73631885822E+01  0.59301938622E+02  0.49999990140E+02 0.  0.
        -12    1    1    2    0    0 -0.25877216204E+02 -0.17113563208E+02 -0.73631885822E+01  0.31886061378E+02  0.00000000000E+00 0.  1.
         11    1    3    3    0    0 -0.81239879164E+01 -0.12363584811E+01  0.42095300103E+01  0.92329792119E+01  0.51100000000E-03 0. -1.
        -11    1    3    3    0    0  0.77363168491E+01  0.68007384705E+01  0.15680921505E+02  0.18761448282E+02  0.51100000000E-03 0.  1.
        -12    1    3    3    0    0  0.26264887271E+02  0.11549183218E+02 -0.12527262933E+02  0.31307511127E+02  0.00000000000E+00 0.  1.
</event>
<event>
 7    1  0.3802554E-013  0.5930195E+02  0.7816164E-02  0.1266605E+00
        -11   -1    0    0    0    0  0.00000000000E+00  0.00000000000E+00  0.45593999997E+02  0.45594000000E+02  0.51100000000E-03 0.  1.
         11   -1    0    0    0    0 -0.00000000000E+00 -0.00000000000E+00 -0.45593999997E+02  0.45594000000E+02  0.51100000000E-03 0. -1.
    9900012    2    1    2    0    0 -0.99447991910E+01 -0.13389641053E+02 -0.27176070936E+02  0.59301947406E+02  0.50000006162E+02 0.  0.
        -12    1    1    2    0    0  0.99447991910E+01  0.13389641053E+02  0.27176070936E+02  0.31886052594E+02  0.00000000000E+00 0.  1.
         11    1    3    3    0    0  0.35342967805E+01 -0.66891203002E+01  0.71037171564E+00  0.75986980700E+01  0.51100000000E-03 0. -1.
        -11    1    3    3    0    0 -0.18544490255E+02 -0.20987041385E+02 -0.14792367113E+02  0.31672829839E+02  0.51100000000E-03 0.  1.
        -12    1    3    3    0    0  0.50653942838E+01  0.14286520633E+02 -0.13094075539E+02  0.20030419498E+02  0.00000000000E+00 0.  1.
</event>
<event>
 7    1  0.3802554E-013  0.5930193E+02  0.7816164E-02  0.1266605E+00
        -11   -1    0    0    0    0  0.00000000000E+00  0.00000000000E+00  0.45593999997E+02  0.45594000000E+02  0.51100000000E-03 0.  1.
         11   -1    0    0    0    0 -0.00000000000E+00 -0.00000000000E+00 -0.45593999997E+02  0.45594000000E+02  0.51100000000E-03 0. -1.
    9900012    2    1    2    0    0 -0.27342509126E+01 -0.18350064393E+01 -0.31715580423E+02  0.59301930656E+02  0.49999975613E+02 0.  0.
        -12    1    1    2    0    0  0.27342509126E+01  0.18350064393E+01  0.31715580423E+02  0.31886069344E+02  0.00000000000E+00 0.  1.
         11    1    3    3    0    0  0.38381760693E+01 -0.54504578164E+01  0.92361611419E+00  0.67299444971E+01  0.51100000000E-03 0. -1.
        -11    1    3    3    0    0  0.14797640950E+02 -0.30872091640E+01 -0.24409940754E+02  0.28711430580E+02  0.51100000000E-03 0.  1.
         12    1    3    3    0    0 -0.21370067932E+02  0.67026605411E+01 -0.82292557833E+01  0.23860555578E+02  0.00000000000E+00 0. -1.
</event>
<event>
 7    1  0.3802554E-013  0.5930196E+02  0.7816164E-02  0.1266605E+00
        -11   -1    0    0    0    0  0.00000000000E+00  0.00000000000E+00  0.45593999997E+02  0.45594000000E+02  0.51100000000E-03 0.  1.
         11   -1    0    0    0    0 -0.00000000000E+00 -0.00000000000E+00 -0.45593999997E+02  0.45594000000E+02  0.51100000000E-03 0. -1.
    9900012    2    1    2    0    0 -0.21961358870E+02  0.11234796774E+01 -0.23090177861E+02  0.59301955974E+02  0.50000021786E+02 0.  0.
        -12    1    1    2    0    0  0.21961358870E+02 -0.11234796774E+01  0.23090177861E+02  0.31886044026E+02  0.00000000000E+00 0.  1.
         11    1    3    3    0    0 -0.15501240763E+02  0.68145233408E+01 -0.31165202677E+02  0.35468240042E+02  0.51100000000E-03 0. -1.
        -11    1    3    3    0    0 -0.47813693257E+01  0.54625653255E+00 -0.63856357660E+01  0.79960135834E+01  0.51100000000E-03 0.  1.
        -12    1    3    3    0    0 -0.16787487814E+01 -0.62373001960E+01  0.14460660582E+02  0.15837702348E+02  0.00000000000E+00 0.  1.
</event>
<event>
 7    1  0.3802554E-013  0.5930198E+02  0.7816164E-02  0.1266605E+00
        -11   -1    0    0    0    0  0.00000000000E+00  0.00000000000E+00  0.45593999997E+02  0.45594000000E+02  0.51100000000E-03 0. -1.
         11   -1    0    0    0    0 -0.00000000000E+00 -0.00000000000E+00 -0.45593999997E+02  0.45594000000E+02  0.51100000000E-03 0.  1.
    9900012    2    1    2    0    0  0.12590665227E+02 -0.21833343722E+02 -0.19531993727E+02  0.59301975978E+02  0.50000058270E+02 0.  0.
        -12    1    1    2    0    0 -0.12590665227E+02  0.21833343722E+02  0.19531993727E+02  0.31886024022E+02  0.00000000000E+00 0.  1.
         11    1    3    3    0    0  0.12336134203E+02 -0.21560713390E+02 -0.21959368274E+02  0.33155066342E+02  0.51100000000E-03 0. -1.
        -11    1    3    3    0    0 -0.57169039594E+01 -0.11038663648E+01 -0.10430576868E+02  0.11945645478E+02  0.51100000000E-03 0.  1.
         12    1    3    3    0    0  0.59714349839E+01  0.83123603225E+00  0.12857951414E+02  0.14201264158E+02  0.00000000000E+00 0. -1.
</event>
<event>
 7    1  0.3802554E-013  0.5930194E+02  0.7816164E-02  0.1266605E+00
        -11   -1    0    0    0    0  0.00000000000E+00  0.00000000000E+00  0.45593999997E+02  0.45594000000E+02  0.51100000000E-03 0. -1.
         11   -1    0    0    0    0 -0.00000000000E+00 -0.00000000000E+00 -0.45593999997E+02  0.45594000000E+02  0.51100000000E-03 0.  1.
    9900012    2    1    2    0    0 -0.12442254343E+02 -0.27644853814E+02  0.98829840988E+01  0.59301937053E+02  0.49999987280E+02 0.  0.
        -12    1    1    2    0    0  0.12442254343E+02  0.27644853814E+02 -0.98829840988E+01  0.31886062947E+02  0.00000000000E+00 0.  1.
         11    1    3    3    0    0 -0.58609012935E+01  0.40408281324E+01  0.78277199792E+00  0.71617866646E+01  0.51100000000E-03 0. -1.
        -11    1    3    3    0    0 -0.41483911421E+01  0.18158557976E+01  0.17034402238E+02  0.17626041564E+02  0.51100000000E-03 0.  1.
        -12    1    3    3    0    0 -0.24329619077E+01 -0.33501537744E+02 -0.79341901367E+01  0.34514108825E+02  0.00000000000E+00 0.  1.
</event>
<event>
 7    1  0.3802554E-013  0.5930198E+02  0.7816164E-02  0.1266605E+00
        -11   -1    0    0    0    0  0.00000000000E+00  0.00000000000E+00  0.45593999997E+02  0.45594000000E+02  0.51100000000E-03 0.  1.
         11   -1    0    0    0    0 -0.00000000000E+00 -0.00000000000E+00 -0.45593999997E+02  0.45594000000E+02  0.51100000000E-03 0. -1.
    9900012    2    1    2    0    0 -0.13810943950E+02 -0.11802792220E+02 -0.26204395826E+02  0.59301977395E+02  0.50000060854E+02 0.  0.
        -12    1    1    2    0    0  0.13810943950E+02  0.11802792220E+02  0.26204395826E+02  0.31886022605E+02  0.00000000000E+00 0.  1.
         11    1    3    3    0    0  0.20447675579E+01 -0.64906305062E+01 -0.83898682047E+01  0.10802742591E+02  0.51100000000E-03 0. -1.
        -11    1    3    3    0    0 -0.20372944001E+02 -0.20684718834E+02 -0.12603375687E+02  0.31650584820E+02  0.51100000000E-03 0.  1.
        -12    1    3    3    0    0  0.45172324929E+01  0.15372557120E+02 -0.52111519336E+01  0.16848649983E+02  0.00000000000E+00 0.  1.
</event>
<event>
 7    1  0.3802554E-013  0.5930202E+02  0.7816164E-02  0.1266604E+00
        -11   -1    0    0    0    0  0.00000000000E+00  0.00000000000E+00  0.45593999997E+02  0.45594000000E+02  0.51100000000E-03 0. -1.
         11   -1    0    0    0    0 -0.00000000000E+00 -0.00000000000E+00 -0.45593999997E+02  0.45594000000E+02  0.51100000000E-03 0.  1.
    9900012    2    1    2    0    0 -0.29497149475E+02  0.10728139511E+02  0.56161169907E+01  0.59302022290E+02  0.50000142731E+02 0.  0.
        -12    1    1    2    0    0  0.29497149475E+02 -0.10728139511E+02 -0.56161169907E+01  0.31885977710E+02  0.00000000000E+00 0.  1.
         11    1    3    3    0    0  0.34487120993E+01 -0.60282983161E+01  0.60588671981E+01  0.92164997541E+01  0.51100000000E-03 0. -1.
        -11    1    3    3    0    0 -0.11664253174E+02  0.16347914332E+02  0.13895488227E+02  0.24421173159E+02  0.51100000000E-03 0.  1.
        -12    1    3    3    0    0 -0.21281608400E+02  0.40852349479E+00 -0.14338238435E+02  0.25664349377E+02  0.00000000000E+00 0.  1.
</event>
<event>
 7    1  0.3802554E-013  0.5930195E+02  0.7816164E-02  0.1266605E+00
        -11   -1    0    0    0    0  0.00000000000E+00  0.00000000000E+00  0.45593999997E+02  0.45594000000E+02  0.51100000000E-03 0.  1.
         11   -1    0    0    0    0 -0.00000000000E+00 -0.00000000000E+00 -0.45593999997E+02  0.45594000000E+02  0.51100000000E-03 0. -1.
    9900012    2    1    2    0    0  0.29939359085E+02  0.60625489281E+01 -0.91433231686E+01  0.59301951632E+02  0.50000013869E+02 0.  0.
        -12    1    1    2    0    0 -0.29939359085E+02 -0.60625489281E+01  0.91433231686E+01  0.31886048368E+02  0.00000000000E+00 0.  1.
         11    1    3    3    0    0  0.19064583133E+02  0.86266592792E+01  0.78719882775E+01  0.22357231047E+02  0.51100000000E-03 0. -1.
        -11    1    3    3    0    0  0.37956371002E+01  0.13975665617E+02 -0.10166370430E+02  0.17694100102E+02  0.51100000000E-03 0.  1.
        -12    1    3    3    0    0  0.70791388517E+01 -0.16539775968E+02 -0.68489410165E+01  0.19250620484E+02  0.00000000000E+00 0.  1.
</event>
<event>
 7    1  0.3802554E-013  0.5930194E+02  0.7816164E-02  0.1266605E+00
        -11   -1    0    0    0    0  0.00000000000E+00  0.00000000000E+00  0.45593999997E+02  0.45594000000E+02  0.51100000000E-03 0. -1.
         11   -1    0    0    0    0 -0.00000000000E+00 -0.00000000000E+00 -0.45593999997E+02  0.45594000000E+02  0.51100000000E-03 0.  1.
    9900012    2    1    2    0    0  0.17154174404E+02 -0.17790872733E+02  0.20147944852E+02  0.59301944524E+02  0.50000000904E+02 0.  0.
        -12    1    1    2    0    0 -0.17154174404E+02  0.17790872733E+02 -0.20147944852E+02  0.31886055476E+02  0.00000000000E+00 0.  1.
         11    1    3    3    0    0  0.81533048228E+01 -0.93981262403E+01  0.16045834605E+02  0.20304432147E+02  0.51100000000E-03 0. -1.
        -11    1    3    3    0    0  0.22836042200E+02 -0.64906724509E+00  0.36592464153E+01  0.23136468967E+02  0.51100000000E-03 0.  1.
        -12    1    3    3    0    0 -0.13835172619E+02 -0.77436792479E+01  0.44286383122E+00  0.15861043410E+02  0.00000000000E+00 0.  1.
</event>
<event>
 7    1  0.3802554E-013  0.5930198E+02  0.7816164E-02  0.1266605E+00
        -11   -1    0    0    0    0  0.00000000000E+00  0.00000000000E+00  0.45593999997E+02  0.45594000000E+02  0.51100000000E-03 0. -1.
         11   -1    0    0    0    0 -0.00000000000E+00 -0.00000000000E+00 -0.45593999997E+02  0.45594000000E+02  0.51100000000E-03 0.  1.
    9900012    2    1    2    0    0 -0.31125805201E+00 -0.14091847897E+02  0.28601423146E+02  0.59301976969E+02  0.50000060077E+02 0.  0.
        -12    1    1    2    0    0  0.31125805201E+00  0.14091847897E+02 -0.28601423146E+02  0.31886023031E+02  0.00000000000E+00 0.  1.
         11    1    3    3    0    0 -0.91033652942E+01  0.12517724009E+02  0.48066387702E+01  0.16207049410E+02  0.51100000000E-03 0. -1.
        -11    1    3    3    0    0  0.58354070608E+01  0.25264137210E+01  0.64544348616E+01  0.90605999525E+01  0.51100000000E-03 0.  1.
        -12    1    3    3    0    0  0.29567001814E+01 -0.29135985626E+02  0.17340349515E+02  0.34034327607E+02  0.00000000000E+00 0.  1.
</event>
<event>
 7    1  0.3802554E-013  0.5930194E+02  0.7816164E-02  0.1266605E+00
        -11   -1    0    0    0    0  0.00000000000E+00  0.00000000000E+00  0.45593999997E+02  0.45594000000E+02  0.51100000000E-03 0.  1.
         11   -1    0    0    0    0 -0.00000000000E+00 -0.00000000000E+00 -0.45593999997E+02  0.45594000000E+02  0.51100000000E-03 0. -1.
    9900012    2    1    2    0    0  0.57646768318E+01  0.27657780885E+02 -0.14782981242E+02  0.59301939145E+02  0.49999991095E+02 0.  0.
        -12    1    1    2    0    0 -0.57646768318E+01 -0.27657780885E+02  0.14782981242E+02  0.31886060855E+02  0.00000000000E+00 0.  1.
         11    1    3    3    0    0  0.54349266636E+00  0.27555046012E+02 -0.23686250162E+01  0.27662001550E+02  0.51100000000E-03 0. -1.
        -11    1    3    3    0    0  0.54501241816E+01  0.14086672870E+02 -0.69122617767E+01  0.16610766667E+02  0.51100000000E-03 0.  1.
        -12    1    3    3    0    0 -0.22894001613E+00 -0.13983937998E+02 -0.55020944493E+01  0.15029170928E+02  0.00000000000E+00 0.  1.
</event>
<event>
 7    1  0.3802554E-013  0.5930195E+02  0.7816164E-02  0.1266605E+00
        -11   -1    0    0    0    0  0.00000000000E+00  0.00000000000E+00  0.45593999997E+02  0.45594000000E+02  0.51100000000E-03 0.  1.
         11   -1    0    0    0    0 -0.00000000000E+00 -0.00000000000E+00 -0.45593999997E+02  0.45594000000E+02  0.51100000000E-03 0. -1.
    9900012    2    1    2    0    0 -0.74650288736E+01  0.28873820907E+02 -0.11282552631E+02  0.59301950014E+02  0.50000010918E+02 0.  0.
        -12    1    1    2    0    0  0.74650288736E+01 -0.28873820907E+02  0.11282552631E+02  0.31886049986E+02  0.00000000000E+00 0.  1.
         11    1    3    3    0    0  0.99978874298E+01  0.28827645660E+02 -0.58878379592E+01  0.31075030868E+02  0.51100000000E-03 0. -1.
        -11    1    3    3    0    0 -0.48268657407E+01 -0.98450106181E+01 -0.53030034109E+01  0.12179684412E+02  0.51100000000E-03 0.  1.
         12    1    3    3    0    0 -0.12636050563E+02  0.98911858648E+01 -0.91711261060E-01  0.16047234733E+02  0.00000000000E+00 0. -1.
</event>
<event>
 7    1  0.3802554E-013  0.5930195E+02  0.7816164E-02  0.1266605E+00
        -11   -1    0    0    0    0  0.00000000000E+00  0.00000000000E+00  0.45593999997E+02  0.45594000000E+02  0.51100000000E-03 0.  1.
         11   -1    0    0    0    0 -0.00000000000E+00 -0.00000000000E+00 -0.45593999997E+02  0.45594000000E+02  0.51100000000E-03 0. -1.
    9900012    2    1    2    0    0  0.42209946987E+01 -0.56134174697E+01 -0.31102941997E+02  0.59301948930E+02  0.50000008941E+02 0.  0.
        -12    1    1    2    0    0 -0.42209946987E+01  0.56134174697E+01  0.31102941997E+02  0.31886051070E+02  0.00000000000E+00 0.  1.
         11    1    3    3    0    0 -0.16338794423E+01  0.11513874268E+02 -0.10309937021E+02  0.15541353362E+02  0.51100000000E-03 0. -1.
        -11    1    3    3    0    0  0.73520732248E+01  0.93997354848E+01 -0.62216532534E+01  0.13457970774E+02  0.51100000000E-03 0.  1.
         12    1    3    3    0    0 -0.14971990838E+01 -0.26527027223E+02 -0.14571351723E+02  0.30302624794E+02  0.00000000000E+00 0. -1.
</event>
<event>
 7    1  0.3802554E-013  0.5930195E+02  0.7816164E-02  0.1266605E+00
        -11   -1    0    0    0    0  0.00000000000E+00  0.00000000000E+00  0.45593999997E+02  0.45594000000E+02  0.51100000000E-03 0. -1.
         11   -1    0    0    0    0 -0.00000000000E+00 -0.00000000000E+00 -0.45593999997E+02  0.45594000000E+02  0.51100000000E-03 0.  1.
    9900012    2    1    2    0    0  0.27985611680E+02 -0.12924475423E+02  0.81537340951E+01  0.59301954372E+02  0.50000018866E+02 0.  0.
        -12    1    1    2    0    0 -0.27985611680E+02  0.12924475423E+02 -0.81537340951E+01  0.31886045628E+02  0.00000000000E+00 0.  1.
         11    1    3    3    0    0  0.76921958141E+01  0.11149147794E+02  0.64048836679E+01  0.14983187513E+02  0.51100000000E-03 0.  1.
        -11    1    3    3    0    0  0.21654953909E+02 -0.19799125168E+02  0.13084996849E+02  0.32127239674E+02  0.51100000000E-03 0. -1.
         12    1    3    3    0    0 -0.13615380433E+01 -0.42744980496E+01 -0.11336146422E+02  0.12191527186E+02  0.00000000000E+00 0. -1.
</event>
<event>
 7    1  0.3802554E-013  0.5930183E+02  0.7816164E-02  0.1266605E+00
        -11   -1    0    0    0    0  0.00000000000E+00  0.00000000000E+00  0.45593999997E+02  0.45594000000E+02  0.51100000000E-03 0. -1.
         11   -1    0    0    0    0 -0.00000000000E+00 -0.00000000000E+00 -0.45593999997E+02  0.45594000000E+02  0.51100000000E-03 0.  1.
    9900012    2    1    2    0    0 -0.67843402400E+01 -0.60709527657E+01  0.30558866897E+02  0.59301826099E+02  0.49999784926E+02 0.  0.
        -12    1    1    2    0    0  0.67843402400E+01  0.60709527657E+01 -0.30558866897E+02  0.31886173901E+02  0.00000000000E+00 0.  1.
         11    1    3    3    0    0 -0.79136713421E+01 -0.56117442621E+01 -0.42490231511E+00  0.97107368419E+01  0.51100000000E-03 0. -1.
        -11    1    3    3    0    0 -0.39474614019E+01 -0.33442484814E+01 -0.83518312590E+01  0.98244356105E+01  0.51100000000E-03 0.  1.
         12    1    3    3    0    0  0.50767925040E+01  0.28850399778E+01  0.39335600472E+02  0.39766653647E+02  0.00000000000E+00 0. -1.
</event>
<event>
 7    1  0.3802554E-013  0.5930195E+02  0.7816164E-02  0.1266605E+00
        -11   -1    0    0    0    0  0.00000000000E+00  0.00000000000E+00  0.45593999997E+02  0.45594000000E+02  0.51100000000E-03 0.  1.
         11   -1    0    0    0    0 -0.00000000000E+00 -0.00000000000E+00 -0.45593999997E+02  0.45594000000E+02  0.51100000000E-03 0. -1.
    9900012    2    1    2    0    0 -0.92245779851E+01  0.27446081786E+02 -0.13354409231E+02  0.59301945206E+02  0.50000002149E+02 0.  0.
        -12    1    1    2    0    0  0.92245779851E+01 -0.27446081786E+02  0.13354409231E+02  0.31886054794E+02  0.00000000000E+00 0.  1.
         11    1    3    3    0    0  0.11479385068E+02  0.23229553152E+02 -0.11839451104E+02  0.28487910135E+02  0.51100000000E-03 0. -1.
        -11    1    3    3    0    0 -0.10871026415E+02  0.11914907110E+02 -0.64707534300E+01  0.17378575228E+02  0.51100000000E-03 0.  1.
        -12    1    3    3    0    0 -0.98329366380E+01 -0.76983784765E+01  0.49557953030E+01  0.13435459843E+02  0.00000000000E+00 0.  1.
</event>
<event>
 7    1  0.3802554E-013  0.5930193E+02  0.7816164E-02  0.1266605E+00
        -11   -1    0    0    0    0  0.00000000000E+00  0.00000000000E+00  0.45593999997E+02  0.45594000000E+02  0.51100000000E-03 0.  1.
         11   -1    0    0    0    0 -0.00000000000E+00 -0.00000000000E+00 -0.45593999997E+02  0.45594000000E+02  0.51100000000E-03 0. -1.
    9900012    2    1    2    0    0 -0.96117148739E+01 -0.18936838300E+02 -0.23785128399E+02  0.59301933441E+02  0.49999980693E+02 0.  0.
        -12    1    1    2    0    0  0.96117148739E+01  0.18936838300E+02  0.23785128399E+02  0.31886066559E+02  0.00000000000E+00 0.  1.
         11    1    3    3    0    0  0.26498405238E+01  0.38653559819E+01 -0.38661854736E+01  0.60753618859E+01  0.51100000000E-03 0. -1.
        -11    1    3    3    0    0 -0.12415501218E+02 -0.13623864825E+02  0.10664494701E+02  0.21295206286E+02  0.51100000000E-03 0.  1.
         12    1    3    3    0    0  0.15394581990E+00 -0.91783294566E+01 -0.30583437626E+02  0.31931365270E+02  0.00000000000E+00 0. -1.
</event>
<event>
 7    1  0.3802554E-013  0.5930195E+02  0.7816164E-02  0.1266605E+00
        -11   -1    0    0    0    0  0.00000000000E+00  0.00000000000E+00  0.45593999997E+02  0.45594000000E+02  0.51100000000E-03 0.  1.
         11   -1    0    0    0    0 -0.00000000000E+00 -0.00000000000E+00 -0.45593999997E+02  0.45594000000E+02  0.51100000000E-03 0. -1.
    9900012    2    1    2    0    0 -0.22549935220E+02 -0.14785297485E+02 -0.17018097577E+02  0.59301949048E+02  0.50000009156E+02 0.  0.
        -12    1    1    2    0    0  0.22549935220E+02  0.14785297485E+02  0.17018097577E+02  0.31886050952E+02  0.00000000000E+00 0.  1.
         11    1    3    3    0    0 -0.14833182883E+02  0.34669441997E+01 -0.43677451209E+01  0.15846772991E+02  0.51100000000E-03 0. -1.
        -11    1    3    3    0    0 -0.46785444483E+01  0.86594088103E+01 -0.13079583091E+02  0.16369167150E+02  0.51100000000E-03 0.  1.
        -12    1    3    3    0    0 -0.30382078893E+01 -0.26911650496E+02  0.42923063480E+00  0.27086008907E+02  0.00000000000E+00 0.  1.
</event>
<event>
 7    1  0.3802554E-013  0.5930192E+02  0.7816164E-02  0.1266605E+00
        -11   -1    0    0    0    0  0.00000000000E+00  0.00000000000E+00  0.45593999997E+02  0.45594000000E+02  0.51100000000E-03 0.  1.
         11   -1    0    0    0    0 -0.00000000000E+00 -0.00000000000E+00 -0.45593999997E+02  0.45594000000E+02  0.51100000000E-03 0. -1.
    9900012    2    1    2    0    0  0.21363760595E+02 -0.21538709419E+01 -0.23572710220E+02  0.59301920060E+02  0.49999956289E+02 0.  0.
        -12    1    1    2    0    0 -0.21363760595E+02  0.21538709419E+01  0.23572710220E+02  0.31886079940E+02  0.00000000000E+00 0.  1.
         11    1    3    3    0    0  0.85895312423E+01  0.20724856085E+02 -0.12565069393E+02  0.25713433761E+02  0.51100000000E-03 0. -1.
        -11    1    3    3    0    0  0.37002989758E+01 -0.19569371819E+00 -0.81983464618E+01  0.89968546454E+01  0.51100000000E-03 0.  1.
        -12    1    3    3    0    0  0.90739303768E+01 -0.22683033308E+02 -0.28092943652E+01  0.24591631653E+02  0.00000000000E+00 0.  1.
</event>
<event>
 7    1  0.3802554E-013  0.5930200E+02  0.7816164E-02  0.1266605E+00
        -11   -1    0    0    0    0  0.00000000000E+00  0.00000000000E+00  0.45593999997E+02  0.45594000000E+02  0.51100000000E-03 0.  1.
         11   -1    0    0    0    0 -0.00000000000E+00 -0.00000000000E+00 -0.45593999997E+02  0.45594000000E+02  0.51100000000E-03 0. -1.
    9900012    2    1    2    0    0 -0.73337090817E+01 -0.45805971269E+01 -0.30691238426E+02  0.59301995624E+02  0.50000094099E+02 0.  0.
        -12    1    1    2    0    0  0.73337090817E+01  0.45805971269E+01  0.30691238426E+02  0.31886004376E+02  0.00000000000E+00 0.  1.
         11    1    3    3    0    0  0.10119585203E+02 -0.87994173451E+01 -0.43681323796E+01  0.14103770100E+02  0.51100000000E-03 0. -1.
        -11    1    3    3    0    0  0.94845106078E+01  0.30576053378E+00 -0.59893874245E+01  0.11221505824E+02  0.51100000000E-03 0.  1.
         12    1    3    3    0    0 -0.26937804893E+02  0.39130596843E+01 -0.20333718622E+02  0.33976719700E+02  0.00000000000E+00 0. -1.
</event>
<event>
 7    1  0.3802554E-013  0.5930193E+02  0.7816164E-02  0.1266605E+00
        -11   -1    0    0    0    0  0.00000000000E+00  0.00000000000E+00  0.45593999997E+02  0.45594000000E+02  0.51100000000E-03 0. -1.
         11   -1    0    0    0    0 -0.00000000000E+00 -0.00000000000E+00 -0.45593999997E+02  0.45594000000E+02  0.51100000000E-03 0.  1.
    9900012    2    1    2    0    0 -0.15765262718E+02 -0.21255145209E+02  0.17787553349E+02  0.59301925287E+02  0.49999965822E+02 0.  0.
        -12    1    1    2    0    0  0.15765262718E+02  0.21255145209E+02 -0.17787553349E+02  0.31886074713E+02  0.00000000000E+00 0.  1.
         11    1    3    3    0    0 -0.12834755850E+02 -0.11620230710E+02 -0.95061581358E+01  0.19751652140E+02  0.51100000000E-03 0. -1.
        -11    1    3    3    0    0 -0.83023062017E+00 -0.86433800662E+01 -0.29855307963E+01  0.91820856154E+01  0.51100000000E-03 0.  1.
         12    1    3    3    0    0 -0.21002762478E+01 -0.99153443237E+00  0.30279242281E+02  0.30368187532E+02  0.00000000000E+00 0. -1.
</event>
<event>
 7    1  0.3802554E-013  0.5930194E+02  0.7816164E-02  0.1266605E+00
        -11   -1    0    0    0    0  0.00000000000E+00  0.00000000000E+00  0.45593999997E+02  0.45594000000E+02  0.51100000000E-03 0.  1.
         11   -1    0    0    0    0 -0.00000000000E+00 -0.00000000000E+00 -0.45593999997E+02  0.45594000000E+02  0.51100000000E-03 0. -1.
    9900012    2    1    2    0    0 -0.10666880189E+02  0.24842881643E+02 -0.16904723472E+02  0.59301940711E+02  0.49999993952E+02 0.  0.
        -12    1    1    2    0    0  0.10666880189E+02 -0.24842881643E+02  0.16904723472E+02  0.31886059289E+02  0.00000000000E+00 0.  1.
         11    1    3    3    0    0  0.92884173676E+01  0.41619569828E+01  0.48226256706E+01  0.11262961500E+02  0.51100000000E-03 0. -1.
        -11    1    3    3    0    0 -0.16779776499E+02  0.21964831024E+02 -0.16699535998E+01  0.27691216055E+02  0.51100000000E-03 0.  1.
        -12    1    3    3    0    0 -0.31755210571E+01 -0.12839063640E+01 -0.20057395543E+02  0.20347763157E+02  0.00000000000E+00 0.  1.
</event>
<event>
 7    1  0.3802554E-013  0.5930197E+02  0.7816164E-02  0.1266605E+00
        -11   -1    0    0    0    0  0.00000000000E+00  0.00000000000E+00  0.45593999997E+02  0.45594000000E+02  0.51100000000E-03 0.  1.
         11   -1    0    0    0    0 -0.00000000000E+00 -0.00000000000E+00 -0.45593999997E+02  0.45594000000E+02  0.51100000000E-03 0. -1.
    9900012    2    1    2    0    0  0.19629845604E+02 -0.24541482526E+00 -0.25126239449E+02  0.59301968956E+02  0.50000045464E+02 0.  0.
        -12    1    1    2    0    0 -0.19629845604E+02  0.24541482526E+00  0.25126239449E+02  0.31886031044E+02  0.00000000000E+00 0.  1.
         11    1    3    3    0    0  0.69001648414E+01  0.15333635578E+02 -0.21110581711E+02  0.26988688655E+02  0.51100000000E-03 0. -1.
        -11    1    3    3    0    0  0.82964558325E+00  0.55980858469E+01  0.37752395803E+01  0.68028899074E+01  0.51100000000E-03 0.  1.
        -12    1    3    3    0    0  0.11900035179E+02 -0.21177136250E+02 -0.77908973183E+01  0.25510390394E+02  0.00000000000E+00 0.  1.
</event>
<event>
 7    1  0.3802554E-013  0.5930191E+02  0.7816164E-02  0.1266605E+00
        -11   -1    0    0    0    0  0.00000000000E+00  0.00000000000E+00  0.45593999997E+02  0.45594000000E+02  0.51100000000E-03 0. -1.
         11   -1    0    0    0    0 -0.00000000000E+00 -0.00000000000E+00 -0.45593999997E+02  0.45594000000E+02  0.51100000000E-03 0.  1.
    9900012    2    1    2    0    0  0.17160891117E+02 -0.48726862187E+01  0.26428839200E+02  0.59301909045E+02  0.49999936200E+02 0.  0.
        -12    1    1    2    0    0 -0.17160891117E+02  0.48726862187E+01 -0.26428839200E+02  0.31886090955E+02  0.00000000000E+00 0.  1.
         11    1    3    3    0    0  0.17650402501E+02  0.75095282724E+01  0.41748540551E+00  0.19186037049E+02  0.51100000000E-03 0. -1.
        -11    1    3    3    0    0 -0.95610727485E+01  0.36968543594E+01  0.16301180766E+02  0.19256410332E+02  0.51100000000E-03 0.  1.
         12    1    3    3    0    0  0.90715613645E+01 -0.16079068851E+02  0.97101730288E+01  0.20859461665E+02  0.00000000000E+00 0. -1.
</event>
<event>
 7    1  0.3802554E-013  0.5930185E+02  0.7816164E-02  0.1266605E+00
        -11   -1    0    0    0    0  0.00000000000E+00  0.00000000000E+00  0.45593999997E+02  0.45594000000E+02  0.51100000000E-03 0.  1.
         11   -1    0    0    0    0 -0.00000000000E+00 -0.00000000000E+00 -0.45593999997E+02  0.45594000000E+02  0.51100000000E-03 0. -1.
    9900012    2    1    2    0    0  0.15940658647E+02 -0.22201323687E+02  0.16423248821E+02  0.59301851387E+02  0.49999831045E+02 0.  0.
        -12    1    1    2    0    0 -0.15940658647E+02  0.22201323687E+02 -0.16423248821E+02  0.31886148613E+02  0.00000000000E+00 0.  1.
         11    1    3    3    0    0  0.73346710065E+01 -0.10674807986E+02  0.17646638038E+02  0.21889558209E+02  0.51100000000E-03 0. -1.
        -11    1    3    3    0    0 -0.18718707600E+01 -0.41462915406E+01  0.15607699768E+02  0.16257180752E+02  0.51100000000E-03 0.  1.
         12    1    3    3    0    0  0.10477858400E+02 -0.73802241601E+01 -0.16831088985E+02  0.21155112425E+02  0.00000000000E+00 0. -1.
</event>
<event>
 7    1  0.3802554E-013  0.5930195E+02  0.7816164E-02  0.1266605E+00
        -11   -1    0    0    0    0  0.00000000000E+00  0.00000000000E+00  0.45593999997E+02  0.45594000000E+02  0.51100000000E-03 0.  1.
         11   -1    0    0    0    0 -0.00000000000E+00 -0.00000000000E+00 -0.45593999997E+02  0.45594000000E+02  0.51100000000E-03 0. -1.
    9900012    2    1    2    0    0  0.25299236295E+02 -0.10073517414E+02 -0.16588940330E+02  0.59301952088E+02  0.50000014700E+02 0.  0.
        -12    1    1    2    0    0 -0.25299236295E+02  0.10073517414E+02  0.16588940330E+02  0.31886047912E+02  0.00000000000E+00 0.  1.
         11    1    3    3    0    0  0.21167245349E+02  0.50919730061E+01  0.21120162674E+01  0.21873295996E+02  0.51100000000E-03 0. -1.
        -11    1    3    3    0    0  0.69995744714E+01 -0.15220650755E+02  0.16890603364E+01  0.16837908934E+02  0.51100000000E-03 0.  1.
         12    1    3    3    0    0 -0.28675835256E+01  0.55160335393E-01 -0.20390016934E+02  0.20590747157E+02  0.00000000000E+00 0. -1.
</event>
<event>
 7    1  0.3802554E-013  0.5930195E+02  0.7816164E-02  0.1266605E+00
        -11   -1    0    0    0    0  0.00000000000E+00  0.00000000000E+00  0.45593999997E+02  0.45594000000E+02  0.51100000000E-03 0. -1.
         11   -1    0    0    0    0 -0.00000000000E+00 -0.00000000000E+00 -0.45593999997E+02  0.45594000000E+02  0.51100000000E-03 0.  1.
    9900012    2    1    2    0    0  0.11150413962E+02 -0.24717782531E+02 -0.16775569701E+02  0.59301949075E+02  0.50000009205E+02 0.  0.
        -12    1    1    2    0    0 -0.11150413962E+02  0.24717782531E+02  0.16775569701E+02  0.31886050925E+02  0.00000000000E+00 0.  1.
         11    1    3    3    0    0  0.99074587289E+01 -0.46928463398E+01  0.40519543598E+01  0.11687552337E+02  0.51100000000E-03 0. -1.
        -11    1    3    3    0    0  0.14442020881E+02  0.30079705695E+01 -0.16052818048E+01  0.14839029079E+02  0.51100000000E-03 0.  1.
         12    1    3    3    0    0 -0.13199065648E+02 -0.23032906761E+02 -0.19222242256E+02  0.32775367659E+02  0.00000000000E+00 0. -1.
</event>
<event>
 7    1  0.3802554E-013  0.5930194E+02  0.7816164E-02  0.1266605E+00
        -11   -1    0    0    0    0  0.00000000000E+00  0.00000000000E+00  0.45593999997E+02  0.45594000000E+02  0.51100000000E-03 0.  1.
         11   -1    0    0    0    0 -0.00000000000E+00 -0.00000000000E+00 -0.45593999997E+02  0.45594000000E+02  0.51100000000E-03 0. -1.
    9900012    2    1    2    0    0 -0.16404437520E+02  0.19748144320E+02 -0.18911002508E+02  0.59301940502E+02  0.49999993571E+02 0.  0.
        -12    1    1    2    0    0  0.16404437520E+02 -0.19748144320E+02  0.18911002508E+02  0.31886059498E+02  0.00000000000E+00 0.  1.
         11    1    3    3    0    0 -0.37453553525E+01 -0.25485610970E+01 -0.34992048948E+01  0.57242716164E+01  0.51100000000E-03 0. -1.
        -11    1    3    3    0    0 -0.10568734055E+02 -0.10536402388E+02  0.39054318230E+01  0.15426156773E+02  0.51100000000E-03 0.  1.
         12    1    3    3    0    0 -0.20903481120E+01  0.32833107805E+02 -0.19317229436E+02  0.38151512113E+02  0.00000000000E+00 0. -1.
</event>
<event>
 7    1  0.3802554E-013  0.5930194E+02  0.7816164E-02  0.1266605E+00
        -11   -1    0    0    0    0  0.00000000000E+00  0.00000000000E+00  0.45593999997E+02  0.45594000000E+02  0.51100000000E-03 0.  1.
         11   -1    0    0    0    0 -0.00000000000E+00 -0.00000000000E+00 -0.45593999997E+02  0.45594000000E+02  0.51100000000E-03 0. -1.
    9900012    2    1    2    0    0 -0.56589955712E+01 -0.27570570130E+02 -0.14985327368E+02  0.59301943416E+02  0.49999998884E+02 0.  0.
        -12    1    1    2    0    0  0.56589955712E+01  0.27570570130E+02  0.14985327368E+02  0.31886056584E+02  0.00000000000E+00 0.  1.
         11    1    3    3    0    0 -0.53197401984E+01 -0.28955452987E+01 -0.16815893794E+02  0.17873390912E+02  0.51100000000E-03 0. -1.
        -11    1    3    3    0    0 -0.69014212996E+01 -0.21823538507E+02 -0.12009734957E+02  0.25848214308E+02  0.51100000000E-03 0.  1.
         12    1    3    3    0    0  0.65621659269E+01 -0.28514863236E+01  0.13840301383E+02  0.15580338195E+02  0.00000000000E+00 0. -1.
</event>
<event>
 7    1  0.3802554E-013  0.5930194E+02  0.7816164E-02  0.1266605E+00
        -11   -1    0    0    0    0  0.00000000000E+00  0.00000000000E+00  0.45593999997E+02  0.45594000000E+02  0.51100000000E-03 0.  1.
         11   -1    0    0    0    0 -0.00000000000E+00 -0.00000000000E+00 -0.45593999997E+02  0.45594000000E+02  0.51100000000E-03 0. -1.
    9900012    2    1    2    0    0  0.28388773840E+02 -0.89114495018E+01 -0.11462316224E+02  0.59301935558E+02  0.49999984553E+02 0.  0.
        -12    1    1    2    0    0 -0.28388773840E+02  0.89114495018E+01  0.11462316224E+02  0.31886064442E+02  0.00000000000E+00 0.  1.
         11    1    3    3    0    0  0.15212350335E+02 -0.64200535405E+01 -0.13152661568E+02  0.21109836493E+02  0.51100000000E-03 0. -1.
        -11    1    3    3    0    0 -0.39714300941E+01  0.13227024160E+02  0.50171531041E+01  0.14693476466E+02  0.51100000000E-03 0.  1.
         12    1    3    3    0    0  0.17147853600E+02 -0.15718420121E+02 -0.33268077599E+01  0.23498622599E+02  0.00000000000E+00 0. -1.
</event>
<event>
 7    1  0.3802554E-013  0.5930193E+02  0.7816164E-02  0.1266605E+00
        -11   -1    0    0    0    0  0.00000000000E+00  0.00000000000E+00  0.45593999997E+02  0.45594000000E+02  0.51100000000E-03 0.  1.
         11   -1    0    0    0    0 -0.00000000000E+00 -0.00000000000E+00 -0.45593999997E+02  0.45594000000E+02  0.51100000000E-03 0. -1.
    9900012    2    1    2    0    0 -0.19571722406E+00  0.25439162516E+02 -0.19223217751E+02  0.59301931013E+02  0.49999976263E+02 0.  0.
        -12    1    1    2    0    0  0.19571722406E+00 -0.25439162516E+02  0.19223217751E+02  0.31886068987E+02  0.00000000000E+00 0.  1.
         11    1    3    3    0    0  0.51346889968E+01  0.16978194155E+02 -0.17153448791E+02  0.24675188218E+02  0.51100000000E-03 0. -1.
        -11    1    3    3    0    0  0.66280952355E+01 -0.17841011560E+01 -0.13516130080E+02  0.15159170030E+02  0.51100000000E-03 0.  1.
        -12    1    3    3    0    0 -0.11958501456E+02  0.10245069517E+02  0.11446361120E+02  0.19467572765E+02  0.00000000000E+00 0.  1.
</event>
<event>
 7    1  0.3802554E-013  0.5930195E+02  0.7816164E-02  0.1266605E+00
        -11   -1    0    0    0    0  0.00000000000E+00  0.00000000000E+00  0.45593999997E+02  0.45594000000E+02  0.51100000000E-03 0.  1.
         11   -1    0    0    0    0 -0.00000000000E+00 -0.00000000000E+00 -0.45593999997E+02  0.45594000000E+02  0.51100000000E-03 0. -1.
    9900012    2    1    2    0    0  0.19771956657E+02 -0.20255305898E+02 -0.14680333947E+02  0.59301954590E+02  0.50000019264E+02 0.  0.
        -12    1    1    2    0    0 -0.19771956657E+02  0.20255305898E+02  0.14680333947E+02  0.31886045410E+02  0.00000000000E+00 0.  1.
         11    1    3    3    0    0 -0.58510641183E+00 -0.49072316442E+01 -0.10291067003E+02  0.11416187290E+02  0.51100000000E-03 0. -1.
        -11    1    3    3    0    0 -0.66629344181E+01 -0.15847428573E+02  0.69968257849E+01  0.18560475715E+02  0.51100000000E-03 0.  1.
         12    1    3    3    0    0  0.27019997487E+02  0.49935431978E+00 -0.11386092730E+02  0.29325291585E+02  0.00000000000E+00 0. -1.
</event>
<event>
 7    1  0.3802554E-013  0.5930196E+02  0.7816164E-02  0.1266605E+00
        -11   -1    0    0    0    0  0.00000000000E+00  0.00000000000E+00  0.45593999997E+02  0.45594000000E+02  0.51100000000E-03 0. -1.
         11   -1    0    0    0    0 -0.00000000000E+00 -0.00000000000E+00 -0.45593999997E+02  0.45594000000E+02  0.51100000000E-03 0.  1.
    9900012    2    1    2    0    0 -0.24334708724E+02  0.17900868318E+02  0.10202947157E+02  0.59301964406E+02  0.50000037164E+02 0.  0.
        -12    1    1    2    0    0  0.24334708724E+02 -0.17900868318E+02 -0.10202947157E+02  0.31886035594E+02  0.00000000000E+00 0.  1.
         11    1    3    3    0    0 -0.47195909098E+00  0.40182119406E+01 -0.29187258459E+01  0.49887607086E+01  0.51100000000E-03 0. -1.
        -11    1    3    3    0    0  0.33624888814E+01  0.23564921424E+02  0.55531466051E+01  0.24442775839E+02  0.51100000000E-03 0.  1.
         12    1    3    3    0    0 -0.27225238515E+02 -0.96822650468E+01  0.75685263975E+01  0.29870427859E+02  0.00000000000E+00 0. -1.
</event>
<event>
 7    1  0.3802554E-013  0.5930194E+02  0.7816164E-02  0.1266605E+00
        -11   -1    0    0    0    0  0.00000000000E+00  0.00000000000E+00  0.45593999997E+02  0.45594000000E+02  0.51100000000E-03 0. -1.
         11   -1    0    0    0    0 -0.00000000000E+00 -0.00000000000E+00 -0.45593999997E+02  0.45594000000E+02  0.51100000000E-03 0.  1.
    9900012    2    1    2    0    0  0.28549351256E+02  0.27829737761E+00  0.14197811731E+02  0.59301940907E+02  0.49999994308E+02 0.  0.
        -12    1    1    2    0    0 -0.28549351256E+02 -0.27829737761E+00 -0.14197811731E+02  0.31886059093E+02  0.00000000000E+00 0.  1.
         11    1    3    3    0    0 -0.21664157350E+01 -0.11124879010E+02  0.89752447919E+00  0.11369337737E+02  0.51100000000E-03 0. -1.
        -11    1    3    3    0    0 -0.65143885951E+01  0.23682102656E+01  0.54698583951E+01  0.88297808440E+01  0.51100000000E-03 0.  1.
         12    1    3    3    0    0  0.37230155586E+02  0.90349661218E+01  0.78304288568E+01  0.39102822326E+02  0.00000000000E+00 0. -1.
</event>
<event>
 7    1  0.3802554E-013  0.5930194E+02  0.7816164E-02  0.1266605E+00
        -11   -1    0    0    0    0  0.00000000000E+00  0.00000000000E+00  0.45593999997E+02  0.45594000000E+02  0.51100000000E-03 0.  1.
         11   -1    0    0    0    0 -0.00000000000E+00 -0.00000000000E+00 -0.45593999997E+02  0.45594000000E+02  0.51100000000E-03 0. -1.
    9900012    2    1    2    0    0 -0.27574020643E+02 -0.15965699394E+02 -0.12210462345E+01  0.59301935247E+02  0.49999983986E+02 0.  0.
        -12    1    1    2    0    0  0.27574020643E+02  0.15965699394E+02  0.12210462345E+01  0.31886064753E+02  0.00000000000E+00 0.  1.
         11    1    3    3    0    0 -0.32356616636E+01  0.84485493206E+01  0.27644734984E+01  0.94599051797E+01  0.51100000000E-03 0.  1.
        -11    1    3    3    0    0 -0.20302578563E+01  0.87291007547E+01 -0.41822509882E+01  0.98899125647E+01  0.51100000000E-03 0. -1.
         12    1    3    3    0    0 -0.22308101123E+02 -0.33143349469E+02  0.19673125536E+00  0.39952117502E+02  0.00000000000E+00 0. -1.
</event>
<event>
 7    1  0.3802554E-013  0.5930199E+02  0.7816164E-02  0.1266605E+00
        -11   -1    0    0    0    0  0.00000000000E+00  0.00000000000E+00  0.45593999997E+02  0.45594000000E+02  0.51100000000E-03 0.  1.
         11   -1    0    0    0    0 -0.00000000000E+00 -0.00000000000E+00 -0.45593999997E+02  0.45594000000E+02  0.51100000000E-03 0. -1.
    9900012    2    1    2    0    0 -0.31345379415E+01  0.16460791401E+02 -0.27128112970E+02  0.59301992175E+02  0.50000087810E+02 0.  0.
        -12    1    1    2    0    0  0.31345379415E+01 -0.16460791401E+02  0.27128112970E+02  0.31886007825E+02  0.00000000000E+00 0.  1.
         11    1    3    3    0    0 -0.11188649031E+02 -0.69173900159E+00 -0.20008360202E+02  0.22934664772E+02  0.51100000000E-03 0. -1.
        -11    1    3    3    0    0  0.75597596451E+01 -0.36534842772E+01 -0.12326097545E+02  0.14914107221E+02  0.51100000000E-03 0.  1.
        -12    1    3    3    0    0  0.49435144418E+00  0.20806014680E+02  0.52063447774E+01  0.21453220182E+02  0.00000000000E+00 0.  1.
</event>
<event>
 7    1  0.3802554E-013  0.5930193E+02  0.7816164E-02  0.1266605E+00
        -11   -1    0    0    0    0  0.00000000000E+00  0.00000000000E+00  0.45593999997E+02  0.45594000000E+02  0.51100000000E-03 0. -1.
         11   -1    0    0    0    0 -0.00000000000E+00 -0.00000000000E+00 -0.45593999997E+02  0.45594000000E+02  0.51100000000E-03 0.  1.
    9900012    2    1    2    0    0 -0.98518563938E+01 -0.17254051504E+02  0.24939125246E+02  0.59301931949E+02  0.49999977971E+02 0.  0.
        -12    1    1    2    0    0  0.98518563938E+01  0.17254051504E+02 -0.24939125246E+02  0.31886068051E+02  0.00000000000E+00 0.  1.
         11    1    3    3    0    0  0.62933268392E+01  0.29862145138E+01 -0.10398488180E+01  0.70430622355E+01  0.51100000000E-03 0. -1.
        -11    1    3    3    0    0 -0.89562576284E+01 -0.84254341470E+00 -0.82879478684E+01  0.12231701036E+02  0.51100000000E-03 0.  1.
         12    1    3    3    0    0 -0.71889256046E+01 -0.19397722603E+02  0.34266921933E+02  0.40027168677E+02  0.00000000000E+00 0. -1.
</event>
<event>
 7    1  0.3802554E-013  0.5930196E+02  0.7816164E-02  0.1266605E+00
        -11   -1    0    0    0    0  0.00000000000E+00  0.00000000000E+00  0.45593999997E+02  0.45594000000E+02  0.51100000000E-03 0.  1.
         11   -1    0    0    0    0 -0.00000000000E+00 -0.00000000000E+00 -0.45593999997E+02  0.45594000000E+02  0.51100000000E-03 0. -1.
    9900012    2    1    2    0    0 -0.21420117664E+00 -0.91707726075E+01 -0.30538015935E+02  0.59301962780E+02  0.50000034199E+02 0.  0.
        -12    1    1    2    0    0  0.21420117664E+00  0.91707726075E+01  0.30538015935E+02  0.31886037220E+02  0.00000000000E+00 0.  1.
         11    1    3    3    0    0  0.27918786735E+01  0.33854384199E+00 -0.59528909489E+01  0.65837762242E+01  0.51100000000E-03 0. -1.
        -11    1    3    3    0    0 -0.16875722350E+02 -0.16084406818E+02 -0.28555797215E+02  0.36863690840E+02  0.51100000000E-03 0.  1.
         12    1    3    3    0    0  0.13869642500E+02  0.65750903685E+01  0.39706722291E+01  0.15854495715E+02  0.00000000000E+00 0. -1.
</event>
<event>
 7    1  0.3802554E-013  0.5930196E+02  0.7816164E-02  0.1266605E+00
        -11   -1    0    0    0    0  0.00000000000E+00  0.00000000000E+00  0.45593999997E+02  0.45594000000E+02  0.51100000000E-03 0.  1.
         11   -1    0    0    0    0 -0.00000000000E+00 -0.00000000000E+00 -0.45593999997E+02  0.45594000000E+02  0.51100000000E-03 0. -1.
    9900012    2    1    2    0    0  0.20362901722E+02 -0.98266878257E+01 -0.22483506395E+02  0.59301958854E+02  0.50000027039E+02 0.  0.
        -12    1    1    2    0    0 -0.20362901722E+02  0.98266878257E+01  0.22483506395E+02  0.31886041146E+02  0.00000000000E+00 0.  1.
         11    1    3    3    0    0  0.94340881835E+01  0.10327036313E+02 -0.15112268105E+02  0.20591997144E+02  0.51100000000E-03 0. -1.
        -11    1    3    3    0    0  0.63282217563E+00  0.60523333947E+01  0.50767588505E+01  0.79249406379E+01  0.51100000000E-03 0.  1.
         12    1    3    3    0    0  0.10295991363E+02 -0.26206057533E+02 -0.12447997141E+02  0.30785021072E+02  0.00000000000E+00 0. -1.
</event>
<event>
 7    1  0.3802554E-013  0.5930194E+02  0.7816164E-02  0.1266605E+00
        -11   -1    0    0    0    0  0.00000000000E+00  0.00000000000E+00  0.45593999997E+02  0.45594000000E+02  0.51100000000E-03 0.  1.
         11   -1    0    0    0    0 -0.00000000000E+00 -0.00000000000E+00 -0.45593999997E+02  0.45594000000E+02  0.51100000000E-03 0. -1.
    9900012    2    1    2    0    0 -0.94785468495E+00 -0.20148558909E+01 -0.31808217400E+02  0.59301940869E+02  0.49999994239E+02 0.  0.
        -12    1    1    2    0    0  0.94785468495E+00  0.20148558909E+01  0.31808217400E+02  0.31886059131E+02  0.00000000000E+00 0.  1.
         11    1    3    3    0    0 -0.56503113376E+01 -0.84794963811E+01 -0.24420527032E+02  0.26461103867E+02  0.51100000000E-03 0. -1.
        -11    1    3    3    0    0  0.96408876636E+01 -0.86706889141E+01  0.36475203904E+01  0.13469668387E+02  0.51100000000E-03 0.  1.
        -12    1    3    3    0    0 -0.49384310109E+01  0.15135329404E+02 -0.11035210759E+02  0.19371168615E+02  0.00000000000E+00 0.  1.
</event>
<event>
 7    1  0.3802554E-013  0.5930195E+02  0.7816164E-02  0.1266605E+00
        -11   -1    0    0    0    0  0.00000000000E+00  0.00000000000E+00  0.45593999997E+02  0.45594000000E+02  0.51100000000E-03 0.  1.
         11   -1    0    0    0    0 -0.00000000000E+00 -0.00000000000E+00 -0.45593999997E+02  0.45594000000E+02  0.51100000000E-03 0. -1.
    9900012    2    1    2    0    0 -0.30833183818E+02  0.39261693877E+01 -0.71148065983E+01  0.59301945002E+02  0.50000001777E+02 0.  0.
        -12    1    1    2    0    0  0.30833183818E+02 -0.39261693877E+01  0.71148065983E+01  0.31886054998E+02  0.00000000000E+00 0.  1.
         11    1    3    3    0    0 -0.85750479568E+01 -0.55736162862E+01 -0.10822448994E+02  0.14890334061E+02  0.51100000000E-03 0. -1.
        -11    1    3    3    0    0 -0.30142822273E+02  0.15144549852E+01 -0.44917644351E+01  0.30513263615E+02  0.51100000000E-03 0.  1.
        -12    1    3    3    0    0  0.78846864119E+01  0.79853306887E+01  0.81994068302E+01  0.13898347326E+02  0.00000000000E+00 0.  1.
</event>
<event>
 7    1  0.3802554E-013  0.5930190E+02  0.7816164E-02  0.1266605E+00
        -11   -1    0    0    0    0  0.00000000000E+00  0.00000000000E+00  0.45593999997E+02  0.45594000000E+02  0.51100000000E-03 0.  1.
         11   -1    0    0    0    0 -0.00000000000E+00 -0.00000000000E+00 -0.45593999997E+02  0.45594000000E+02  0.51100000000E-03 0. -1.
    9900012    2    1    2    0    0  0.18767688667E+02 -0.15394964172E+02 -0.20675887684E+02  0.59301899717E+02  0.49999919187E+02 0.  0.
        -12    1    1    2    0    0 -0.18767688667E+02  0.15394964172E+02  0.20675887684E+02  0.31886100283E+02  0.00000000000E+00 0.  1.
         11    1    3    3    0    0  0.35819398960E+01 -0.13105878265E+02 -0.19982433294E+02  0.24163856876E+02  0.51100000000E-03 0. -1.
        -11    1    3    3    0    0  0.13181981712E+02 -0.13015924054E+02 -0.97706409252E+01  0.20943837881E+02  0.51100000000E-03 0.  1.
        -12    1    3    3    0    0  0.20037670596E+01  0.10726838146E+02  0.90771865359E+01  0.14194204960E+02  0.00000000000E+00 0.  1.
</event>
<event>
 7    1  0.3802554E-013  0.5930192E+02  0.7816164E-02  0.1266605E+00
        -11   -1    0    0    0    0  0.00000000000E+00  0.00000000000E+00  0.45593999997E+02  0.45594000000E+02  0.51100000000E-03 0.  1.
         11   -1    0    0    0    0 -0.00000000000E+00 -0.00000000000E+00 -0.45593999997E+02  0.45594000000E+02  0.51100000000E-03 0. -1.
    9900012    2    1    2    0    0 -0.82878930789E+01 -0.19943712197E+02 -0.23458081049E+02  0.59301915349E+02  0.49999947696E+02 0.  0.
        -12    1    1    2    0    0  0.82878930789E+01  0.19943712197E+02  0.23458081049E+02  0.31886084651E+02  0.00000000000E+00 0.  1.
         11    1    3    3    0    0  0.62561372519E+01  0.50431340405E+01 -0.16843375454E+02  0.18662040382E+02  0.51100000000E-03 0. -1.
        -11    1    3    3    0    0  0.61358465171E+01  0.81552940081E+00 -0.42096160341E+01  0.74856240956E+01  0.51100000000E-03 0.  1.
        -12    1    3    3    0    0 -0.20679876848E+02 -0.25802375639E+02 -0.24050895609E+01  0.33154250871E+02  0.00000000000E+00 0.  1.
</event>
<event>
 7    1  0.3802554E-013  0.5930198E+02  0.7816164E-02  0.1266605E+00
        -11   -1    0    0    0    0  0.00000000000E+00  0.00000000000E+00  0.45593999997E+02  0.45594000000E+02  0.51100000000E-03 0. -1.
         11   -1    0    0    0    0 -0.00000000000E+00 -0.00000000000E+00 -0.45593999997E+02  0.45594000000E+02  0.51100000000E-03 0.  1.
    9900012    2    1    2    0    0 -0.84019708112E+01 -0.30730889718E+02  0.13181913458E+01  0.59301979164E+02  0.50000064080E+02 0.  0.
        -12    1    1    2    0    0  0.84019708112E+01  0.30730889718E+02 -0.13181913458E+01  0.31886020836E+02  0.00000000000E+00 0.  1.
         11    1    3    3    0    0 -0.92120512522E+01 -0.24494396303E+02  0.57562905924E+00  0.26175727069E+02  0.51100000000E-03 0. -1.
        -11    1    3    3    0    0 -0.13800118341E+02  0.36913711586E+01  0.46729452715E+01  0.15030166500E+02  0.51100000000E-03 0.  1.
         12    1    3    3    0    0  0.14610198782E+02 -0.99278645731E+01 -0.39303829850E+01  0.18096085594E+02  0.00000000000E+00 0. -1.
</event>
<event>
 7    1  0.3802554E-013  0.5930192E+02  0.7816164E-02  0.1266605E+00
        -11   -1    0    0    0    0  0.00000000000E+00  0.00000000000E+00  0.45593999997E+02  0.45594000000E+02  0.51100000000E-03 0. -1.
         11   -1    0    0    0    0 -0.00000000000E+00 -0.00000000000E+00 -0.45593999997E+02  0.45594000000E+02  0.51100000000E-03 0.  1.
    9900012    2    1    2    0    0  0.21025669630E+02  0.59316786399E+01  0.23226246624E+02  0.59301919540E+02  0.49999955340E+02 0.  0.
        -12    1    1    2    0    0 -0.21025669630E+02 -0.59316786399E+01 -0.23226246624E+02  0.31886080460E+02  0.00000000000E+00 0.  1.
         11    1    3    3    0    0  0.34370999859E+02 -0.25097008876E+01  0.24695458268E+02  0.42397286342E+02  0.51100000000E-03 0. -1.
        -11    1    3    3    0    0 -0.16330571321E+01  0.65224525803E+00  0.17437674465E+01  0.24764944260E+01  0.51100000000E-03 0.  1.
        -12    1    3    3    0    0 -0.11712273097E+02  0.77891342695E+01 -0.32129790906E+01  0.14428138772E+02  0.00000000000E+00 0.  1.
</event>
<event>
 7    1  0.3802554E-013  0.5930193E+02  0.7816164E-02  0.1266605E+00
        -11   -1    0    0    0    0  0.00000000000E+00  0.00000000000E+00  0.45593999997E+02  0.45594000000E+02  0.51100000000E-03 0.  1.
         11   -1    0    0    0    0 -0.00000000000E+00 -0.00000000000E+00 -0.45593999997E+02  0.45594000000E+02  0.51100000000E-03 0. -1.
    9900012    2    1    2    0    0 -0.19892711816E+02 -0.23408020052E+01 -0.24809712746E+02  0.59301934329E+02  0.49999982312E+02 0.  0.
        -12    1    1    2    0    0  0.19892711816E+02  0.23408020052E+01  0.24809712746E+02  0.31886065671E+02  0.00000000000E+00 0.  1.
         11    1    3    3    0    0 -0.66288150032E+01 -0.22244072448E+02 -0.12902582768E+02  0.26555914403E+02  0.51100000000E-03 0. -1.
        -11    1    3    3    0    0 -0.11407095016E+02  0.25652476708E+01 -0.10896824901E+00  0.11692484195E+02  0.51100000000E-03 0.  1.
        -12    1    3    3    0    0 -0.18568017969E+01  0.17338022773E+02 -0.11798161729E+02  0.21053535731E+02  0.00000000000E+00 0.  1.
</event>
<event>
 7    1  0.3802554E-013  0.5930194E+02  0.7816164E-02  0.1266605E+00
        -11   -1    0    0    0    0  0.00000000000E+00  0.00000000000E+00  0.45593999997E+02  0.45594000000E+02  0.51100000000E-03 0.  1.
         11   -1    0    0    0    0 -0.00000000000E+00 -0.00000000000E+00 -0.45593999997E+02  0.45594000000E+02  0.51100000000E-03 0. -1.
    9900012    2    1    2    0    0  0.15122610461E+02 -0.27699494431E+02 -0.45569466345E+01  0.59301935622E+02  0.49999984670E+02 0.  0.
        -12    1    1    2    0    0 -0.15122610461E+02  0.27699494431E+02  0.45569466345E+01  0.31886064378E+02  0.00000000000E+00 0.  1.
         11    1    3    3    0    0  0.14959537445E+02 -0.36616614639E+01 -0.16365833724E+02  0.22473006897E+02  0.51100000000E-03 0. -1.
        -11    1    3    3    0    0  0.11744437414E+02 -0.58521200491E+01  0.25627668852E+01  0.13369625784E+02  0.51100000000E-03 0.  1.
        -12    1    3    3    0    0 -0.11581364398E+02 -0.18185712918E+02  0.92461202044E+01  0.23459302941E+02  0.00000000000E+00 0.  1.
</event>
<event>
 7    1  0.3802554E-013  0.5930156E+02  0.7816164E-02  0.1266606E+00
        -11   -1    0    0    0    0  0.00000000000E+00  0.00000000000E+00  0.45593999997E+02  0.45594000000E+02  0.51100000000E-03 0. -1.
         11   -1    0    0    0    0 -0.00000000000E+00 -0.00000000000E+00 -0.45593999997E+02  0.45594000000E+02  0.51100000000E-03 0.  1.
    9900012    2    1    2    0    0  0.96372105238E+01 -0.29558242579E+02  0.70837474476E+01  0.59301560736E+02  0.49999300963E+02 0.  0.
        -12    1    1    2    0    0 -0.96372105238E+01  0.29558242579E+02 -0.70837474476E+01  0.31886439264E+02  0.00000000000E+00 0.  1.
         11    1    3    3    0    0 -0.26072278935E+01 -0.22589080751E+02 -0.26753527238E+01  0.22895888691E+02  0.51100000000E-03 0. -1.
        -11    1    3    3    0    0 -0.46226532545E+01 -0.15497077372E+02  0.46396773765E+01  0.16824236583E+02  0.51100000000E-03 0.  1.
        -12    1    3    3    0    0  0.16867091672E+02  0.85279155447E+01  0.51194227949E+01  0.19581435462E+02  0.00000000000E+00 0.  1.
</event>
<event>
 7    1  0.3802554E-013  0.5930191E+02  0.7816164E-02  0.1266605E+00
        -11   -1    0    0    0    0  0.00000000000E+00  0.00000000000E+00  0.45593999997E+02  0.45594000000E+02  0.51100000000E-03 0. -1.
         11   -1    0    0    0    0 -0.00000000000E+00 -0.00000000000E+00 -0.45593999997E+02  0.45594000000E+02  0.51100000000E-03 0.  1.
    9900012    2    1    2    0    0  0.19805438246E+02  0.93656045376E+01 -0.23167926067E+02  0.59301910075E+02  0.49999938079E+02 0.  0.
        -12    1    1    2    0    0 -0.19805438246E+02 -0.93656045376E+01  0.23167926067E+02  0.31886089925E+02  0.00000000000E+00 0.  1.
         11    1    3    3    0    0  0.43831170546E+01  0.59733429487E+01  0.11426327487E+02  0.13618131340E+02  0.51100000000E-03 0. -1.
        -11    1    3    3    0    0 -0.57519399857E+01  0.52799927550E+01 -0.14305813790E+02  0.16297835609E+02  0.51100000000E-03 0.  1.
         12    1    3    3    0    0  0.21174261177E+02 -0.18877311662E+01 -0.20288439763E+02  0.29385943126E+02  0.00000000000E+00 0. -1.
</event>
<event>
 7    1  0.3802554E-013  0.5930196E+02  0.7816164E-02  0.1266605E+00
        -11   -1    0    0    0    0  0.00000000000E+00  0.00000000000E+00  0.45593999997E+02  0.45594000000E+02  0.51100000000E-03 0.  1.
         11   -1    0    0    0    0 -0.00000000000E+00 -0.00000000000E+00 -0.45593999997E+02  0.45594000000E+02  0.51100000000E-03 0. -1.
    9900012    2    1    2    0    0 -0.12749845957E+02  0.28629615217E+02  0.58741953930E+01  0.59301958996E+02  0.50000027299E+02 0.  0.
        -12    1    1    2    0    0  0.12749845957E+02 -0.28629615217E+02 -0.58741953930E+01  0.31886041004E+02  0.00000000000E+00 0.  1.
         11    1    3    3    0    0 -0.11474058353E+02  0.48615731464E+01  0.10090400065E+02  0.16034496633E+02  0.51100000000E-03 0. -1.
        -11    1    3    3    0    0 -0.12306812978E+02  0.64764641930E+01  0.10998001364E+02  0.17730151392E+02  0.51100000000E-03 0.  1.
        -12    1    3    3    0    0  0.11031025375E+02  0.17291577878E+02 -0.15214206036E+02  0.25537310971E+02  0.00000000000E+00 0.  1.
</event>
<event>
 7    1  0.3802554E-013  0.5930192E+02  0.7816164E-02  0.1266605E+00
        -11   -1    0    0    0    0  0.00000000000E+00  0.00000000000E+00  0.45593999997E+02  0.45594000000E+02  0.51100000000E-03 0.  1.
         11   -1    0    0    0    0 -0.00000000000E+00 -0.00000000000E+00 -0.45593999997E+02  0.45594000000E+02  0.51100000000E-03 0. -1.
    9900012    2    1    2    0    0  0.27126007255E+02  0.15492638917E+02  0.63937504239E+01  0.59301918793E+02  0.49999953979E+02 0.  0.
        -12    1    1    2    0    0 -0.27126007255E+02 -0.15492638917E+02 -0.63937504239E+01  0.31886081207E+02  0.00000000000E+00 0.  1.
         11    1    3    3    0    0  0.10833985701E+02 -0.53973872259E+01 -0.42774396633E+01  0.12837582536E+02  0.51100000000E-03 0. -1.
        -11    1    3    3    0    0 -0.58155792171E+01 -0.57865511917E+01  0.84027560131E+01  0.11743570377E+02  0.51100000000E-03 0.  1.
         12    1    3    3    0    0  0.22107600771E+02  0.26676577335E+02  0.22684340742E+01  0.34720765880E+02  0.00000000000E+00 0. -1.
</event>
<event>
 7    1  0.3802554E-013  0.5930193E+02  0.7816164E-02  0.1266605E+00
        -11   -1    0    0    0    0  0.00000000000E+00  0.00000000000E+00  0.45593999997E+02  0.45594000000E+02  0.51100000000E-03 0.  1.
         11   -1    0    0    0    0 -0.00000000000E+00 -0.00000000000E+00 -0.45593999997E+02  0.45594000000E+02  0.51100000000E-03 0. -1.
    9900012    2    1    2    0    0  0.82704669514E+01 -0.71040228154E+01  0.29964205352E+02  0.59301931472E+02  0.49999977102E+02 0.  0.
        -12    1    1    2    0    0 -0.82704669514E+01  0.71040228154E+01 -0.29964205352E+02  0.31886068528E+02  0.00000000000E+00 0.  1.
         11    1    3    3    0    0  0.65379763955E+01 -0.97616630766E+01  0.20432841771E+02  0.23569815962E+02  0.51100000000E-03 0. -1.
        -11    1    3    3    0    0  0.37623269765E+01 -0.97666158699E+01 -0.86771802902E+01  0.13595416429E+02  0.51100000000E-03 0.  1.
        -12    1    3    3    0    0 -0.20298364205E+01  0.12424256131E+02  0.18208543872E+02  0.22136699082E+02  0.00000000000E+00 0.  1.
</event>
<event>
 7    1  0.3802554E-013  0.5930192E+02  0.7816164E-02  0.1266605E+00
        -11   -1    0    0    0    0  0.00000000000E+00  0.00000000000E+00  0.45593999997E+02  0.45594000000E+02  0.51100000000E-03 0. -1.
         11   -1    0    0    0    0 -0.00000000000E+00 -0.00000000000E+00 -0.45593999997E+02  0.45594000000E+02  0.51100000000E-03 0.  1.
    9900012    2    1    2    0    0 -0.52698692237E+00 -0.84920290335E+01  0.30729947953E+02  0.59301921948E+02  0.49999959732E+02 0.  0.
        -12    1    1    2    0    0  0.52698692237E+00  0.84920290335E+01 -0.30729947953E+02  0.31886078052E+02  0.00000000000E+00 0.  1.
         11    1    3    3    0    0  0.24035772266E+01  0.15223790875E+02  0.88311037950E+01  0.17763146866E+02  0.51100000000E-03 0. -1.
        -11    1    3    3    0    0  0.64566598963E+00 -0.82474419195E+01 -0.54564611288E+01  0.99101034857E+01  0.51100000000E-03 0.  1.
         12    1    3    3    0    0 -0.35762301386E+01 -0.15468377989E+02  0.27355305287E+02  0.31628671596E+02  0.00000000000E+00 0. -1.
</event>
<event>
 7    1  0.3802554E-013  0.5930195E+02  0.7816164E-02  0.1266605E+00
        -11   -1    0    0    0    0  0.00000000000E+00  0.00000000000E+00  0.45593999997E+02  0.45594000000E+02  0.51100000000E-03 0. -1.
         11   -1    0    0    0    0 -0.00000000000E+00 -0.00000000000E+00 -0.45593999997E+02  0.45594000000E+02  0.51100000000E-03 0.  1.
    9900012    2    1    2    0    0 -0.30339324522E+02 -0.93679509619E+01 -0.29132963826E+01  0.59301946411E+02  0.50000004347E+02 0.  0.
        -12    1    1    2    0    0  0.30339324522E+02  0.93679509619E+01  0.29132963826E+01  0.31886053589E+02  0.00000000000E+00 0.  1.
         11    1    3    3    0    0 -0.12332531592E+02 -0.16104171832E+02  0.90876164699E+01  0.22226571018E+02  0.51100000000E-03 0. -1.
        -11    1    3    3    0    0  0.47665471372E+01 -0.70025846580E+01 -0.24885800801E+01  0.88288841073E+01  0.51100000000E-03 0.  1.
        -12    1    3    3    0    0 -0.22773340067E+02  0.13738805528E+02 -0.95123327724E+01  0.28246491285E+02  0.00000000000E+00 0.  1.
</event>
<event>
 7    1  0.3802554E-013  0.5930197E+02  0.7816164E-02  0.1266605E+00
        -11   -1    0    0    0    0  0.00000000000E+00  0.00000000000E+00  0.45593999997E+02  0.45594000000E+02  0.51100000000E-03 0. -1.
         11   -1    0    0    0    0 -0.00000000000E+00 -0.00000000000E+00 -0.45593999997E+02  0.45594000000E+02  0.51100000000E-03 0.  1.
    9900012    2    1    2    0    0  0.22875207512E+02 -0.17654601996E+02 -0.13481798909E+02  0.59301968698E+02  0.50000044993E+02 0.  0.
        -12    1    1    2    0    0 -0.22875207512E+02  0.17654601996E+02  0.13481798909E+02  0.31886031302E+02  0.00000000000E+00 0.  1.
         11    1    3    3    0    0  0.17639495442E+02 -0.21056202975E+01 -0.95254347215E+01  0.20157364490E+02  0.51100000000E-03 0. -1.
        -11    1    3    3    0    0  0.13972556250E+02  0.51789835886E+01 -0.69675089669E+01  0.16449935582E+02  0.51100000000E-03 0.  1.
         12    1    3    3    0    0 -0.87368441808E+01 -0.20727965287E+02  0.30111447794E+01  0.22694668626E+02  0.00000000000E+00 0. -1.
</event>
<event>
 7    1  0.3802554E-013  0.5930194E+02  0.7816164E-02  0.1266605E+00
        -11   -1    0    0    0    0  0.00000000000E+00  0.00000000000E+00  0.45593999997E+02  0.45594000000E+02  0.51100000000E-03 0.  1.
         11   -1    0    0    0    0 -0.00000000000E+00 -0.00000000000E+00 -0.45593999997E+02  0.45594000000E+02  0.51100000000E-03 0. -1.
    9900012    2    1    2    0    0 -0.31100765637E+02 -0.14038967411E+01  0.68914606444E+01  0.59301940678E+02  0.49999993891E+02 0.  0.
        -12    1    1    2    0    0  0.31100765637E+02  0.14038967411E+01 -0.68914606444E+01  0.31886059322E+02  0.00000000000E+00 0.  1.
         11    1    3    3    0    0 -0.24509920962E+02  0.43106554768E+01  0.33190369600E+01  0.25106453011E+02  0.51100000000E-03 0.  1.
        -11    1    3    3    0    0 -0.20010591682E+02 -0.45301007983E+01  0.27222939652E+01  0.20696774565E+02  0.51100000000E-03 0. -1.
        -12    1    3    3    0    0  0.13419747006E+02 -0.11844514196E+01  0.85012971918E+00  0.13498713102E+02  0.00000000000E+00 0.  1.
</event>
<event>
 7    1  0.3802554E-013  0.5930196E+02  0.7816164E-02  0.1266605E+00
        -11   -1    0    0    0    0  0.00000000000E+00  0.00000000000E+00  0.45593999997E+02  0.45594000000E+02  0.51100000000E-03 0.  1.
         11   -1    0    0    0    0 -0.00000000000E+00 -0.00000000000E+00 -0.45593999997E+02  0.45594000000E+02  0.51100000000E-03 0. -1.
    9900012    2    1    2    0    0 -0.98594125059E-01  0.21726328305E+02 -0.23338302096E+02  0.59301962192E+02  0.50000033127E+02 0.  0.
        -12    1    1    2    0    0  0.98594125059E-01 -0.21726328305E+02  0.23338302096E+02  0.31886037808E+02  0.00000000000E+00 0.  1.
         11    1    3    3    0    0 -0.82444260261E+01  0.32385061921E+01 -0.25556970453E+02  0.27048423648E+02  0.51100000000E-03 0. -1.
        -11    1    3    3    0    0 -0.35259568312E+01  0.18895287949E+02 -0.30133933662E+01  0.19456228260E+02  0.51100000000E-03 0.  1.
        -12    1    3    3    0    0  0.11671788732E+02 -0.40746583654E+00  0.52320617236E+01  0.12797310284E+02  0.00000000000E+00 0.  1.
</event>
<event>
 7    1  0.3802554E-013  0.5930194E+02  0.7816164E-02  0.1266605E+00
        -11   -1    0    0    0    0  0.00000000000E+00  0.00000000000E+00  0.45593999997E+02  0.45594000000E+02  0.51100000000E-03 0. -1.
         11   -1    0    0    0    0 -0.00000000000E+00 -0.00000000000E+00 -0.45593999997E+02  0.45594000000E+02  0.51100000000E-03 0.  1.
    9900012    2    1    2    0    0  0.26318914351E+02  0.16340446713E+02 -0.75515069396E+01  0.59301941785E+02  0.49999995910E+02 0.  0.
        -12    1    1    2    0    0 -0.26318914351E+02 -0.16340446713E+02  0.75515069396E+01  0.31886058215E+02  0.00000000000E+00 0.  1.
         11    1    3    3    0    0  0.15994501540E+02  0.24661614480E+01 -0.14359258831E+02  0.21635488121E+02  0.51100000000E-03 0. -1.
        -11    1    3    3    0    0 -0.33743793935E+01  0.40110891471E+01 -0.11576613438E+02  0.12707999504E+02  0.51100000000E-03 0.  1.
         12    1    3    3    0    0  0.13698792204E+02  0.98631961183E+01  0.18384365329E+02  0.24958454160E+02  0.00000000000E+00 0. -1.
</event>
<event>
 7    1  0.3802554E-013  0.5930227E+02  0.7816164E-02  0.1266604E+00
        -11   -1    0    0    0    0  0.00000000000E+00  0.00000000000E+00  0.45593999997E+02  0.45594000000E+02  0.51100000000E-03 0. -1.
         11   -1    0    0    0    0 -0.00000000000E+00 -0.00000000000E+00 -0.45593999997E+02  0.45594000000E+02  0.51100000000E-03 0.  1.
    9900012    2    1    2    0    0  0.31879280221E+02  0.22988844553E+00 -0.59843065914E+00  0.59302274740E+02  0.50000603136E+02 0.  0.
        -12    1    1    2    0    0 -0.31879280221E+02 -0.22988844553E+00  0.59843065914E+00  0.31885725260E+02  0.00000000000E+00 0.  1.
         11    1    3    3    0    0  0.35513360752E+02  0.10076604948E+02  0.10219743440E+02  0.38303784610E+02  0.51100000000E-03 0. -1.
        -11    1    3    3    0    0 -0.12821705726E+01 -0.10113831314E+02 -0.28092037125E+00  0.10198649997E+02  0.51100000000E-03 0.  1.
        -12    1    3    3    0    0 -0.23519099584E+01  0.26711481157E+00 -0.10537253728E+02  0.10799840134E+02  0.00000000000E+00 0.  1.
</event>
<event>
 7    1  0.3802554E-013  0.5930194E+02  0.7816164E-02  0.1266605E+00
        -11   -1    0    0    0    0  0.00000000000E+00  0.00000000000E+00  0.45593999997E+02  0.45594000000E+02  0.51100000000E-03 0.  1.
         11   -1    0    0    0    0 -0.00000000000E+00 -0.00000000000E+00 -0.45593999997E+02  0.45594000000E+02  0.51100000000E-03 0. -1.
    9900012    2    1    2    0    0  0.21382881401E+02  0.95346548682E+01 -0.21646785616E+02  0.59301943675E+02  0.49999999356E+02 0.  0.
        -12    1    1    2    0    0 -0.21382881401E+02 -0.95346548682E+01  0.21646785616E+02  0.31886056325E+02  0.00000000000E+00 0.  1.
         11    1    3    3    0    0  0.14719364417E+02  0.53764089723E+01 -0.26194649200E+02  0.30524172539E+02  0.51100000000E-03 0. -1.
        -11    1    3    3    0    0  0.21685115324E+01  0.30044929016E+01 -0.11494867284E+02  0.12077309055E+02  0.51100000000E-03 0.  1.
        -12    1    3    3    0    0  0.44950054523E+01  0.11537529944E+01  0.16042730868E+02  0.16700462080E+02  0.00000000000E+00 0.  1.
</event>
<event>
 7    1  0.3802554E-013  0.5930198E+02  0.7816164E-02  0.1266605E+00
        -11   -1    0    0    0    0  0.00000000000E+00  0.00000000000E+00  0.45593999997E+02  0.45594000000E+02  0.51100000000E-03 0.  1.
         11   -1    0    0    0    0 -0.00000000000E+00 -0.00000000000E+00 -0.45593999997E+02  0.45594000000E+02  0.51100000000E-03 0. -1.
    9900012    2    1    2    0    0 -0.19627455531E+02 -0.39738210490E+01 -0.24813102362E+02  0.59301979346E+02  0.50000064411E+02 0.  0.
        -12    1    1    2    0    0  0.19627455531E+02  0.39738210490E+01  0.24813102362E+02  0.31886020654E+02  0.00000000000E+00 0.  1.
         11    1    3    3    0    0 -0.15657979900E+02 -0.57718802696E+01  0.17939662576E+01  0.16784077323E+02  0.51100000000E-03 0. -1.
        -11    1    3    3    0    0 -0.67604134901E+01  0.11348118428E+02  0.92664142230E+00  0.13241663302E+02  0.51100000000E-03 0.  1.
         12    1    3    3    0    0  0.27909378587E+01 -0.95500592072E+01 -0.27533710042E+02  0.29276238721E+02  0.00000000000E+00 0. -1.
</event>
<event>
 7    1  0.3802554E-013  0.5930195E+02  0.7816164E-02  0.1266605E+00
        -11   -1    0    0    0    0  0.00000000000E+00  0.00000000000E+00  0.45593999997E+02  0.45594000000E+02  0.51100000000E-03 0.  1.
         11   -1    0    0    0    0 -0.00000000000E+00 -0.00000000000E+00 -0.45593999997E+02  0.45594000000E+02  0.51100000000E-03 0. -1.
    9900012    2    1    2    0    0  0.13895889706E+01  0.16491939066E+02 -0.27254449644E+02  0.59301952314E+02  0.50000015111E+02 0.  0.
        -12    1    1    2    0    0 -0.13895889706E+01 -0.16491939066E+02  0.27254449644E+02  0.31886047686E+02  0.00000000000E+00 0.  1.
         11    1    3    3    0    0  0.88486323809E+01  0.10898412009E+02 -0.55423947278E+01  0.15092773732E+02  0.51100000000E-03 0. -1.
        -11    1    3    3    0    0  0.11374410491E+02  0.13869830975E+02 -0.10282085448E+02  0.20675364730E+02  0.51100000000E-03 0.  1.
        -12    1    3    3    0    0 -0.18833453901E+02 -0.82763039176E+01 -0.11429969468E+02  0.23533813852E+02  0.00000000000E+00 0.  1.
</event>
<event>
 7    1  0.3802554E-013  0.5930193E+02  0.7816164E-02  0.1266605E+00
        -11   -1    0    0    0    0  0.00000000000E+00  0.00000000000E+00  0.45593999997E+02  0.45594000000E+02  0.51100000000E-03 0.  1.
         11   -1    0    0    0    0 -0.00000000000E+00 -0.00000000000E+00 -0.45593999997E+02  0.45594000000E+02  0.51100000000E-03 0. -1.
    9900012    2    1    2    0    0  0.11476948844E+02 -0.14322320751E+02 -0.26074359166E+02  0.59301930434E+02  0.49999975208E+02 0.  0.
        -12    1    1    2    0    0 -0.11476948844E+02  0.14322320751E+02  0.26074359166E+02  0.31886069566E+02  0.00000000000E+00 0.  1.
         11    1    3    3    0    0  0.16101010502E+01 -0.11636707671E+02  0.52973808613E+01  0.12886723209E+02  0.51100000000E-03 0. -1.
        -11    1    3    3    0    0  0.13350281500E+02  0.58873309000E+01 -0.95498837744E+00  0.14621993172E+02  0.51100000000E-03 0.  1.
         12    1    3    3    0    0 -0.34834337063E+01 -0.85729439801E+01 -0.30416751650E+02  0.31793214053E+02  0.00000000000E+00 0. -1.
</event>
<event>
 7    1  0.3802554E-013  0.5930188E+02  0.7816164E-02  0.1266605E+00
        -11   -1    0    0    0    0  0.00000000000E+00  0.00000000000E+00  0.45593999997E+02  0.45594000000E+02  0.51100000000E-03 0. -1.
         11   -1    0    0    0    0 -0.00000000000E+00 -0.00000000000E+00 -0.45593999997E+02  0.45594000000E+02  0.51100000000E-03 0.  1.
    9900012    2    1    2    0    0 -0.19293185727E+01 -0.31825197018E+02 -0.39927057115E+00  0.59301876806E+02  0.49999877403E+02 0.  0.
        -12    1    1    2    0    0  0.19293185727E+01  0.31825197018E+02  0.39927057115E+00  0.31886123194E+02  0.00000000000E+00 0.  1.
         11    1    3    3    0    0  0.35521922773E+01 -0.19987606676E+02 -0.10354637717E+02  0.22789054678E+02  0.51100000000E-03 0. -1.
        -11    1    3    3    0    0 -0.23783021772E+01 -0.20318972364E+02 -0.30452631153E+01  0.20683099064E+02  0.51100000000E-03 0.  1.
        -12    1    3    3    0    0 -0.31032086728E+01  0.84813820226E+01  0.13000630262E+02  0.15829723064E+02  0.00000000000E+00 0.  1.
</event>
<event>
 7    1  0.3802554E-013  0.5930196E+02  0.7816164E-02  0.1266605E+00
        -11   -1    0    0    0    0  0.00000000000E+00  0.00000000000E+00  0.45593999997E+02  0.45594000000E+02  0.51100000000E-03 0. -1.
         11   -1    0    0    0    0 -0.00000000000E+00 -0.00000000000E+00 -0.45593999997E+02  0.45594000000E+02  0.51100000000E-03 0.  1.
    9900012    2    1    2    0    0 -0.28204572797E+02  0.14107880655E+02  0.47105501225E+01  0.59301960646E+02  0.50000030308E+02 0.  0.
        -12    1    1    2    0    0  0.28204572797E+02 -0.14107880655E+02 -0.47105501225E+01  0.31886039354E+02  0.00000000000E+00 0.  1.
         11    1    3    3    0    0 -0.17769631436E+02  0.10713829661E+02  0.69348190346E+01  0.21877789255E+02  0.51100000000E-03 0. -1.
        -11    1    3    3    0    0  0.43953644087E+01  0.46682076538E+01  0.14004762700E+02  0.15402752012E+02  0.51100000000E-03 0.  1.
         12    1    3    3    0    0 -0.14830305769E+02 -0.12741566598E+01 -0.16229031612E+02  0.22021419379E+02  0.00000000000E+00 0. -1.
</event>
<event>
 7    1  0.3802554E-013  0.5930163E+02  0.7816164E-02  0.1266606E+00
        -11   -1    0    0    0    0  0.00000000000E+00  0.00000000000E+00  0.45593999997E+02  0.45594000000E+02  0.51100000000E-03 0.  1.
         11   -1    0    0    0    0 -0.00000000000E+00 -0.00000000000E+00 -0.45593999997E+02  0.45594000000E+02  0.51100000000E-03 0. -1.
    9900012    2    1    2    0    0  0.28863698102E+02  0.12613686837E+02 -0.49520160303E+01  0.59301629456E+02  0.49999426293E+02 0.  0.
        -12    1    1    2    0    0 -0.28863698102E+02 -0.12613686837E+02  0.49520160303E+01  0.31886370544E+02  0.00000000000E+00 0.  1.
         11    1    3    3    0    0  0.12243047511E+02 -0.39977565707E+01  0.10537889451E+02  0.16640955030E+02  0.51100000000E-03 0. -1.
        -11    1    3    3    0    0  0.15126424415E+02  0.23730160479E+02 -0.31240205070E+01  0.28314108432E+02  0.51100000000E-03 0.  1.
         12    1    3    3    0    0  0.14942261758E+01 -0.71187170714E+01 -0.12365884974E+02  0.14346565993E+02  0.00000000000E+00 0. -1.
</event>
<event>
 7    1  0.3802554E-013  0.5930195E+02  0.7816164E-02  0.1266605E+00
        -11   -1    0    0    0    0  0.00000000000E+00  0.00000000000E+00  0.45593999997E+02  0.45594000000E+02  0.51100000000E-03 0.  1.
         11   -1    0    0    0    0 -0.00000000000E+00 -0.00000000000E+00 -0.45593999997E+02  0.45594000000E+02  0.51100000000E-03 0. -1.
    9900012    2    1    2    0    0 -0.69521918909E+01  0.24201246014E+02 -0.19562377660E+02  0.59301954456E+02  0.50000019019E+02 0.  0.
        -12    1    1    2    0    0  0.69521918909E+01 -0.24201246014E+02  0.19562377660E+02  0.31886045544E+02  0.00000000000E+00 0.  1.
         11    1    3    3    0    0  0.24148227600E+01 -0.12062192078E+00  0.44336976851E+01  0.50501083190E+01  0.51100000000E-03 0. -1.
        -11    1    3    3    0    0  0.27078450729E+01  0.26029500161E+02  0.12656842634E+01  0.26200558400E+02  0.51100000000E-03 0.  1.
         12    1    3    3    0    0 -0.12074859724E+02 -0.17076322259E+01 -0.25261759608E+02  0.28051287737E+02  0.00000000000E+00 0. -1.
</event>
<event>
 7    1  0.3802554E-013  0.5930188E+02  0.7816164E-02  0.1266605E+00
        -11   -1    0    0    0    0  0.00000000000E+00  0.00000000000E+00  0.45593999997E+02  0.45594000000E+02  0.51100000000E-03 0. -1.
         11   -1    0    0    0    0 -0.00000000000E+00 -0.00000000000E+00 -0.45593999997E+02  0.45594000000E+02  0.51100000000E-03 0.  1.
    9900012    2    1    2    0    0  0.24769027772E+02 -0.15985207669E+02  0.12152893235E+02  0.59301883664E+02  0.49999889912E+02 0.  0.
        -12    1    1    2    0    0 -0.24769027772E+02  0.15985207669E+02 -0.12152893235E+02  0.31886116336E+02  0.00000000000E+00 0.  1.
         11    1    3    3    0    0 -0.23433279403E+01  0.76153680463E+01  0.11692198379E+02  0.14148940579E+02  0.51100000000E-03 0. -1.
        -11    1    3    3    0    0 -0.13768729789E+01 -0.13496064713E+02  0.52524218176E+01  0.14547421667E+02  0.51100000000E-03 0.  1.
        -12    1    3    3    0    0  0.28489228691E+02 -0.10104511002E+02 -0.47917269617E+01  0.30605521418E+02  0.00000000000E+00 0.  1.
</event>
<event>
 7    1  0.3802554E-013  0.5930198E+02  0.7816164E-02  0.1266605E+00
        -11   -1    0    0    0    0  0.00000000000E+00  0.00000000000E+00  0.45593999997E+02  0.45594000000E+02  0.51100000000E-03 0. -1.
         11   -1    0    0    0    0 -0.00000000000E+00 -0.00000000000E+00 -0.45593999997E+02  0.45594000000E+02  0.51100000000E-03 0.  1.
    9900012    2    1    2    0    0  0.12862386331E+02 -0.19476112635E+02  0.21724599283E+02  0.59301981755E+02  0.50000068806E+02 0.  0.
        -12    1    1    2    0    0 -0.12862386331E+02  0.19476112635E+02 -0.21724599283E+02  0.31886018245E+02  0.00000000000E+00 0.  1.
         11    1    3    3    0    0 -0.13668384860E+02 -0.93455099761E+01  0.14672774553E+02  0.22123598594E+02  0.51100000000E-03 0.  1.
        -11    1    3    3    0    0  0.47454592946E+01 -0.13553631592E+02  0.40636216458E+01  0.14924253227E+02  0.51100000000E-03 0. -1.
        -12    1    3    3    0    0  0.21785311896E+02  0.34230289327E+01  0.29882030846E+01  0.22254129935E+02  0.00000000000E+00 0.  1.
</event>
<event>
 7    1  0.3802554E-013  0.5930193E+02  0.7816164E-02  0.1266605E+00
        -11   -1    0    0    0    0  0.00000000000E+00  0.00000000000E+00  0.45593999997E+02  0.45594000000E+02  0.51100000000E-03 0. -1.
         11   -1    0    0    0    0 -0.00000000000E+00 -0.00000000000E+00 -0.45593999997E+02  0.45594000000E+02  0.51100000000E-03 0.  1.
    9900012    2    1    2    0    0  0.22244558164E+02  0.21153119060E+02  0.86282494667E+01  0.59301929331E+02  0.49999973196E+02 0.  0.
        -12    1    1    2    0    0 -0.22244558164E+02 -0.21153119060E+02 -0.86282494667E+01  0.31886070669E+02  0.00000000000E+00 0.  1.
         11    1    3    3    0    0 -0.12105853202E+02  0.84924995366E+01  0.95583598420E+01  0.17607852602E+02  0.51100000000E-03 0. -1.
        -11    1    3    3    0    0  0.23532438259E+00 -0.24999093856E+01 -0.34614975414E+01  0.42763173399E+01  0.51100000000E-03 0.  1.
         12    1    3    3    0    0  0.34115086983E+02  0.15160528909E+02  0.25313871661E+01  0.37417759389E+02  0.00000000000E+00 0. -1.
</event>
<event>
 7    1  0.3802554E-013  0.5930193E+02  0.7816164E-02  0.1266605E+00
        -11   -1    0    0    0    0  0.00000000000E+00  0.00000000000E+00  0.45593999997E+02  0.45594000000E+02  0.51100000000E-03 0. -1.
         11   -1    0    0    0    0 -0.00000000000E+00 -0.00000000000E+00 -0.45593999997E+02  0.45594000000E+02  0.51100000000E-03 0.  1.
    9900012    2    1    2    0    0 -0.21125458520E+00 -0.31348831390E+02 -0.58247641408E+01  0.59301925684E+02  0.49999966545E+02 0.  0.
        -12    1    1    2    0    0  0.21125458520E+00  0.31348831390E+02  0.58247641408E+01  0.31886074316E+02  0.00000000000E+00 0.  1.
         11    1    3    3    0    0  0.25803109770E+01 -0.65669640534E+00  0.12822698425E+02  0.13096215105E+02  0.51100000000E-03 0. -1.
        -11    1    3    3    0    0 -0.53635134041E+01 -0.29070388426E+02 -0.23801732609E+01  0.29656702182E+02  0.51100000000E-03 0.  1.
        -12    1    3    3    0    0  0.25719478419E+01 -0.16217465581E+01 -0.16267289305E+02  0.16549008397E+02  0.00000000000E+00 0.  1.
</event>
<event>
 7    1  0.3802554E-013  0.5930195E+02  0.7816164E-02  0.1266605E+00
        -11   -1    0    0    0    0  0.00000000000E+00  0.00000000000E+00  0.45593999997E+02  0.45594000000E+02  0.51100000000E-03 0.  1.
         11   -1    0    0    0    0 -0.00000000000E+00 -0.00000000000E+00 -0.45593999997E+02  0.45594000000E+02  0.51100000000E-03 0. -1.
    9900012    2    1    2    0    0  0.15544377129E+02 -0.23454916773E+02 -0.14998644421E+02  0.59301951082E+02  0.50000012864E+02 0.  0.
        -12    1    1    2    0    0 -0.15544377129E+02  0.23454916773E+02  0.14998644421E+02  0.31886048918E+02  0.00000000000E+00 0.  1.
         11    1    3    3    0    0 -0.13073467719E+01 -0.12987935635E+01  0.10013739644E+02  0.10181895807E+02  0.51100000000E-03 0.  1.
        -11    1    3    3    0    0  0.20702326231E+02 -0.24135073821E+02 -0.97549804936E+01  0.33260302831E+02  0.51100000000E-03 0. -1.
         12    1    3    3    0    0 -0.38506023309E+01  0.19789506112E+01 -0.15257403572E+02  0.15859752444E+02  0.00000000000E+00 0. -1.
</event>
<event>
 7    1  0.3802554E-013  0.5930195E+02  0.7816164E-02  0.1266605E+00
        -11   -1    0    0    0    0  0.00000000000E+00  0.00000000000E+00  0.45593999997E+02  0.45594000000E+02  0.51100000000E-03 0.  1.
         11   -1    0    0    0    0 -0.00000000000E+00 -0.00000000000E+00 -0.45593999997E+02  0.45594000000E+02  0.51100000000E-03 0. -1.
    9900012    2    1    2    0    0 -0.17418530957E+02  0.22087879931E+02 -0.15014682733E+02  0.59301947279E+02  0.50000005930E+02 0.  0.
        -12    1    1    2    0    0  0.17418530957E+02 -0.22087879931E+02  0.15014682733E+02  0.31886052721E+02  0.00000000000E+00 0.  1.
         11    1    3    3    0    0 -0.86969400908E+01  0.67541316175E+01 -0.10720059920E+01  0.11063645781E+02  0.51100000000E-03 0. -1.
        -11    1    3    3    0    0 -0.17844449341E+02  0.21306391050E+02  0.31436483562E+01  0.27969075728E+02  0.51100000000E-03 0.  1.
         12    1    3    3    0    0  0.91228584747E+01 -0.59726427360E+01 -0.17086325097E+02  0.20269225771E+02  0.00000000000E+00 0. -1.
</event>
<event>
 7    1  0.3802554E-013  0.5930198E+02  0.7816164E-02  0.1266605E+00
        -11   -1    0    0    0    0  0.00000000000E+00  0.00000000000E+00  0.45593999997E+02  0.45594000000E+02  0.51100000000E-03 0. -1.
         11   -1    0    0    0    0 -0.00000000000E+00 -0.00000000000E+00 -0.45593999997E+02  0.45594000000E+02  0.51100000000E-03 0.  1.
    9900012    2    1    2    0    0  0.18674864300E+02  0.15707964496E+02  0.20523832343E+02  0.59301977996E+02  0.50000061949E+02 0.  0.
        -12    1    1    2    0    0 -0.18674864300E+02 -0.15707964496E+02 -0.20523832343E+02  0.31886022004E+02  0.00000000000E+00 0.  1.
         11    1    3    3    0    0  0.76828448032E+01 -0.17473855394E+01  0.76899805698E+01  0.11009780285E+02  0.51100000000E-03 0. -1.
        -11    1    3    3    0    0 -0.12723730503E+02 -0.76533575623E+00  0.13245057827E+02  0.18382345167E+02  0.51100000000E-03 0.  1.
         12    1    3    3    0    0  0.23715750000E+02  0.18220685792E+02 -0.41120605371E+00  0.29909852544E+02  0.00000000000E+00 0. -1.
</event>
<event>
 7    1  0.3802554E-013  0.5930191E+02  0.7816164E-02  0.1266605E+00
        -11   -1    0    0    0    0  0.00000000000E+00  0.00000000000E+00  0.45593999997E+02  0.45594000000E+02  0.51100000000E-03 0.  1.
         11   -1    0    0    0    0 -0.00000000000E+00 -0.00000000000E+00 -0.45593999997E+02  0.45594000000E+02  0.51100000000E-03 0. -1.
    9900012    2    1    2    0    0  0.77098294582E+00  0.16942490546E+02 -0.27001485059E+02  0.59301912187E+02  0.49999941930E+02 0.  0.
        -12    1    1    2    0    0 -0.77098294582E+00 -0.16942490546E+02  0.27001485059E+02  0.31886087813E+02  0.00000000000E+00 0.  1.
         11    1    3    3    0    0  0.39932103544E+01  0.97876103692E+00  0.11547779447E+01  0.42705051767E+01  0.51100000000E-03 0. -1.
        -11    1    3    3    0    0  0.15241444510E+02 -0.73462691829E+01 -0.60138774413E+01  0.17956503663E+02  0.51100000000E-03 0.  1.
         12    1    3    3    0    0 -0.18463671919E+02  0.23309998692E+02 -0.22142385563E+02  0.37074903347E+02  0.00000000000E+00 0. -1.
</event>
<event>
 7    1  0.3802554E-013  0.5930194E+02  0.7816164E-02  0.1266605E+00
        -11   -1    0    0    0    0  0.00000000000E+00  0.00000000000E+00  0.45593999997E+02  0.45594000000E+02  0.51100000000E-03 0.  1.
         11   -1    0    0    0    0 -0.00000000000E+00 -0.00000000000E+00 -0.45593999997E+02  0.45594000000E+02  0.51100000000E-03 0. -1.
    9900012    2    1    2    0    0 -0.18768755556E+02  0.12138038980E+02 -0.22740334887E+02  0.59301937117E+02  0.49999987397E+02 0.  0.
        -12    1    1    2    0    0  0.18768755556E+02 -0.12138038980E+02  0.22740334887E+02  0.31886062883E+02  0.00000000000E+00 0.  1.
         11    1    3    3    0    0 -0.16300954258E+01  0.17517961024E+02  0.74471719667E+00  0.17609394467E+02  0.51100000000E-03 0.  1.
        -11    1    3    3    0    0 -0.15574396224E+02 -0.88443760248E+01 -0.29538662726E+02  0.34544426482E+02  0.51100000000E-03 0. -1.
         12    1    3    3    0    0 -0.15642639055E+01  0.34644539803E+01  0.60536106426E+01  0.71481161686E+01  0.00000000000E+00 0. -1.
</event>
<event>
 7    1  0.3802554E-013  0.5930195E+02  0.7816164E-02  0.1266605E+00
        -11   -1    0    0    0    0  0.00000000000E+00  0.00000000000E+00  0.45593999997E+02  0.45594000000E+02  0.51100000000E-03 0.  1.
         11   -1    0    0    0    0 -0.00000000000E+00 -0.00000000000E+00 -0.45593999997E+02  0.45594000000E+02  0.51100000000E-03 0. -1.
    9900012    2    1    2    0    0  0.92548893455E+01  0.43520781826E+01 -0.30201431881E+02  0.59301952127E+02  0.50000014770E+02 0.  0.
        -12    1    1    2    0    0 -0.92548893455E+01 -0.43520781826E+01  0.30201431881E+02  0.31886047873E+02  0.00000000000E+00 0.  1.
         11    1    3    3    0    0  0.65737282775E+01  0.58015454179E+01  0.95294004336E+01  0.12949181657E+02  0.51100000000E-03 0. -1.
        -11    1    3    3    0    0  0.77248288827E+01 -0.51157027591E+01 -0.40166594744E+01  0.10098363708E+02  0.51100000000E-03 0.  1.
         12    1    3    3    0    0 -0.50436678148E+01  0.36662355238E+01 -0.35714172840E+02  0.36254406761E+02  0.00000000000E+00 0. -1.
</event>
<event>
 7    1  0.3802554E-013  0.5930193E+02  0.7816164E-02  0.1266605E+00
        -11   -1    0    0    0    0  0.00000000000E+00  0.00000000000E+00  0.45593999997E+02  0.45594000000E+02  0.51100000000E-03 0. -1.
         11   -1    0    0    0    0 -0.00000000000E+00 -0.00000000000E+00 -0.45593999997E+02  0.45594000000E+02  0.51100000000E-03 0.  1.
    9900012    2    1    2    0    0 -0.10877569846E+02  0.14018116066E+02  0.26493248610E+02  0.59301932106E+02  0.49999978258E+02 0.  0.
        -12    1    1    2    0    0  0.10877569846E+02 -0.14018116066E+02 -0.26493248610E+02  0.31886067894E+02  0.00000000000E+00 0.  1.
         11    1    3    3    0    0  0.39386500919E+01  0.12300766762E+01 -0.56290409598E+01  0.69794093994E+01  0.51100000000E-03 0. -1.
        -11    1    3    3    0    0 -0.56498131267E-01 -0.16371111257E+01 -0.74842617543E+01  0.76614293147E+01  0.51100000000E-03 0.  1.
         12    1    3    3    0    0 -0.14759721806E+02  0.14425150516E+02  0.39606551324E+02  0.44661093392E+02  0.00000000000E+00 0. -1.
</event>
<event>
 7    1  0.3802554E-013  0.5930194E+02  0.7816164E-02  0.1266605E+00
        -11   -1    0    0    0    0  0.00000000000E+00  0.00000000000E+00  0.45593999997E+02  0.45594000000E+02  0.51100000000E-03 0.  1.
         11   -1    0    0    0    0 -0.00000000000E+00 -0.00000000000E+00 -0.45593999997E+02  0.45594000000E+02  0.51100000000E-03 0. -1.
    9900012    2    1    2    0    0 -0.21765509727E+02  0.19516105639E+02 -0.12732047131E+02  0.59301940081E+02  0.49999992803E+02 0.  0.
        -12    1    1    2    0    0  0.21765509727E+02 -0.19516105639E+02  0.12732047131E+02  0.31886059919E+02  0.00000000000E+00 0.  1.
         11    1    3    3    0    0 -0.18344718265E+02  0.11612511653E+02 -0.38840354826E+01  0.22055948109E+02  0.51100000000E-03 0. -1.
        -11    1    3    3    0    0 -0.13179209677E+02  0.18003269735E+01  0.89630538568E+01  0.16039609709E+02  0.51100000000E-03 0.  1.
         12    1    3    3    0    0  0.97584182142E+01  0.61032670120E+01 -0.17811065505E+02  0.21206382263E+02  0.00000000000E+00 0. -1.
</event>
<event>
 7    1  0.3802554E-013  0.5930178E+02  0.7816164E-02  0.1266605E+00
        -11   -1    0    0    0    0  0.00000000000E+00  0.00000000000E+00  0.45593999997E+02  0.45594000000E+02  0.51100000000E-03 0. -1.
         11   -1    0    0    0    0 -0.00000000000E+00 -0.00000000000E+00 -0.45593999997E+02  0.45594000000E+02  0.51100000000E-03 0.  1.
    9900012    2    1    2    0    0 -0.24032480890E+02 -0.58322773872E+00  0.20948285022E+02  0.59301781383E+02  0.49999703375E+02 0.  0.
        -12    1    1    2    0    0  0.24032480890E+02  0.58322773872E+00 -0.20948285022E+02  0.31886218617E+02  0.00000000000E+00 0.  1.
         11    1    3    3    0    0 -0.94160879712E+01  0.15303351425E+02  0.15558029506E+02  0.23767784076E+02  0.51100000000E-03 0. -1.
        -11    1    3    3    0    0 -0.90322384713E+01  0.26916793331E+01 -0.76671839248E+01  0.12149575261E+02  0.51100000000E-03 0.  1.
         12    1    3    3    0    0 -0.55841544473E+01 -0.18578258497E+02  0.13057439440E+02  0.23384422046E+02  0.00000000000E+00 0. -1.
</event>
<event>
 7    1  0.3802554E-013  0.5930190E+02  0.7816164E-02  0.1266605E+00
        -11   -1    0    0    0    0  0.00000000000E+00  0.00000000000E+00  0.45593999997E+02  0.45594000000E+02  0.51100000000E-03 0. -1.
         11   -1    0    0    0    0 -0.00000000000E+00 -0.00000000000E+00 -0.45593999997E+02  0.45594000000E+02  0.51100000000E-03 0.  1.
    9900012    2    1    2    0    0 -0.57223626294E+01  0.21549488868E+02  0.22794680945E+02  0.59301899832E+02  0.49999919397E+02 0.  0.
        -12    1    1    2    0    0  0.57223626294E+01 -0.21549488868E+02 -0.22794680945E+02  0.31886100168E+02  0.00000000000E+00 0.  1.
         11    1    3    3    0    0 -0.17149730206E+01  0.15036040941E+02  0.18037638358E+02  0.23545276754E+02  0.51100000000E-03 0. -1.
        -11    1    3    3    0    0  0.13913030394E+02  0.74823300595E+01  0.76937786713E+01  0.17571337694E+02  0.51100000000E-03 0.  1.
         12    1    3    3    0    0 -0.17920420003E+02 -0.96888213237E+00 -0.29367360842E+01  0.18185285384E+02  0.00000000000E+00 0. -1.
</event>
<event>
 7    1  0.3802554E-013  0.5930196E+02  0.7816164E-02  0.1266605E+00
        -11   -1    0    0    0    0  0.00000000000E+00  0.00000000000E+00  0.45593999997E+02  0.45594000000E+02  0.51100000000E-03 0. -1.
         11   -1    0    0    0    0 -0.00000000000E+00 -0.00000000000E+00 -0.45593999997E+02  0.45594000000E+02  0.51100000000E-03 0.  1.
    9900012    2    1    2    0    0  0.19496425303E+02  0.11501548024E+02  0.22457138390E+02  0.59301964322E+02  0.50000037012E+02 0.  0.
        -12    1    1    2    0    0 -0.19496425303E+02 -0.11501548024E+02 -0.22457138390E+02  0.31886035678E+02  0.00000000000E+00 0.  1.
         11    1    3    3    0    0  0.45683566915E+00 -0.23463452300E+01  0.10493680343E+02  0.10762497952E+02  0.51100000000E-03 0. -1.
        -11    1    3    3    0    0  0.54561017389E+01  0.22010424227E+02  0.20473726562E+02  0.30551616985E+02  0.51100000000E-03 0.  1.
        -12    1    3    3    0    0  0.13583487895E+02 -0.81625309725E+01 -0.85102685151E+01  0.17987849385E+02  0.00000000000E+00 0.  1.
</event>
<event>
 7    1  0.3802554E-013  0.5930188E+02  0.7816164E-02  0.1266605E+00
        -11   -1    0    0    0    0  0.00000000000E+00  0.00000000000E+00  0.45593999997E+02  0.45594000000E+02  0.51100000000E-03 0.  1.
         11   -1    0    0    0    0 -0.00000000000E+00 -0.00000000000E+00 -0.45593999997E+02  0.45594000000E+02  0.51100000000E-03 0. -1.
    9900012    2    1    2    0    0  0.25515134302E+02 -0.14824520389E+02  0.12080413830E+02  0.59301876348E+02  0.49999876569E+02 0.  0.
        -12    1    1    2    0    0 -0.25515134302E+02  0.14824520389E+02 -0.12080413830E+02  0.31886123652E+02  0.00000000000E+00 0.  1.
         11    1    3    3    0    0 -0.12724098696E+01 -0.23069975514E+01 -0.18271045008E+00  0.26409558777E+01  0.51100000000E-03 0. -1.
        -11    1    3    3    0    0 -0.12304002278E+02 -0.93873000471E+00  0.99034522625E+01  0.15822390877E+02  0.51100000000E-03 0.  1.
         12    1    3    3    0    0  0.39091546450E+02 -0.11578792833E+02  0.23596720172E+01  0.40838529594E+02  0.00000000000E+00 0. -1.
</event>
<event>
 7    1  0.3802554E-013  0.5930198E+02  0.7816164E-02  0.1266605E+00
        -11   -1    0    0    0    0  0.00000000000E+00  0.00000000000E+00  0.45593999997E+02  0.45594000000E+02  0.51100000000E-03 0.  1.
         11   -1    0    0    0    0 -0.00000000000E+00 -0.00000000000E+00 -0.45593999997E+02  0.45594000000E+02  0.51100000000E-03 0. -1.
    9900012    2    1    2    0    0  0.14895322483E+02  0.20798528631E+02 -0.19033366005E+02  0.59301977253E+02  0.50000060596E+02 0.  0.
        -12    1    1    2    0    0 -0.14895322483E+02 -0.20798528631E+02  0.19033366005E+02  0.31886022747E+02  0.00000000000E+00 0.  1.
         11    1    3    3    0    0 -0.29681575017E+01  0.12271687944E+02  0.75203534635E+01  0.14695577580E+02  0.51100000000E-03 0. -1.
        -11    1    3    3    0    0 -0.40408644033E+01  0.93963281071E+01 -0.72120526855E-01  0.10228624964E+02  0.51100000000E-03 0.  1.
         12    1    3    3    0    0  0.21904344388E+02 -0.86948741935E+00 -0.26481598942E+02  0.34377774709E+02  0.00000000000E+00 0. -1.
</event>
<event>
 7    1  0.3802554E-013  0.5930193E+02  0.7816164E-02  0.1266605E+00
        -11   -1    0    0    0    0  0.00000000000E+00  0.00000000000E+00  0.45593999997E+02  0.45594000000E+02  0.51100000000E-03 0.  1.
         11   -1    0    0    0    0 -0.00000000000E+00 -0.00000000000E+00 -0.45593999997E+02  0.45594000000E+02  0.51100000000E-03 0. -1.
    9900012    2    1    2    0    0  0.30397143950E+02  0.52177067893E+01 -0.80938535380E+01  0.59301932673E+02  0.49999979292E+02 0.  0.
        -12    1    1    2    0    0 -0.30397143950E+02 -0.52177067893E+01  0.80938535380E+01  0.31886067327E+02  0.00000000000E+00 0.  1.
         11    1    3    3    0    0  0.77749322660E+01 -0.46210475705E+01 -0.14603528347E+02  0.17177505431E+02  0.51100000000E-03 0. -1.
        -11    1    3    3    0    0  0.27617941393E+02  0.19197135868E+01  0.13146713635E+02  0.30647545851E+02  0.51100000000E-03 0.  1.
         12    1    3    3    0    0 -0.49957297092E+01  0.79190407730E+01 -0.66370388250E+01  0.11476881391E+02  0.00000000000E+00 0. -1.
</event>
<event>
 7    1  0.3802554E-013  0.5930194E+02  0.7816164E-02  0.1266605E+00
        -11   -1    0    0    0    0  0.00000000000E+00  0.00000000000E+00  0.45593999997E+02  0.45594000000E+02  0.51100000000E-03 0.  1.
         11   -1    0    0    0    0 -0.00000000000E+00 -0.00000000000E+00 -0.45593999997E+02  0.45594000000E+02  0.51100000000E-03 0. -1.
    9900012    2    1    2    0    0  0.12483692838E+02  0.14024877793E+02 -0.25771713344E+02  0.59301937329E+02  0.49999987783E+02 0.  0.
        -12    1    1    2    0    0 -0.12483692838E+02 -0.14024877793E+02  0.25771713344E+02  0.31886062671E+02  0.00000000000E+00 0.  1.
         11    1    3    3    0    0 -0.51176132609E+01 -0.38413564357E+01 -0.77894163214E+01  0.10080723766E+02  0.51100000000E-03 0. -1.
        -11    1    3    3    0    0 -0.10859311541E+02  0.54166826712E+01  0.19799686374E+01  0.12295746190E+02  0.51100000000E-03 0.  1.
         12    1    3    3    0    0  0.28460617640E+02  0.12449551557E+02 -0.19962265660E+02  0.36925467373E+02  0.00000000000E+00 0. -1.
</event>
<event>
 7    1  0.3802554E-013  0.5930195E+02  0.7816164E-02  0.1266605E+00
        -11   -1    0    0    0    0  0.00000000000E+00  0.00000000000E+00  0.45593999997E+02  0.45594000000E+02  0.51100000000E-03 0. -1.
         11   -1    0    0    0    0 -0.00000000000E+00 -0.00000000000E+00 -0.45593999997E+02  0.45594000000E+02  0.51100000000E-03 0.  1.
    9900012    2    1    2    0    0 -0.15158487401E+02  0.15296909148E+02  0.23514776420E+02  0.59301954779E+02  0.50000019608E+02 0.  0.
        -12    1    1    2    0    0  0.15158487401E+02 -0.15296909148E+02 -0.23514776420E+02  0.31886045221E+02  0.00000000000E+00 0.  1.
         11    1    3    3    0    0  0.67434019599E+01  0.12812353020E+01 -0.10699351266E+02  0.12711850836E+02  0.51100000000E-03 0. -1.
        -11    1    3    3    0    0  0.95425859507E+00  0.76950603096E+01  0.65252325757E+01  0.10134259868E+02  0.51100000000E-03 0.  1.
         12    1    3    3    0    0 -0.22856147956E+02  0.63206135367E+01  0.27688895110E+02  0.36455844076E+02  0.00000000000E+00 0. -1.
</event>
<event>
 7    1  0.3802554E-013  0.5930193E+02  0.7816164E-02  0.1266605E+00
        -11   -1    0    0    0    0  0.00000000000E+00  0.00000000000E+00  0.45593999997E+02  0.45594000000E+02  0.51100000000E-03 0. -1.
         11   -1    0    0    0    0 -0.00000000000E+00 -0.00000000000E+00 -0.45593999997E+02  0.45594000000E+02  0.51100000000E-03 0.  1.
    9900012    2    1    2    0    0 -0.13415796826E+02  0.84441989039E+01  0.27666466027E+02  0.59301930282E+02  0.49999974931E+02 0.  0.
        -12    1    1    2    0    0  0.13415796826E+02 -0.84441989039E+01 -0.27666466027E+02  0.31886069718E+02  0.00000000000E+00 0.  1.
         11    1    3    3    0    0 -0.10986834779E+02  0.85356323121E+01  0.69077330612E+01  0.15533329770E+02  0.51100000000E-03 0. -1.
        -11    1    3    3    0    0  0.10077038020E+01 -0.10223617909E+02 -0.80408728652E+01  0.13045821814E+02  0.51100000000E-03 0.  1.
         12    1    3    3    0    0 -0.34366658495E+01  0.10132184501E+02  0.28799605831E+02  0.30722778699E+02  0.00000000000E+00 0. -1.
</event>
<event>
 7    1  0.3802554E-013  0.5930194E+02  0.7816164E-02  0.1266605E+00
        -11   -1    0    0    0    0  0.00000000000E+00  0.00000000000E+00  0.45593999997E+02  0.45594000000E+02  0.51100000000E-03 0. -1.
         11   -1    0    0    0    0 -0.00000000000E+00 -0.00000000000E+00 -0.45593999997E+02  0.45594000000E+02  0.51100000000E-03 0.  1.
    9900012    2    1    2    0    0 -0.22647792245E+02  0.18865392475E+02  0.12161230990E+02  0.59301936179E+02  0.49999985686E+02 0.  0.
        -12    1    1    2    0    0  0.22647792245E+02 -0.18865392475E+02 -0.12161230990E+02  0.31886063821E+02  0.00000000000E+00 0.  1.
         11    1    3    3    0    0  0.35592294879E+01  0.88076887142E+01 -0.21177346501E+01  0.97328462097E+01  0.51100000000E-03 0. -1.
        -11    1    3    3    0    0 -0.25425393337E+02 -0.83238877076E+01  0.80627367468E+00  0.26765421917E+02  0.51100000000E-03 0.  1.
         12    1    3    3    0    0 -0.78162839594E+00  0.18381591468E+02  0.13472691965E+02  0.22803668052E+02  0.00000000000E+00 0. -1.
</event>
<event>
 7    1  0.3802554E-013  0.5930195E+02  0.7816164E-02  0.1266605E+00
        -11   -1    0    0    0    0  0.00000000000E+00  0.00000000000E+00  0.45593999997E+02  0.45594000000E+02  0.51100000000E-03 0.  1.
         11   -1    0    0    0    0 -0.00000000000E+00 -0.00000000000E+00 -0.45593999997E+02  0.45594000000E+02  0.51100000000E-03 0. -1.
    9900012    2    1    2    0    0  0.13095546388E+02 -0.15610321986E+02 -0.24526406662E+02  0.59301951147E+02  0.50000012984E+02 0.  0.
        -12    1    1    2    0    0 -0.13095546388E+02  0.15610321986E+02  0.24526406662E+02  0.31886048853E+02  0.00000000000E+00 0.  1.
         11    1    3    3    0    0  0.27196666542E+01 -0.19837067556E+02 -0.31260557418E+02  0.37123150274E+02  0.51100000000E-03 0. -1.
        -11    1    3    3    0    0  0.93141789090E+01  0.20294907990E+01 -0.46002587621E+01  0.10584665445E+02  0.51100000000E-03 0.  1.
        -12    1    3    3    0    0  0.10617008251E+01  0.21972547707E+01  0.11334409519E+02  0.11594135427E+02  0.00000000000E+00 0.  1.
</event>
<event>
 7    1  0.3802554E-013  0.5930195E+02  0.7816164E-02  0.1266605E+00
        -11   -1    0    0    0    0  0.00000000000E+00  0.00000000000E+00  0.45593999997E+02  0.45594000000E+02  0.51100000000E-03 0. -1.
         11   -1    0    0    0    0 -0.00000000000E+00 -0.00000000000E+00 -0.45593999997E+02  0.45594000000E+02  0.51100000000E-03 0.  1.
    9900012    2    1    2    0    0  0.16759946969E+02 -0.75885382545E+01  0.26043014053E+02  0.59301947936E+02  0.50000007128E+02 0.  0.
        -12    1    1    2    0    0 -0.16759946969E+02  0.75885382545E+01 -0.26043014053E+02  0.31886052064E+02  0.00000000000E+00 0.  1.
         11    1    3    3    0    0  0.93625782929E+01  0.77056080793E+01 -0.64395801713E+01  0.13729619849E+02  0.51100000000E-03 0. -1.
        -11    1    3    3    0    0 -0.10034587718E+02 -0.25005952383E+01  0.10512687322E+02  0.14746610533E+02  0.51100000000E-03 0.  1.
         12    1    3    3    0    0  0.17431956395E+02 -0.12793551095E+02  0.21969906902E+02  0.30825717553E+02  0.00000000000E+00 0. -1.
</event>
<event>
 7    1  0.3802554E-013  0.5930194E+02  0.7816164E-02  0.1266605E+00
        -11   -1    0    0    0    0  0.00000000000E+00  0.00000000000E+00  0.45593999997E+02  0.45594000000E+02  0.51100000000E-03 0.  1.
         11   -1    0    0    0    0 -0.00000000000E+00 -0.00000000000E+00 -0.45593999997E+02  0.45594000000E+02  0.51100000000E-03 0. -1.
    9900012    2    1    2    0    0 -0.22443407100E+02  0.22175827354E+02 -0.46094604310E+01  0.59301937738E+02  0.49999988529E+02 0.  0.
        -12    1    1    2    0    0  0.22443407100E+02 -0.22175827354E+02  0.46094604310E+01  0.31886062262E+02  0.00000000000E+00 0.  1.
         11    1    3    3    0    0  0.14407684469E+01  0.11384732389E+02 -0.71189170788E+01  0.13504329896E+02  0.51100000000E-03 0. -1.
        -11    1    3    3    0    0 -0.24293235873E+02  0.18604596879E+02  0.12546500851E+02  0.33071241556E+02  0.51100000000E-03 0.  1.
        -12    1    3    3    0    0  0.40906032561E+00 -0.78135019134E+01 -0.10037044204E+02  0.12726366286E+02  0.00000000000E+00 0.  1.
</event>
<event>
 7    1  0.3802554E-013  0.5930195E+02  0.7816164E-02  0.1266605E+00
        -11   -1    0    0    0    0  0.00000000000E+00  0.00000000000E+00  0.45593999997E+02  0.45594000000E+02  0.51100000000E-03 0.  1.
         11   -1    0    0    0    0 -0.00000000000E+00 -0.00000000000E+00 -0.45593999997E+02  0.45594000000E+02  0.51100000000E-03 0. -1.
    9900012    2    1    2    0    0  0.27976131294E+02 -0.84618400067E+01 -0.12745729127E+02  0.59301948670E+02  0.50000008466E+02 0.  0.
        -12    1    1    2    0    0 -0.27976131294E+02  0.84618400067E+01  0.12745729127E+02  0.31886051330E+02  0.00000000000E+00 0.  1.
         11    1    3    3    0    0  0.26116399326E+02 -0.16153451110E+02  0.11581364408E+01  0.30730141178E+02  0.51100000000E-03 0. -1.
        -11    1    3    3    0    0  0.11274291510E+02  0.51218829964E+01 -0.10423742064E+01  0.12426981883E+02  0.51100000000E-03 0.  1.
         12    1    3    3    0    0 -0.94145595422E+01  0.25697281064E+01 -0.12861491361E+02  0.16144825609E+02  0.00000000000E+00 0. -1.
</event>
<event>
 7    1  0.3802554E-013  0.5930194E+02  0.7816164E-02  0.1266605E+00
        -11   -1    0    0    0    0  0.00000000000E+00  0.00000000000E+00  0.45593999997E+02  0.45594000000E+02  0.51100000000E-03 0.  1.
         11   -1    0    0    0    0 -0.00000000000E+00 -0.00000000000E+00 -0.45593999997E+02  0.45594000000E+02  0.51100000000E-03 0. -1.
    9900012    2    1    2    0    0  0.84002222293E+01 -0.50729835490E+01 -0.30338456752E+02  0.59301939508E+02  0.49999991757E+02 0.  0.
        -12    1    1    2    0    0 -0.84002222293E+01  0.50729835490E+01  0.30338456752E+02  0.31886060492E+02  0.00000000000E+00 0.  1.
         11    1    3    3    0    0  0.15832955453E+02  0.28062519963E-01 -0.21848770983E+02  0.26982439838E+02  0.51100000000E-03 0. -1.
        -11    1    3    3    0    0  0.86664901323E+01  0.56135584249E+01  0.16932457627E+01  0.10463611751E+02  0.51100000000E-03 0.  1.
         12    1    3    3    0    0 -0.16099223356E+02 -0.10714604494E+02 -0.10182931532E+02  0.21855887919E+02  0.00000000000E+00 0. -1.
</event>
<event>
 7    1  0.3802554E-013  0.5930194E+02  0.7816164E-02  0.1266605E+00
        -11   -1    0    0    0    0  0.00000000000E+00  0.00000000000E+00  0.45593999997E+02  0.45594000000E+02  0.51100000000E-03 0.  1.
         11   -1    0    0    0    0 -0.00000000000E+00 -0.00000000000E+00 -0.45593999997E+02  0.45594000000E+02  0.51100000000E-03 0. -1.
    9900012    2    1    2    0    0  0.22018979840E+02 -0.22947135275E+02 -0.23053483545E+01  0.59301935308E+02  0.49999984098E+02 0.  0.
        -12    1    1    2    0    0 -0.22018979840E+02  0.22947135275E+02  0.23053483545E+01  0.31886064692E+02  0.00000000000E+00 0.  1.
         11    1    3    3    0    0 -0.55753432459E+01 -0.19694217734E+01 -0.17928235075E+01  0.61787774536E+01  0.51100000000E-03 0. -1.
        -11    1    3    3    0    0  0.30870757846E+01 -0.15360524695E+02 -0.16951600112E+02  0.23083164913E+02  0.51100000000E-03 0.  1.
         12    1    3    3    0    0  0.24507247301E+02 -0.56171888063E+01  0.16439075265E+02  0.30039992941E+02  0.00000000000E+00 0. -1.
</event>
<event>
 7    1  0.3802554E-013  0.5930235E+02  0.7816164E-02  0.1266603E+00
        -11   -1    0    0    0    0  0.00000000000E+00  0.00000000000E+00  0.45593999997E+02  0.45594000000E+02  0.51100000000E-03 0.  1.
         11   -1    0    0    0    0 -0.00000000000E+00 -0.00000000000E+00 -0.45593999997E+02  0.45594000000E+02  0.51100000000E-03 0. -1.
    9900012    2    1    2    0    0 -0.11093266050E+02  0.29657878491E+02  0.37475740111E+01  0.59302350889E+02  0.50000742013E+02 0.  0.
        -12    1    1    2    0    0  0.11093266050E+02 -0.29657878491E+02 -0.37475740111E+01  0.31885649111E+02  0.00000000000E+00 0.  1.
         11    1    3    3    0    0 -0.11340429712E+02 -0.26104153929E+01 -0.35030805054E+00  0.11642264838E+02  0.51100000000E-03 0. -1.
        -11    1    3    3    0    0 -0.23660853051E+01 -0.73522705831E+01 -0.16407414827E+00  0.77253584374E+01  0.51100000000E-03 0.  1.
        -12    1    3    3    0    0  0.26132489671E+01  0.39620564467E+02  0.42619562099E+01  0.39934727614E+02  0.00000000000E+00 0.  1.
</event>
<event>
 7    1  0.3802554E-013  0.5930195E+02  0.7816164E-02  0.1266605E+00
        -11   -1    0    0    0    0  0.00000000000E+00  0.00000000000E+00  0.45593999997E+02  0.45594000000E+02  0.51100000000E-03 0.  1.
         11   -1    0    0    0    0 -0.00000000000E+00 -0.00000000000E+00 -0.45593999997E+02  0.45594000000E+02  0.51100000000E-03 0. -1.
    9900012    2    1    2    0    0  0.20354937907E+01 -0.22855065748E+01 -0.31738835633E+02  0.59301945640E+02  0.50000002941E+02 0.  0.
        -12    1    1    2    0    0 -0.20354937907E+01  0.22855065748E+01  0.31738835633E+02  0.31886054360E+02  0.00000000000E+00 0.  1.
         11    1    3    3    0    0  0.79095422882E+01 -0.16127573588E+02 -0.92214023317E+01  0.20191427643E+02  0.51100000000E-03 0. -1.
        -11    1    3    3    0    0  0.97722153057E+01 -0.11059742800E-01 -0.12692039788E+02  0.16018245489E+02  0.51100000000E-03 0.  1.
        -12    1    3    3    0    0 -0.15646263803E+02  0.13853126756E+02 -0.98253935138E+01  0.23092272509E+02  0.00000000000E+00 0.  1.
</event>
<event>
 7    1  0.3802554E-013  0.5930196E+02  0.7816164E-02  0.1266605E+00
        -11   -1    0    0    0    0  0.00000000000E+00  0.00000000000E+00  0.45593999997E+02  0.45594000000E+02  0.51100000000E-03 0. -1.
         11   -1    0    0    0    0 -0.00000000000E+00 -0.00000000000E+00 -0.45593999997E+02  0.45594000000E+02  0.51100000000E-03 0.  1.
    9900012    2    1    2    0    0  0.30018711217E+02  0.10674913570E+02  0.12817447948E+01  0.59301958029E+02  0.50000025534E+02 0.  0.
        -12    1    1    2    0    0 -0.30018711217E+02 -0.10674913570E+02 -0.12817447948E+01  0.31886041971E+02  0.00000000000E+00 0.  1.
         11    1    3    3    0    0  0.31340060082E+02 -0.75935485265E+01  0.76610454487E+01  0.33144425817E+02  0.51100000000E-03 0. -1.
        -11    1    3    3    0    0  0.67387267785E+01  0.17311761290E+01 -0.13747613184E+01  0.70920644617E+01  0.51100000000E-03 0.  1.
        -12    1    3    3    0    0 -0.80600756428E+01  0.16537285968E+02 -0.50045393355E+01  0.19065467749E+02  0.00000000000E+00 0.  1.
</event>
<event>
 7    1  0.3802554E-013  0.5930217E+02  0.7816164E-02  0.1266604E+00
        -11   -1    0    0    0    0  0.00000000000E+00  0.00000000000E+00  0.45593999997E+02  0.45594000000E+02  0.51100000000E-03 0.  1.
         11   -1    0    0    0    0 -0.00000000000E+00 -0.00000000000E+00 -0.45593999997E+02  0.45594000000E+02  0.51100000000E-03 0. -1.
    9900012    2    1    2    0    0 -0.24858744606E+02  0.19931671151E+02 -0.12155220017E+01  0.59302169416E+02  0.50000411053E+02 0.  0.
        -12    1    1    2    0    0  0.24858744606E+02 -0.19931671151E+02  0.12155220017E+01  0.31885830584E+02  0.00000000000E+00 0.  1.
         11    1    3    3    0    0 -0.17281578073E+02  0.56931539560E+01 -0.99426175999E+01  0.20734526463E+02  0.51100000000E-03 0. -1.
        -11    1    3    3    0    0 -0.61580030655E+01  0.23290238179E+02 -0.23354640834E+01  0.24203524309E+02  0.51100000000E-03 0.  1.
        -12    1    3    3    0    0 -0.14191634684E+01 -0.90517209841E+01  0.11062559682E+02  0.14364118645E+02  0.00000000000E+00 0.  1.
</event>
<event>
 7    1  0.3802554E-013  0.5930192E+02  0.7816164E-02  0.1266605E+00
        -11   -1    0    0    0    0  0.00000000000E+00  0.00000000000E+00  0.45593999997E+02  0.45594000000E+02  0.51100000000E-03 0.  1.
         11   -1    0    0    0    0 -0.00000000000E+00 -0.00000000000E+00 -0.45593999997E+02  0.45594000000E+02  0.51100000000E-03 0. -1.
    9900012    2    1    2    0    0  0.11475973465E+01 -0.22518717918E+01 -0.31785759168E+02  0.59301915384E+02  0.49999947761E+02 0.  0.
        -12    1    1    2    0    0 -0.11475973465E+01  0.22518717918E+01  0.31785759168E+02  0.31886084616E+02  0.00000000000E+00 0.  1.
         11    1    3    3    0    0  0.11394991212E+02 -0.12762596224E+02 -0.59463109225E+01  0.18113207914E+02  0.51100000000E-03 0. -1.
        -11    1    3    3    0    0 -0.16694466312E+02 -0.22581443066E+01 -0.90201368040E+01  0.19109350836E+02  0.51100000000E-03 0.  1.
         12    1    3    3    0    0  0.64470724466E+01  0.12768868739E+02 -0.16819311442E+02  0.22079356634E+02  0.00000000000E+00 0. -1.
</event>
<event>
 7    1  0.3802554E-013  0.5930195E+02  0.7816164E-02  0.1266605E+00
        -11   -1    0    0    0    0  0.00000000000E+00  0.00000000000E+00  0.45593999997E+02  0.45594000000E+02  0.51100000000E-03 0. -1.
         11   -1    0    0    0    0 -0.00000000000E+00 -0.00000000000E+00 -0.45593999997E+02  0.45594000000E+02  0.51100000000E-03 0.  1.
    9900012    2    1    2    0    0 -0.18081669898E+02  0.25631750929E+02 -0.57259914713E+01  0.59301946304E+02  0.50000004151E+02 0.  0.
        -12    1    1    2    0    0  0.18081669898E+02 -0.25631750929E+02  0.57259914713E+01  0.31886053696E+02  0.00000000000E+00 0.  1.
         11    1    3    3    0    0 -0.91819412330E+01  0.69911440398E+01  0.17683109716E+02  0.21115788152E+02  0.51100000000E-03 0. -1.
        -11    1    3    3    0    0  0.29749587710E+01  0.68114495232E+01  0.20451556637E+01  0.77090133121E+01  0.51100000000E-03 0.  1.
        -12    1    3    3    0    0 -0.11874687436E+02  0.11829157366E+02 -0.25454256851E+02  0.30477144839E+02  0.00000000000E+00 0.  1.
</event>
<event>
 7    1  0.3802554E-013  0.5930197E+02  0.7816164E-02  0.1266605E+00
        -11   -1    0    0    0    0  0.00000000000E+00  0.00000000000E+00  0.45593999997E+02  0.45594000000E+02  0.51100000000E-03 0.  1.
         11   -1    0    0    0    0 -0.00000000000E+00 -0.00000000000E+00 -0.45593999997E+02  0.45594000000E+02  0.51100000000E-03 0. -1.
    9900012    2    1    2    0    0 -0.14906909236E+02 -0.25226118435E+02 -0.12575596284E+02  0.59301974594E+02  0.50000055746E+02 0.  0.
        -12    1    1    2    0    0  0.14906909236E+02  0.25226118435E+02  0.12575596284E+02  0.31886025406E+02  0.00000000000E+00 0.  1.
         11    1    3    3    0    0 -0.70068586968E+01  0.69488499659E+01 -0.50517802010E+01  0.11086165618E+02  0.51100000000E-03 0. -1.
        -11    1    3    3    0    0  0.76956664316E+01 -0.93249393416E+01  0.98094797586E+01  0.15569318191E+02  0.51100000000E-03 0.  1.
        -12    1    3    3    0    0 -0.15595716970E+02 -0.22850029060E+02 -0.17333295842E+02  0.32646490785E+02  0.00000000000E+00 0.  1.
</event>
<event>
 7    1  0.3802554E-013  0.5930203E+02  0.7816164E-02  0.1266604E+00
        -11   -1    0    0    0    0  0.00000000000E+00  0.00000000000E+00  0.45593999997E+02  0.45594000000E+02  0.51100000000E-03 0.  1.
         11   -1    0    0    0    0 -0.00000000000E+00 -0.00000000000E+00 -0.45593999997E+02  0.45594000000E+02  0.51100000000E-03 0. -1.
    9900012    2    1    2    0    0 -0.63003967186E+01  0.49119035176E+01 -0.30868964885E+02  0.59302034623E+02  0.50000165223E+02 0.  0.
        -12    1    1    2    0    0  0.63003967186E+01 -0.49119035176E+01  0.30868964885E+02  0.31885965377E+02  0.00000000000E+00 0.  1.
         11    1    3    3    0    0 -0.18326568637E+02 -0.95162790107E+01 -0.14531563493E+02  0.25250525183E+02  0.51100000000E-03 0. -1.
        -11    1    3    3    0    0  0.48008504159E+01 -0.43880946254E+01  0.19975776590E+01  0.68039588419E+01  0.51100000000E-03 0.  1.
         12    1    3    3    0    0  0.72253215029E+01  0.18816277154E+02 -0.18334979051E+02  0.27247550597E+02  0.00000000000E+00 0. -1.
</event>
<event>
 7    1  0.3802554E-013  0.5930195E+02  0.7816164E-02  0.1266605E+00
        -11   -1    0    0    0    0  0.00000000000E+00  0.00000000000E+00  0.45593999997E+02  0.45594000000E+02  0.51100000000E-03 0. -1.
         11   -1    0    0    0    0 -0.00000000000E+00 -0.00000000000E+00 -0.45593999997E+02  0.45594000000E+02  0.51100000000E-03 0.  1.
    9900012    2    1    2    0    0 -0.17057653798E+02 -0.15853251002E+02 -0.21781440363E+02  0.59301948744E+02  0.50000008601E+02 0.  0.
        -12    1    1    2    0    0  0.17057653798E+02  0.15853251002E+02  0.21781440363E+02  0.31886051256E+02  0.00000000000E+00 0.  1.
         11    1    3    3    0    0 -0.14747466270E+02 -0.14185776493E+02 -0.54208695617E+01  0.21168605130E+02  0.51100000000E-03 0. -1.
        -11    1    3    3    0    0 -0.16909928400E+02 -0.68470025662E+01 -0.12660814915E+02  0.22206381003E+02  0.51100000000E-03 0.  1.
         12    1    3    3    0    0  0.14599740872E+02  0.51795280568E+01 -0.36997558855E+01  0.15926962612E+02  0.00000000000E+00 0. -1.
</event>
<event>
 7    1  0.3802554E-013  0.5930174E+02  0.7816164E-02  0.1266605E+00
        -11   -1    0    0    0    0  0.00000000000E+00  0.00000000000E+00  0.45593999997E+02  0.45594000000E+02  0.51100000000E-03 0. -1.
         11   -1    0    0    0    0 -0.00000000000E+00 -0.00000000000E+00 -0.45593999997E+02  0.45594000000E+02  0.51100000000E-03 0.  1.
    9900012    2    1    2    0    0  0.15429016407E+02 -0.20386648806E+02  0.19054223966E+02  0.59301742023E+02  0.49999631591E+02 0.  0.
        -12    1    1    2    0    0 -0.15429016407E+02  0.20386648806E+02 -0.19054223966E+02  0.31886257977E+02  0.00000000000E+00 0.  1.
         11    1    3    3    0    0 -0.71826580971E+01 -0.12351312711E+02  0.13704274337E+02  0.19797793776E+02  0.51100000000E-03 0. -1.
        -11    1    3    3    0    0 -0.56681633823E+01 -0.80832581820E+01 -0.24423332787E+01  0.10170158852E+02  0.51100000000E-03 0.  1.
         12    1    3    3    0    0  0.28279837886E+02  0.47922087090E-01  0.77922829069E+01  0.29333789396E+02  0.00000000000E+00 0. -1.
</event>
<event>
 7    1  0.3802554E-013  0.5930193E+02  0.7816164E-02  0.1266605E+00
        -11   -1    0    0    0    0  0.00000000000E+00  0.00000000000E+00  0.45593999997E+02  0.45594000000E+02  0.51100000000E-03 0. -1.
         11   -1    0    0    0    0 -0.00000000000E+00 -0.00000000000E+00 -0.45593999997E+02  0.45594000000E+02  0.51100000000E-03 0.  1.
    9900012    2    1    2    0    0 -0.10159470431E+02 -0.77230570106E+00  0.30214401597E+02  0.59301931579E+02  0.49999977296E+02 0.  0.
        -12    1    1    2    0    0  0.10159470431E+02  0.77230570106E+00 -0.30214401597E+02  0.31886068421E+02  0.00000000000E+00 0.  1.
         11    1    3    3    0    0 -0.11501070694E+02 -0.41112098928E+01  0.22382982111E+02  0.25498520787E+02  0.51100000000E-03 0. -1.
        -11    1    3    3    0    0 -0.15495142215E+02  0.28818422612E+01  0.59874219431E+01  0.16859824105E+02  0.51100000000E-03 0.  1.
        -12    1    3    3    0    0  0.16836742478E+02  0.45706193054E+00  0.18439975430E+01  0.16943586687E+02  0.00000000000E+00 0.  1.
</event>
<event>
 7    1  0.3802554E-013  0.5930193E+02  0.7816164E-02  0.1266605E+00
        -11   -1    0    0    0    0  0.00000000000E+00  0.00000000000E+00  0.45593999997E+02  0.45594000000E+02  0.51100000000E-03 0. -1.
         11   -1    0    0    0    0 -0.00000000000E+00 -0.00000000000E+00 -0.45593999997E+02  0.45594000000E+02  0.51100000000E-03 0.  1.
    9900012    2    1    2    0    0  0.22259494198E+02 -0.12419869393E+02  0.19156803058E+02  0.59301931865E+02  0.49999977818E+02 0.  0.
        -12    1    1    2    0    0 -0.22259494198E+02  0.12419869393E+02 -0.19156803058E+02  0.31886068135E+02  0.00000000000E+00 0.  1.
         11    1    3    3    0    0  0.22785218725E+02  0.10470169325E+02  0.20464821408E+01  0.25159068494E+02  0.51100000000E-03 0. -1.
        -11    1    3    3    0    0  0.52549883450E+01 -0.89239565782E+01 -0.11708342083E+01  0.10422224164E+02  0.51100000000E-03 0.  1.
         12    1    3    3    0    0 -0.57807128727E+01 -0.13966082141E+02  0.18281155126E+02  0.23720639208E+02  0.00000000000E+00 0. -1.
</event>
<event>
 7    1  0.3802554E-013  0.5930195E+02  0.7816164E-02  0.1266605E+00
        -11   -1    0    0    0    0  0.00000000000E+00  0.00000000000E+00  0.45593999997E+02  0.45594000000E+02  0.51100000000E-03 0.  1.
         11   -1    0    0    0    0 -0.00000000000E+00 -0.00000000000E+00 -0.45593999997E+02  0.45594000000E+02  0.51100000000E-03 0. -1.
    9900012    2    1    2    0    0 -0.20304437069E+02 -0.71174726867E+01 -0.23532780113E+02  0.59301947846E+02  0.50000006963E+02 0.  0.
        -12    1    1    2    0    0  0.20304437069E+02  0.71174726867E+01  0.23532780113E+02  0.31886052154E+02  0.00000000000E+00 0.  1.
         11    1    3    3    0    0 -0.10306938694E+02  0.44558659418E+01  0.39367016552E+01  0.11898964102E+02  0.51100000000E-03 0. -1.
        -11    1    3    3    0    0  0.47633160050E+01  0.73454959450E+01  0.24104164998E+01  0.90805064839E+01  0.51100000000E-03 0.  1.
        -12    1    3    3    0    0 -0.14760814380E+02 -0.18918834573E+02 -0.29879898268E+02  0.38322477259E+02  0.00000000000E+00 0.  1.
</event>
<event>
 7    1  0.3802554E-013  0.5930193E+02  0.7816164E-02  0.1266605E+00
        -11   -1    0    0    0    0  0.00000000000E+00  0.00000000000E+00  0.45593999997E+02  0.45594000000E+02  0.51100000000E-03 0. -1.
         11   -1    0    0    0    0 -0.00000000000E+00 -0.00000000000E+00 -0.45593999997E+02  0.45594000000E+02  0.51100000000E-03 0.  1.
    9900012    2    1    2    0    0  0.12603943858E+02  0.19922101415E+02  0.21470259406E+02  0.59301928362E+02  0.49999971429E+02 0.  0.
        -12    1    1    2    0    0 -0.12603943858E+02 -0.19922101415E+02 -0.21470259406E+02  0.31886071638E+02  0.00000000000E+00 0.  1.
         11    1    3    3    0    0 -0.31239747631E+01  0.49443820253E+01  0.50046426722E+01  0.76975697769E+01  0.51100000000E-03 0. -1.
        -11    1    3    3    0    0  0.11577207232E+02  0.28692830306E+02  0.16373353167E+01  0.30983723235E+02  0.51100000000E-03 0.  1.
        -12    1    3    3    0    0  0.41507113886E+01 -0.13715110916E+02  0.14828281417E+02  0.20620635351E+02  0.00000000000E+00 0.  1.
</event>
<event>
 7    1  0.3802554E-013  0.5930193E+02  0.7816164E-02  0.1266605E+00
        -11   -1    0    0    0    0  0.00000000000E+00  0.00000000000E+00  0.45593999997E+02  0.45594000000E+02  0.51100000000E-03 0.  1.
         11   -1    0    0    0    0 -0.00000000000E+00 -0.00000000000E+00 -0.45593999997E+02  0.45594000000E+02  0.51100000000E-03 0. -1.
    9900012    2    1    2    0    0 -0.19454250990E+01  0.15090864591E+02 -0.28021461607E+02  0.59301934336E+02  0.49999982325E+02 0.  0.
        -12    1    1    2    0    0  0.19454250990E+01 -0.15090864591E+02  0.28021461607E+02  0.31886065664E+02  0.00000000000E+00 0.  1.
         11    1    3    3    0    0  0.64599673526E+01 -0.97113359338E+01 -0.38466334071E+01  0.12281604645E+02  0.51100000000E-03 0. -1.
        -11    1    3    3    0    0 -0.17257113585E+02  0.45746938676E+01 -0.14105990947E+02  0.22753346438E+02  0.51100000000E-03 0.  1.
         12    1    3    3    0    0  0.88517211338E+01  0.20227506657E+02 -0.10068837253E+02  0.24266983254E+02  0.00000000000E+00 0. -1.
</event>
<event>
 7    1  0.3802554E-013  0.5930197E+02  0.7816164E-02  0.1266605E+00
        -11   -1    0    0    0    0  0.00000000000E+00  0.00000000000E+00  0.45593999997E+02  0.45594000000E+02  0.51100000000E-03 0.  1.
         11   -1    0    0    0    0 -0.00000000000E+00 -0.00000000000E+00 -0.45593999997E+02  0.45594000000E+02  0.51100000000E-03 0. -1.
    9900012    2    1    2    0    0  0.19269401130E+02 -0.20260636472E+02 -0.15326961194E+02  0.59301969366E+02  0.50000046211E+02 0.  0.
        -12    1    1    2    0    0 -0.19269401130E+02  0.20260636472E+02  0.15326961194E+02  0.31886030634E+02  0.00000000000E+00 0.  1.
         11    1    3    3    0    0  0.74388288460E+01  0.58103697165E+01  0.63601610765E+01  0.11381925146E+02  0.51100000000E-03 0. -1.
        -11    1    3    3    0    0  0.19415981733E+01 -0.10248491297E+01  0.77321342207E+01  0.80377869512E+01  0.51100000000E-03 0.  1.
         12    1    3    3    0    0  0.98889741109E+01 -0.25046157059E+02 -0.29419256491E+02  0.39882257269E+02  0.00000000000E+00 0. -1.
</event>
<event>
 7    1  0.3802554E-013  0.5930195E+02  0.7816164E-02  0.1266605E+00
        -11   -1    0    0    0    0  0.00000000000E+00  0.00000000000E+00  0.45593999997E+02  0.45594000000E+02  0.51100000000E-03 0.  1.
         11   -1    0    0    0    0 -0.00000000000E+00 -0.00000000000E+00 -0.45593999997E+02  0.45594000000E+02  0.51100000000E-03 0. -1.
    9900012    2    1    2    0    0 -0.50415300695E+01  0.12932815421E+02 -0.28706188947E+02  0.59301952519E+02  0.50000015485E+02 0.  0.
        -12    1    1    2    0    0  0.50415300695E+01 -0.12932815421E+02  0.28706188947E+02  0.31886047481E+02  0.00000000000E+00 0.  1.
         11    1    3    3    0    0 -0.82905677917E+01  0.11786992126E+02 -0.60613402729E+01  0.15633507087E+02  0.51100000000E-03 0. -1.
        -11    1    3    3    0    0 -0.11643952237E+02 -0.34427240556E+01  0.40142729751E+01  0.12788602754E+02  0.51100000000E-03 0.  1.
         12    1    3    3    0    0  0.14892989959E+02  0.45885473504E+01 -0.26659121649E+02  0.30879842678E+02  0.00000000000E+00 0. -1.
</event>
<event>
 7    1  0.3802554E-013  0.5930194E+02  0.7816164E-02  0.1266605E+00
        -11   -1    0    0    0    0  0.00000000000E+00  0.00000000000E+00  0.45593999997E+02  0.45594000000E+02  0.51100000000E-03 0.  1.
         11   -1    0    0    0    0 -0.00000000000E+00 -0.00000000000E+00 -0.45593999997E+02  0.45594000000E+02  0.51100000000E-03 0. -1.
    9900012    2    1    2    0    0  0.95866190359E+01 -0.25857423130E+01 -0.30300687405E+02  0.59301937449E+02  0.49999988001E+02 0.  0.
        -12    1    1    2    0    0 -0.95866190359E+01  0.25857423130E+01  0.30300687405E+02  0.31886062551E+02  0.00000000000E+00 0.  1.
         11    1    3    3    0    0  0.14872684489E+02 -0.56013338728E+01 -0.17498863044E+02  0.23638567917E+02  0.51100000000E-03 0. -1.
        -11    1    3    3    0    0  0.12528840009E+02 -0.22332530534E+01 -0.11319866424E+02  0.17032281917E+02  0.51100000000E-03 0.  1.
         12    1    3    3    0    0 -0.17814905462E+02  0.52488446133E+01 -0.14819579364E+01  0.18631087615E+02  0.00000000000E+00 0. -1.
</event>
<event>
 7    1  0.3802554E-013  0.5930195E+02  0.7816164E-02  0.1266605E+00
        -11   -1    0    0    0    0  0.00000000000E+00  0.00000000000E+00  0.45593999997E+02  0.45594000000E+02  0.51100000000E-03 0.  1.
         11   -1    0    0    0    0 -0.00000000000E+00 -0.00000000000E+00 -0.45593999997E+02  0.45594000000E+02  0.51100000000E-03 0. -1.
    9900012    2    1    2    0    0  0.76903288839E+01 -0.29354437067E+01 -0.30805225194E+02  0.59301954661E+02  0.50000019392E+02 0.  0.
        -12    1    1    2    0    0 -0.76903288839E+01  0.29354437067E+01  0.30805225194E+02  0.31886045339E+02  0.00000000000E+00 0.  1.
         11    1    3    3    0    0 -0.45480266400E+01 -0.12992167198E+02 -0.17905474130E+01  0.13881174847E+02  0.51100000000E-03 0.  1.
        -11    1    3    3    0    0  0.20723582732E+02  0.10294444012E+02 -0.11244059178E+02  0.25726860007E+02  0.51100000000E-03 0. -1.
        -12    1    3    3    0    0 -0.84852272083E+01 -0.23772052006E+00 -0.17770618603E+02  0.19693919807E+02  0.00000000000E+00 0.  1.
</event>
<event>
 7    1  0.3802554E-013  0.5930193E+02  0.7816164E-02  0.1266605E+00
        -11   -1    0    0    0    0  0.00000000000E+00  0.00000000000E+00  0.45593999997E+02  0.45594000000E+02  0.51100000000E-03 0.  1.
         11   -1    0    0    0    0 -0.00000000000E+00 -0.00000000000E+00 -0.45593999997E+02  0.45594000000E+02  0.51100000000E-03 0. -1.
    9900012    2    1    2    0    0 -0.28578052783E+02  0.27208331523E+01 -0.13878524450E+02  0.59301929768E+02  0.49999973994E+02 0.  0.
        -12    1    1    2    0    0  0.28578052783E+02 -0.27208331523E+01  0.13878524450E+02  0.31886070232E+02  0.00000000000E+00 0.  1.
         11    1    3    3    0    0 -0.31619134648E+01 -0.37591068122E+01 -0.19664553835E+02  0.20268775458E+02  0.51100000000E-03 0. -1.
        -11    1    3    3    0    0 -0.30296163111E+00 -0.19013273256E+01  0.11740203133E+02  0.11897024889E+02  0.51100000000E-03 0.  1.
        -12    1    3    3    0    0 -0.25113177687E+02  0.83812672901E+01 -0.59541737485E+01  0.27136129421E+02  0.00000000000E+00 0.  1.
</event>
<event>
 7    1  0.3802554E-013  0.5930195E+02  0.7816164E-02  0.1266605E+00
        -11   -1    0    0    0    0  0.00000000000E+00  0.00000000000E+00  0.45593999997E+02  0.45594000000E+02  0.51100000000E-03 0. -1.
         11   -1    0    0    0    0 -0.00000000000E+00 -0.00000000000E+00 -0.45593999997E+02  0.45594000000E+02  0.51100000000E-03 0.  1.
    9900012    2    1    2    0    0  0.30290819856E+02  0.99254156556E+01  0.82027381407E+00  0.59301945170E+02  0.50000002083E+02 0.  0.
        -12    1    1    2    0    0 -0.30290819856E+02 -0.99254156556E+01 -0.82027381407E+00  0.31886054830E+02  0.00000000000E+00 0.  1.
         11    1    3    3    0    0  0.75231863633E+01  0.15180677576E+02  0.38628741720E+01  0.17377373273E+02  0.51100000000E-03 0. -1.
        -11    1    3    3    0    0  0.66186345028E+01  0.86420610339E+01 -0.14185783125E+02  0.17880939146E+02  0.51100000000E-03 0.  1.
        -12    1    3    3    0    0  0.16148998990E+02 -0.13897322955E+02  0.11143182767E+02  0.24043632751E+02  0.00000000000E+00 0.  1.
</event>
<event>
 7    1  0.3802554E-013  0.5930201E+02  0.7816164E-02  0.1266605E+00
        -11   -1    0    0    0    0  0.00000000000E+00  0.00000000000E+00  0.45593999997E+02  0.45594000000E+02  0.51100000000E-03 0.  1.
         11   -1    0    0    0    0 -0.00000000000E+00 -0.00000000000E+00 -0.45593999997E+02  0.45594000000E+02  0.51100000000E-03 0. -1.
    9900012    2    1    2    0    0 -0.28512183461E+02 -0.94555479945E+01 -0.10694137385E+02  0.59302006711E+02  0.50000114320E+02 0.  0.
        -12    1    1    2    0    0  0.28512183461E+02  0.94555479945E+01  0.10694137385E+02  0.31885993289E+02  0.00000000000E+00 0.  1.
         11    1    3    3    0    0 -0.13893651253E+02  0.49951892157E+01 -0.22393699788E+02  0.26822812136E+02  0.51100000000E-03 0. -1.
        -11    1    3    3    0    0 -0.18909324743E+02 -0.13705183424E+02  0.40865658127E+01  0.23708535074E+02  0.51100000000E-03 0.  1.
         12    1    3    3    0    0  0.42907925346E+01 -0.74555378584E+00  0.76129965901E+01  0.87706595022E+01  0.00000000000E+00 0. -1.
</event>
<event>
 7    1  0.3802554E-013  0.5930194E+02  0.7816164E-02  0.1266605E+00
        -11   -1    0    0    0    0  0.00000000000E+00  0.00000000000E+00  0.45593999997E+02  0.45594000000E+02  0.51100000000E-03 0. -1.
         11   -1    0    0    0    0 -0.00000000000E+00 -0.00000000000E+00 -0.45593999997E+02  0.45594000000E+02  0.51100000000E-03 0.  1.
    9900012    2    1    2    0    0  0.82088900627E+01  0.30716948498E+02  0.24090908339E+01  0.59301944745E+02  0.50000001309E+02 0.  0.
        -12    1    1    2    0    0 -0.82088900627E+01 -0.30716948498E+02 -0.24090908339E+01  0.31886055255E+02  0.00000000000E+00 0.  1.
         11    1    3    3    0    0 -0.23076363077E+01  0.16664282204E+02  0.11363004473E+02  0.20301264927E+02  0.51100000000E-03 0. -1.
        -11    1    3    3    0    0  0.19387560008E+02  0.12094941673E+02 -0.15666135041E+02  0.27705466690E+02  0.51100000000E-03 0.  1.
         12    1    3    3    0    0 -0.88710336373E+01  0.19577246209E+01  0.67122214018E+01  0.11295213129E+02  0.00000000000E+00 0. -1.
</event>
<event>
 7    1  0.3802554E-013  0.5930192E+02  0.7816164E-02  0.1266605E+00
        -11   -1    0    0    0    0  0.00000000000E+00  0.00000000000E+00  0.45593999997E+02  0.45594000000E+02  0.51100000000E-03 0.  1.
         11   -1    0    0    0    0 -0.00000000000E+00 -0.00000000000E+00 -0.45593999997E+02  0.45594000000E+02  0.51100000000E-03 0. -1.
    9900012    2    1    2    0    0  0.15905492505E+02  0.27551740551E+02 -0.21538444642E+01  0.59301919256E+02  0.49999954823E+02 0.  0.
        -12    1    1    2    0    0 -0.15905492505E+02 -0.27551740551E+02  0.21538444642E+01  0.31886080744E+02  0.00000000000E+00 0.  1.
         11    1    3    3    0    0 -0.92821980407E+00  0.15942021659E+01  0.12520243829E+01  0.22294927376E+01  0.51100000000E-03 0. -1.
        -11    1    3    3    0    0  0.87450981413E+01 -0.77971468432E+01  0.13989038938E+02  0.18247340931E+02  0.51100000000E-03 0.  1.
         12    1    3    3    0    0  0.80886141682E+01  0.33754685228E+02 -0.17394907785E+02  0.38825085587E+02  0.00000000000E+00 0. -1.
</event>
<event>
 7    1  0.3802554E-013  0.5930194E+02  0.7816164E-02  0.1266605E+00
        -11   -1    0    0    0    0  0.00000000000E+00  0.00000000000E+00  0.45593999997E+02  0.45594000000E+02  0.51100000000E-03 0.  1.
         11   -1    0    0    0    0 -0.00000000000E+00 -0.00000000000E+00 -0.45593999997E+02  0.45594000000E+02  0.51100000000E-03 0. -1.
    9900012    2    1    2    0    0 -0.99406736892E+01 -0.29268092420E+02 -0.78283124022E+01  0.59301941881E+02  0.49999996085E+02 0.  0.
        -12    1    1    2    0    0  0.99406736892E+01  0.29268092420E+02  0.78283124022E+01  0.31886058119E+02  0.00000000000E+00 0.  1.
         11    1    3    3    0    0 -0.10816328819E+01 -0.54481875329E+01  0.30473985683E+01  0.63355595948E+01  0.51100000000E-03 0. -1.
        -11    1    3    3    0    0 -0.34237727161E+01 -0.22117378306E+02  0.14691773363E+02  0.26772165537E+02  0.51100000000E-03 0.  1.
         12    1    3    3    0    0 -0.54352680913E+01 -0.17025265809E+01 -0.25567484333E+02  0.26194216749E+02  0.00000000000E+00 0. -1.
</event>
<event>
 7    1  0.3802554E-013  0.5930193E+02  0.7816164E-02  0.1266605E+00
        -11   -1    0    0    0    0  0.00000000000E+00  0.00000000000E+00  0.45593999997E+02  0.45594000000E+02  0.51100000000E-03 0.  1.
         11   -1    0    0    0    0 -0.00000000000E+00 -0.00000000000E+00 -0.45593999997E+02  0.45594000000E+02  0.51100000000E-03 0. -1.
    9900012    2    1    2    0    0 -0.23786080546E+02  0.10099500924E+01 -0.21211403727E+02  0.59301932902E+02  0.49999979709E+02 0.  0.
        -12    1    1    2    0    0  0.23786080546E+02 -0.10099500924E+01  0.21211403727E+02  0.31886067098E+02  0.00000000000E+00 0.  1.
         11    1    3    3    0    0 -0.21924300428E+02  0.49173120042E+01 -0.76910042928E+00  0.22482135627E+02  0.51100000000E-03 0. -1.
        -11    1    3    3    0    0 -0.12529102666E+02  0.31095939134E+01 -0.22871030924E+00  0.12911246903E+02  0.51100000000E-03 0.  1.
         12    1    3    3    0    0  0.10667322548E+02 -0.70169558252E+01 -0.20213592988E+02  0.23908550372E+02  0.00000000000E+00 0. -1.
</event>
<event>
 7    1  0.3802554E-013  0.5930195E+02  0.7816164E-02  0.1266605E+00
        -11   -1    0    0    0    0  0.00000000000E+00  0.00000000000E+00  0.45593999997E+02  0.45594000000E+02  0.51100000000E-03 0.  1.
         11   -1    0    0    0    0 -0.00000000000E+00 -0.00000000000E+00 -0.45593999997E+02  0.45594000000E+02  0.51100000000E-03 0. -1.
    9900012    2    1    2    0    0  0.17410962244E+02 -0.17074424283E+02 -0.20543682132E+02  0.59301945895E+02  0.50000003405E+02 0.  0.
        -12    1    1    2    0    0 -0.17410962244E+02  0.17074424283E+02  0.20543682132E+02  0.31886054105E+02  0.00000000000E+00 0.  1.
         11    1    3    3    0    0  0.63445967701E+01 -0.10000301761E+02 -0.16953920358E+02  0.20680796872E+02  0.51100000000E-03 0. -1.
        -11    1    3    3    0    0  0.17489436880E+02 -0.28774831037E+01 -0.16100250132E+02  0.23945320335E+02  0.51100000000E-03 0.  1.
        -12    1    3    3    0    0 -0.64230714053E+01 -0.41966394185E+01  0.12510488359E+02  0.14675828687E+02  0.00000000000E+00 0.  1.
</event>
<event>
 7    1  0.3802554E-013  0.5930193E+02  0.7816164E-02  0.1266605E+00
        -11   -1    0    0    0    0  0.00000000000E+00  0.00000000000E+00  0.45593999997E+02  0.45594000000E+02  0.51100000000E-03 0. -1.
         11   -1    0    0    0    0 -0.00000000000E+00 -0.00000000000E+00 -0.45593999997E+02  0.45594000000E+02  0.51100000000E-03 0.  1.
    9900012    2    1    2    0    0  0.50869755412E+01 -0.44742640745E+00  0.31474492785E+02  0.59301933974E+02  0.49999981665E+02 0.  0.
        -12    1    1    2    0    0 -0.50869755412E+01  0.44742640745E+00 -0.31474492785E+02  0.31886066026E+02  0.00000000000E+00 0.  1.
         11    1    3    3    0    0 -0.71445949689E+01 -0.97920237938E+01  0.10913225781E+02  0.16310348386E+02  0.51100000000E-03 0.  1.
        -11    1    3    3    0    0 -0.45061664658E+01 -0.81334143045E+01  0.15792257763E+02  0.18326302682E+02  0.51100000000E-03 0. -1.
         12    1    3    3    0    0  0.16737736976E+02  0.17478011691E+02  0.47690092408E+01  0.24665282907E+02  0.00000000000E+00 0. -1.
</event>
<event>
 7    1  0.3802554E-013  0.5930192E+02  0.7816164E-02  0.1266605E+00
        -11   -1    0    0    0    0  0.00000000000E+00  0.00000000000E+00  0.45593999997E+02  0.45594000000E+02  0.51100000000E-03 0. -1.
         11   -1    0    0    0    0 -0.00000000000E+00 -0.00000000000E+00 -0.45593999997E+02  0.45594000000E+02  0.51100000000E-03 0.  1.
    9900012    2    1    2    0    0  0.12781275404E+02  0.28894675430E+02 -0.42963404998E+01  0.59301924499E+02  0.49999964385E+02 0.  0.
        -12    1    1    2    0    0 -0.12781275404E+02 -0.28894675430E+02  0.42963404998E+01  0.31886075501E+02  0.00000000000E+00 0.  1.
         11    1    3    3    0    0  0.19024810888E+02  0.13177089956E+02  0.10621725173E+02  0.25463703088E+02  0.51100000000E-03 0. -1.
        -11    1    3    3    0    0  0.59115141371E+01  0.11556563115E+02  0.14150950599E+01  0.13057666128E+02  0.51100000000E-03 0.  1.
        -12    1    3    3    0    0 -0.12155049621E+02  0.41610223592E+01 -0.16333160733E+02  0.20780555283E+02  0.00000000000E+00 0.  1.
</event>
<event>
 7    1  0.3802554E-013  0.5930195E+02  0.7816164E-02  0.1266605E+00
        -11   -1    0    0    0    0  0.00000000000E+00  0.00000000000E+00  0.45593999997E+02  0.45594000000E+02  0.51100000000E-03 0. -1.
         11   -1    0    0    0    0 -0.00000000000E+00 -0.00000000000E+00 -0.45593999997E+02  0.45594000000E+02  0.51100000000E-03 0.  1.
    9900012    2    1    2    0    0 -0.19463226765E+02  0.24795655037E+02  0.48039773489E+01  0.59301954413E+02  0.50000018940E+02 0.  0.
        -12    1    1    2    0    0  0.19463226765E+02 -0.24795655037E+02 -0.48039773489E+01  0.31886045587E+02  0.00000000000E+00 0.  1.
         11    1    3    3    0    0 -0.40378834692E+01  0.20343339640E+02  0.13397985412E+02  0.24691334188E+02  0.51100000000E-03 0. -1.
        -11    1    3    3    0    0 -0.15150265257E+01 -0.54972020351E+01  0.86263807361E+01  0.10340647004E+02  0.51100000000E-03 0.  1.
        -12    1    3    3    0    0 -0.13910316770E+02  0.99495174322E+01 -0.17220388799E+02  0.24269973222E+02  0.00000000000E+00 0.  1.
</event>
<event>
 7    1  0.3802554E-013  0.5930197E+02  0.7816164E-02  0.1266605E+00
        -11   -1    0    0    0    0  0.00000000000E+00  0.00000000000E+00  0.45593999997E+02  0.45594000000E+02  0.51100000000E-03 0.  1.
         11   -1    0    0    0    0 -0.00000000000E+00 -0.00000000000E+00 -0.45593999997E+02  0.45594000000E+02  0.51100000000E-03 0. -1.
    9900012    2    1    2    0    0 -0.17517887352E+02  0.22198235346E+02 -0.14733664494E+02  0.59301970157E+02  0.50000047653E+02 0.  0.
        -12    1    1    2    0    0  0.17517887352E+02 -0.22198235346E+02  0.14733664494E+02  0.31886029843E+02  0.00000000000E+00 0.  1.
         11    1    3    3    0    0  0.94149598638E+01  0.10952337159E+02 -0.12360282249E+02  0.19009780009E+02  0.51100000000E-03 0. -1.
        -11    1    3    3    0    0 -0.41922344846E+00 -0.72519944574E+01  0.23177734860E+01  0.76249095800E+01  0.51100000000E-03 0.  1.
         12    1    3    3    0    0 -0.26513623767E+02  0.18497892645E+02 -0.46911557312E+01  0.32667280567E+02  0.00000000000E+00 0. -1.
</event>
<event>
 7    1  0.3802554E-013  0.5930195E+02  0.7816164E-02  0.1266605E+00
        -11   -1    0    0    0    0  0.00000000000E+00  0.00000000000E+00  0.45593999997E+02  0.45594000000E+02  0.51100000000E-03 0.  1.
         11   -1    0    0    0    0 -0.00000000000E+00 -0.00000000000E+00 -0.45593999997E+02  0.45594000000E+02  0.51100000000E-03 0. -1.
    9900012    2    1    2    0    0 -0.52686088151E+01 -0.30870060228E+02  0.60001202001E+01  0.59301948195E+02  0.50000007600E+02 0.  0.
        -12    1    1    2    0    0  0.52686088151E+01  0.30870060228E+02 -0.60001202001E+01  0.31886051805E+02  0.00000000000E+00 0.  1.
         11    1    3    3    0    0 -0.78314266800E+01 -0.15545452218E+02  0.57712400859E+01  0.18338471607E+02  0.51100000000E-03 0. -1.
        -11    1    3    3    0    0  0.12078653027E+02 -0.19833801075E+02  0.11177969365E+02  0.25772476082E+02  0.51100000000E-03 0.  1.
         12    1    3    3    0    0 -0.95158351624E+01  0.45091930649E+01 -0.10949089251E+02  0.15191000506E+02  0.00000000000E+00 0. -1.
</event>
<event>
 7    1  0.3802554E-013  0.5930196E+02  0.7816164E-02  0.1266605E+00
        -11   -1    0    0    0    0  0.00000000000E+00  0.00000000000E+00  0.45593999997E+02  0.45594000000E+02  0.51100000000E-03 0. -1.
         11   -1    0    0    0    0 -0.00000000000E+00 -0.00000000000E+00 -0.45593999997E+02  0.45594000000E+02  0.51100000000E-03 0.  1.
    9900012    2    1    2    0    0 -0.23280813492E+02 -0.96939051774E+01  0.19512851575E+02  0.59301961503E+02  0.50000031870E+02 0.  0.
        -12    1    1    2    0    0  0.23280813492E+02  0.96939051774E+01 -0.19512851575E+02  0.31886038497E+02  0.00000000000E+00 0.  1.
         11    1    3    3    0    0  0.26984331475E+01 -0.26972753784E+01  0.19520179215E-01  0.38153921446E+01  0.51100000000E-03 0. -1.
        -11    1    3    3    0    0 -0.37310757955E+01 -0.23131333635E+02  0.14498897542E+02  0.27553539746E+02  0.51100000000E-03 0.  1.
        -12    1    3    3    0    0 -0.22248170844E+02  0.16134703836E+02  0.49944338535E+01  0.27933029612E+02  0.00000000000E+00 0.  1.
</event>
<event>
 7    1  0.3802554E-013  0.5930198E+02  0.7816164E-02  0.1266605E+00
        -11   -1    0    0    0    0  0.00000000000E+00  0.00000000000E+00  0.45593999997E+02  0.45594000000E+02  0.51100000000E-03 0. -1.
         11   -1    0    0    0    0 -0.00000000000E+00 -0.00000000000E+00 -0.45593999997E+02  0.45594000000E+02  0.51100000000E-03 0.  1.
    9900012    2    1    2    0    0  0.18640660699E+02  0.21115969664E+02  0.14945239194E+02  0.59301975150E+02  0.50000056759E+02 0.  0.
        -12    1    1    2    0    0 -0.18640660699E+02 -0.21115969664E+02 -0.14945239194E+02  0.31886024850E+02  0.00000000000E+00 0.  1.
         11    1    3    3    0    0  0.15527843615E+01  0.11349948953E+02 -0.85564247511E+01  0.14298422475E+02  0.51100000000E-03 0. -1.
        -11    1    3    3    0    0 -0.16136610372E+01  0.13609559764E+02 -0.12297390560E+01  0.13759951937E+02  0.51100000000E-03 0.  1.
         12    1    3    3    0    0  0.18701537375E+02 -0.38435390521E+01  0.24731403001E+02  0.31243600737E+02  0.00000000000E+00 0. -1.
</event>
<event>
 7    1  0.3802554E-013  0.5930196E+02  0.7816164E-02  0.1266605E+00
        -11   -1    0    0    0    0  0.00000000000E+00  0.00000000000E+00  0.45593999997E+02  0.45594000000E+02  0.51100000000E-03 0.  1.
         11   -1    0    0    0    0 -0.00000000000E+00 -0.00000000000E+00 -0.45593999997E+02  0.45594000000E+02  0.51100000000E-03 0. -1.
    9900012    2    1    2    0    0  0.25092384573E+02  0.14316953155E+02 -0.13495049804E+02  0.59301964178E+02  0.50000036750E+02 0.  0.
        -12    1    1    2    0    0 -0.25092384573E+02 -0.14316953155E+02  0.13495049804E+02  0.31886035822E+02  0.00000000000E+00 0.  1.
         11    1    3    3    0    0  0.11580536098E+01 -0.19056731215E+01 -0.43067041269E+00  0.22711572986E+01  0.51100000000E-03 0. -1.
        -11    1    3    3    0    0 -0.42696385892E+01 -0.93343139532E+01  0.84633362242E+01  0.13303657052E+02  0.51100000000E-03 0.  1.
        -12    1    3    3    0    0  0.28203969552E+02  0.25556940230E+02 -0.21527715616E+02  0.43727149828E+02  0.00000000000E+00 0.  1.
</event>
<event>
 7    1  0.3802554E-013  0.5930194E+02  0.7816164E-02  0.1266605E+00
        -11   -1    0    0    0    0  0.00000000000E+00  0.00000000000E+00  0.45593999997E+02  0.45594000000E+02  0.51100000000E-03 0.  1.
         11   -1    0    0    0    0 -0.00000000000E+00 -0.00000000000E+00 -0.45593999997E+02  0.45594000000E+02  0.51100000000E-03 0. -1.
    9900012    2    1    2    0    0 -0.17999423149E+02  0.10311371918E+02 -0.24216050169E+02  0.59301941756E+02  0.49999995857E+02 0.  0.
        -12    1    1    2    0    0  0.17999423149E+02 -0.10311371918E+02  0.24216050169E+02  0.31886058244E+02  0.00000000000E+00 0.  1.
         11    1    3    3    0    0 -0.14686037291E+01 -0.72590566759E+01  0.55898666026E+00  0.74271910629E+01  0.51100000000E-03 0. -1.
        -11    1    3    3    0    0 -0.43147480837E+01 -0.56147762881E+01  0.74901955194E+01  0.10307559991E+02  0.51100000000E-03 0.  1.
         12    1    3    3    0    0 -0.12216071336E+02  0.23185204882E+02 -0.32265232349E+02  0.41567190702E+02  0.00000000000E+00 0. -1.
</event>
<event>
 7    1  0.3802554E-013  0.5930194E+02  0.7816164E-02  0.1266605E+00
        -11   -1    0    0    0    0  0.00000000000E+00  0.00000000000E+00  0.45593999997E+02  0.45594000000E+02  0.51100000000E-03 0.  1.
         11   -1    0    0    0    0 -0.00000000000E+00 -0.00000000000E+00 -0.45593999997E+02  0.45594000000E+02  0.51100000000E-03 0. -1.
    9900012    2    1    2    0    0 -0.20958497736E+02 -0.16314648079E+02 -0.17643534062E+02  0.59301942491E+02  0.49999997197E+02 0.  0.
        -12    1    1    2    0    0  0.20958497736E+02  0.16314648079E+02  0.17643534062E+02  0.31886057509E+02  0.00000000000E+00 0.  1.
         11    1    3    3    0    0 -0.29036006738E+02 -0.75998724665E+01 -0.13970643414E+02  0.33106292853E+02  0.51100000000E-03 0. -1.
        -11    1    3    3    0    0 -0.20437200735E+01 -0.67785743482E+00 -0.11088231855E+02  0.11295360480E+02  0.51100000000E-03 0.  1.
         12    1    3    3    0    0  0.10121229075E+02 -0.80369181773E+01  0.74153412070E+01  0.14900289158E+02  0.00000000000E+00 0. -1.
</event>
<event>
 7    1  0.3802554E-013  0.5930197E+02  0.7816164E-02  0.1266605E+00
        -11   -1    0    0    0    0  0.00000000000E+00  0.00000000000E+00  0.45593999997E+02  0.45594000000E+02  0.51100000000E-03 0.  1.
         11   -1    0    0    0    0 -0.00000000000E+00 -0.00000000000E+00 -0.45593999997E+02  0.45594000000E+02  0.51100000000E-03 0. -1.
    9900012    2    1    2    0    0  0.25710581307E+02 -0.14852663746E+02 -0.11622525129E+02  0.59301973250E+02  0.50000053295E+02 0.  0.
        -12    1    1    2    0    0 -0.25710581307E+02  0.14852663746E+02  0.11622525129E+02  0.31886026750E+02  0.00000000000E+00 0.  1.
         11    1    3    3    0    0  0.25291505615E+02  0.68753283824E+01 -0.15326448140E+02  0.30361660190E+02  0.51100000000E-03 0. -1.
        -11    1    3    3    0    0  0.49062436252E+01 -0.96667591512E+01 -0.63911799057E+01  0.12584301325E+02  0.51100000000E-03 0.  1.
        -12    1    3    3    0    0 -0.44871679330E+01 -0.12061232977E+02  0.10095102916E+02  0.16356011735E+02  0.00000000000E+00 0.  1.
</event>
<event>
 7    1  0.3802554E-013  0.5930193E+02  0.7816164E-02  0.1266605E+00
        -11   -1    0    0    0    0  0.00000000000E+00  0.00000000000E+00  0.45593999997E+02  0.45594000000E+02  0.51100000000E-03 0. -1.
         11   -1    0    0    0    0 -0.00000000000E+00 -0.00000000000E+00 -0.45593999997E+02  0.45594000000E+02  0.51100000000E-03 0.  1.
    9900012    2    1    2    0    0 -0.15376343114E+02  0.24824859253E+02 -0.12806871754E+02  0.59301928925E+02  0.49999972456E+02 0.  0.
        -12    1    1    2    0    0  0.15376343114E+02 -0.24824859253E+02  0.12806871754E+02  0.31886071075E+02  0.00000000000E+00 0.  1.
         11    1    3    3    0    0 -0.13586017212E+02 -0.74179768149E+01  0.42620043142E+01  0.16055246019E+02  0.51100000000E-03 0. -1.
        -11    1    3    3    0    0 -0.90915296027E+01  0.59792430269E+01  0.36727788313E+00  0.10887706416E+02  0.51100000000E-03 0.  1.
        -12    1    3    3    0    0  0.73012037002E+01  0.26263593040E+02 -0.17436153951E+02  0.32358976490E+02  0.00000000000E+00 0.  1.
</event>
<event>
 7    1  0.3802554E-013  0.5930195E+02  0.7816164E-02  0.1266605E+00
        -11   -1    0    0    0    0  0.00000000000E+00  0.00000000000E+00  0.45593999997E+02  0.45594000000E+02  0.51100000000E-03 0.  1.
         11   -1    0    0    0    0 -0.00000000000E+00 -0.00000000000E+00 -0.45593999997E+02  0.45594000000E+02  0.51100000000E-03 0. -1.
    9900012    2    1    2    0    0  0.47303210845E+00  0.26231871766E+02 -0.18121411316E+02  0.59301946563E+02  0.50000004623E+02 0.  0.
        -12    1    1    2    0    0 -0.47303210845E+00 -0.26231871766E+02  0.18121411316E+02  0.31886053437E+02  0.00000000000E+00 0.  1.
         11    1    3    3    0    0 -0.51072384096E+01  0.25193533363E+02 -0.15223382263E+00  0.25706442439E+02  0.51100000000E-03 0. -1.
        -11    1    3    3    0    0  0.12535844354E+02  0.19351653111E+01  0.16213170041E+01  0.12787530158E+02  0.51100000000E-03 0.  1.
         12    1    3    3    0    0 -0.69555738362E+01 -0.89682690801E+00 -0.19590494498E+02  0.20807973966E+02  0.00000000000E+00 0. -1.
</event>
<event>
 7    1  0.3802554E-013  0.5930197E+02  0.7816164E-02  0.1266605E+00
        -11   -1    0    0    0    0  0.00000000000E+00  0.00000000000E+00  0.45593999997E+02  0.45594000000E+02  0.51100000000E-03 0. -1.
         11   -1    0    0    0    0 -0.00000000000E+00 -0.00000000000E+00 -0.45593999997E+02  0.45594000000E+02  0.51100000000E-03 0.  1.
    9900012    2    1    2    0    0  0.86600946278E+01 -0.27118087006E+02  0.14364237104E+02  0.59301965606E+02  0.50000039353E+02 0.  0.
        -12    1    1    2    0    0 -0.86600946278E+01  0.27118087006E+02 -0.14364237104E+02  0.31886034394E+02  0.00000000000E+00 0.  1.
         11    1    3    3    0    0  0.11186867427E+01  0.47964448431E+01 -0.33527096419E+01  0.59580202556E+01  0.51100000000E-03 0. -1.
        -11    1    3    3    0    0 -0.13299271264E+02 -0.59352059874E+01 -0.19056306217E+01  0.14687706240E+02  0.51100000000E-03 0.  1.
         12    1    3    3    0    0  0.20840679149E+02 -0.25979325862E+02  0.19622577367E+02  0.38656239110E+02  0.00000000000E+00 0. -1.
</event>
<event>
 7    1  0.3802554E-013  0.5930194E+02  0.7816164E-02  0.1266605E+00
        -11   -1    0    0    0    0  0.00000000000E+00  0.00000000000E+00  0.45593999997E+02  0.45594000000E+02  0.51100000000E-03 0.  1.
         11   -1    0    0    0    0 -0.00000000000E+00 -0.00000000000E+00 -0.45593999997E+02  0.45594000000E+02  0.51100000000E-03 0. -1.
    9900012    2    1    2    0    0 -0.94134016470E+01 -0.30363466306E+02 -0.24837186645E+01  0.59301936036E+02  0.49999985425E+02 0.  0.
        -12    1    1    2    0    0  0.94134016470E+01  0.30363466306E+02  0.24837186645E+01  0.31886063964E+02  0.00000000000E+00 0.  1.
         11    1    3    3    0    0 -0.17534069488E+02 -0.81427431394E+01 -0.70450585504E+01  0.20576217069E+02  0.51100000000E-03 0. -1.
        -11    1    3    3    0    0 -0.88850543521E+01 -0.14384124366E+02  0.94564561599E+01  0.19371932996E+02  0.51100000000E-03 0.  1.
         12    1    3    3    0    0  0.17005722193E+02 -0.78365988008E+01 -0.48951162740E+01  0.19353785971E+02  0.00000000000E+00 0. -1.
</event>
<event>
 7    1  0.3802554E-013  0.5930194E+02  0.7816164E-02  0.1266605E+00
        -11   -1    0    0    0    0  0.00000000000E+00  0.00000000000E+00  0.45593999997E+02  0.45594000000E+02  0.51100000000E-03 0.  1.
         11   -1    0    0    0    0 -0.00000000000E+00 -0.00000000000E+00 -0.45593999997E+02  0.45594000000E+02  0.51100000000E-03 0. -1.
    9900012    2    1    2    0    0  0.29454497393E+02 -0.95100834707E+00 -0.12175758151E+02  0.59301938467E+02  0.49999989858E+02 0.  0.
        -12    1    1    2    0    0 -0.29454497393E+02  0.95100834707E+00  0.12175758151E+02  0.31886061533E+02  0.00000000000E+00 0.  1.
         11    1    3    3    0    0  0.68001644153E+00  0.11458098016E+01  0.81258483571E+01  0.82343617996E+01  0.51100000000E-03 0. -1.
        -11    1    3    3    0    0  0.22308053873E+02 -0.58099767356E+01  0.59250393876E+01  0.23801495526E+02  0.51100000000E-03 0.  1.
         12    1    3    3    0    0  0.64664270786E+01  0.37131585869E+01 -0.26226645896E+02  0.27266081141E+02  0.00000000000E+00 0. -1.
</event>
<event>
 7    1  0.3802554E-013  0.5930196E+02  0.7816164E-02  0.1266605E+00
        -11   -1    0    0    0    0  0.00000000000E+00  0.00000000000E+00  0.45593999997E+02  0.45594000000E+02  0.51100000000E-03 0.  1.
         11   -1    0    0    0    0 -0.00000000000E+00 -0.00000000000E+00 -0.45593999997E+02  0.45594000000E+02  0.51100000000E-03 0. -1.
    9900012    2    1    2    0    0  0.83989584345E+01 -0.14652435277E+02 -0.27045949736E+02  0.59301956666E+02  0.50000023049E+02 0.  0.
        -12    1    1    2    0    0 -0.83989584345E+01  0.14652435277E+02  0.27045949736E+02  0.31886043334E+02  0.00000000000E+00 0.  1.
         11    1    3    3    0    0  0.16576292127E+02 -0.20583955809E+01 -0.25539665018E+02  0.30516961555E+02  0.51100000000E-03 0. -1.
        -11    1    3    3    0    0  0.79297145950E+01 -0.56488578509E+01  0.38122901552E+01  0.10455789070E+02  0.51100000000E-03 0.  1.
         12    1    3    3    0    0 -0.16107048288E+02 -0.69451818456E+01 -0.53185748733E+01  0.18329206041E+02  0.00000000000E+00 0. -1.
</event>
<event>
 7    1  0.3802554E-013  0.5930192E+02  0.7816164E-02  0.1266605E+00
        -11   -1    0    0    0    0  0.00000000000E+00  0.00000000000E+00  0.45593999997E+02  0.45594000000E+02  0.51100000000E-03 0.  1.
         11   -1    0    0    0    0 -0.00000000000E+00 -0.00000000000E+00 -0.45593999997E+02  0.45594000000E+02  0.51100000000E-03 0. -1.
    9900012    2    1    2    0    0  0.13557900154E+02 -0.17652370639E+00 -0.28859559483E+02  0.59301921678E+02  0.49999959239E+02 0.  0.
        -12    1    1    2    0    0 -0.13557900154E+02  0.17652370639E+00  0.28859559483E+02  0.31886078322E+02  0.00000000000E+00 0.  1.
         11    1    3    3    0    0  0.11228842038E+02 -0.92485323612E+00 -0.24538410930E+02  0.27001404746E+02  0.51100000000E-03 0. -1.
        -11    1    3    3    0    0 -0.94769161353E+01  0.64082976279E+01 -0.12435476720E+02  0.16897316339E+02  0.51100000000E-03 0.  1.
        -12    1    3    3    0    0  0.11805974251E+02 -0.56599680982E+01  0.81143281674E+01  0.15403200593E+02  0.00000000000E+00 0.  1.
</event>
<event>
 7    1  0.3802554E-013  0.5930197E+02  0.7816164E-02  0.1266605E+00
        -11   -1    0    0    0    0  0.00000000000E+00  0.00000000000E+00  0.45593999997E+02  0.45594000000E+02  0.51100000000E-03 0.  1.
         11   -1    0    0    0    0 -0.00000000000E+00 -0.00000000000E+00 -0.45593999997E+02  0.45594000000E+02  0.51100000000E-03 0. -1.
    9900012    2    1    2    0    0  0.11609496774E+02 -0.68689436122E+01 -0.28892149021E+02  0.59301967372E+02  0.50000042575E+02 0.  0.
        -12    1    1    2    0    0 -0.11609496774E+02  0.68689436122E+01  0.28892149021E+02  0.31886032628E+02  0.00000000000E+00 0.  1.
         11    1    3    3    0    0 -0.11618631423E+01 -0.12312393018E+02 -0.26084387617E+02  0.28867632833E+02  0.51100000000E-03 0. -1.
        -11    1    3    3    0    0  0.11850972650E+01 -0.79544969832E+01 -0.86229877174E+01  0.11791284714E+02  0.51100000000E-03 0.  1.
         12    1    3    3    0    0  0.11586262652E+02  0.13397946389E+02  0.58152263136E+01  0.18643049825E+02  0.00000000000E+00 0. -1.
</event>
<event>
 7    1  0.3802554E-013  0.5930195E+02  0.7816164E-02  0.1266605E+00
        -11   -1    0    0    0    0  0.00000000000E+00  0.00000000000E+00  0.45593999997E+02  0.45594000000E+02  0.51100000000E-03 0.  1.
         11   -1    0    0    0    0 -0.00000000000E+00 -0.00000000000E+00 -0.45593999997E+02  0.45594000000E+02  0.51100000000E-03 0. -1.
    9900012    2    1    2    0    0 -0.13456884290E+02 -0.25268011797E+02  0.14041364756E+02  0.59301951653E+02  0.50000013907E+02 0.  0.
        -12    1    1    2    0    0  0.13456884290E+02  0.25268011797E+02 -0.14041364756E+02  0.31886048347E+02  0.00000000000E+00 0.  1.
         11    1    3    3    0    0 -0.21230389526E+02 -0.16769441158E+02  0.32121642922E+01  0.27244478264E+02  0.51100000000E-03 0. -1.
        -11    1    3    3    0    0 -0.91123819450E+01  0.10807139134E+01  0.84934056384E+01  0.12503654941E+02  0.51100000000E-03 0.  1.
        -12    1    3    3    0    0  0.16885887182E+02 -0.95792845527E+01  0.23357948250E+01  0.19553818448E+02  0.00000000000E+00 0.  1.
</event>
<event>
 7    1  0.3802554E-013  0.5930194E+02  0.7816164E-02  0.1266605E+00
        -11   -1    0    0    0    0  0.00000000000E+00  0.00000000000E+00  0.45593999997E+02  0.45594000000E+02  0.51100000000E-03 0. -1.
         11   -1    0    0    0    0 -0.00000000000E+00 -0.00000000000E+00 -0.45593999997E+02  0.45594000000E+02  0.51100000000E-03 0.  1.
    9900012    2    1    2    0    0 -0.22030090054E+02  0.27317959105E+00  0.23050410820E+02  0.59301938251E+02  0.49999989465E+02 0.  0.
        -12    1    1    2    0    0  0.22030090054E+02 -0.27317959105E+00 -0.23050410820E+02  0.31886061749E+02  0.00000000000E+00 0.  1.
         11    1    3    3    0    0 -0.16944089532E+02 -0.23278657171E+01  0.10385048290E+02  0.20009256786E+02  0.51100000000E-03 0. -1.
        -11    1    3    3    0    0  0.22503957716E+01  0.87624141042E+01  0.23290653373E+02  0.24985970401E+02  0.51100000000E-03 0.  1.
        -12    1    3    3    0    0 -0.73363962929E+01 -0.61613687960E+01 -0.10625290843E+02  0.14306711065E+02  0.00000000000E+00 0.  1.
</event>
<event>
 7    1  0.3802554E-013  0.5930195E+02  0.7816164E-02  0.1266605E+00
        -11   -1    0    0    0    0  0.00000000000E+00  0.00000000000E+00  0.45593999997E+02  0.45594000000E+02  0.51100000000E-03 0.  1.
         11   -1    0    0    0    0 -0.00000000000E+00 -0.00000000000E+00 -0.45593999997E+02  0.45594000000E+02  0.51100000000E-03 0. -1.
    9900012    2    1    2    0    0 -0.17951366329E+02 -0.66258287928E+01 -0.25506217467E+02  0.59301948352E+02  0.50000007886E+02 0.  0.
        -12    1    1    2    0    0  0.17951366329E+02  0.66258287928E+01  0.25506217467E+02  0.31886051648E+02  0.00000000000E+00 0.  1.
         11    1    3    3    0    0 -0.82560286827E+00  0.11752314617E+02  0.18707075862E+01  0.11928875307E+02  0.51100000000E-03 0. -1.
        -11    1    3    3    0    0  0.22866699634E+01 -0.29183195565E+01  0.52212713178E+01  0.64036804254E+01  0.51100000000E-03 0.  1.
         12    1    3    3    0    0 -0.19412433424E+02 -0.15459823853E+02 -0.32598196371E+02  0.40969392620E+02  0.00000000000E+00 0. -1.
</event>
<event>
 7    1  0.3802554E-013  0.5930196E+02  0.7816164E-02  0.1266605E+00
        -11   -1    0    0    0    0  0.00000000000E+00  0.00000000000E+00  0.45593999997E+02  0.45594000000E+02  0.51100000000E-03 0. -1.
         11   -1    0    0    0    0 -0.00000000000E+00 -0.00000000000E+00 -0.45593999997E+02  0.45594000000E+02  0.51100000000E-03 0.  1.
    9900012    2    1    2    0    0 -0.18799268729E+01  0.25830693026E+02  0.18600012756E+02  0.59301963843E+02  0.50000036139E+02 0.  0.
        -12    1    1    2    0    0  0.18799268729E+01 -0.25830693026E+02 -0.18600012756E+02  0.31886036157E+02  0.00000000000E+00 0.  1.
         11    1    3    3    0    0 -0.13441567569E+00  0.21988102681E+02  0.12641002254E+02  0.25363155666E+02  0.51100000000E-03 0. -1.
        -11    1    3    3    0    0  0.11523086477E+01  0.17145483182E+02  0.98134429894E+01  0.19788862330E+02  0.51100000000E-03 0.  1.
        -12    1    3    3    0    0 -0.28978198450E+01 -0.13302892837E+02 -0.38544324872E+01  0.14149945847E+02  0.00000000000E+00 0.  1.
</event>
<event>
 7    1  0.3802554E-013  0.5930194E+02  0.7816164E-02  0.1266605E+00
        -11   -1    0    0    0    0  0.00000000000E+00  0.00000000000E+00  0.45593999997E+02  0.45594000000E+02  0.51100000000E-03 0.  1.
         11   -1    0    0    0    0 -0.00000000000E+00 -0.00000000000E+00 -0.45593999997E+02  0.45594000000E+02  0.51100000000E-03 0. -1.
    9900012    2    1    2    0    0  0.26251932062E+02 -0.17085174110E+02 -0.59710470140E+01  0.59301944838E+02  0.50000001478E+02 0.  0.
        -12    1    1    2    0    0 -0.26251932062E+02  0.17085174110E+02  0.59710470140E+01  0.31886055162E+02  0.00000000000E+00 0.  1.
         11    1    3    3    0    0 -0.58134421485E+00  0.52362325211E+00 -0.88902311161E+00  0.11842739381E+01  0.51100000000E-03 0. -1.
        -11    1    3    3    0    0 -0.92196268069E+01 -0.19610160253E+02 -0.11807792478E+00  0.21669652657E+02  0.51100000000E-03 0.  1.
         12    1    3    3    0    0  0.36052903084E+02  0.20013628907E+01 -0.49639459776E+01  0.36448018243E+02  0.00000000000E+00 0. -1.
</event>
<event>
 7    1  0.3802554E-013  0.5930193E+02  0.7816164E-02  0.1266605E+00
        -11   -1    0    0    0    0  0.00000000000E+00  0.00000000000E+00  0.45593999997E+02  0.45594000000E+02  0.51100000000E-03 0.  1.
         11   -1    0    0    0    0 -0.00000000000E+00 -0.00000000000E+00 -0.45593999997E+02  0.45594000000E+02  0.51100000000E-03 0. -1.
    9900012    2    1    2    0    0 -0.27799879583E+02  0.12744069017E+02 -0.90264390539E+01  0.59301934047E+02  0.49999981798E+02 0.  0.
        -12    1    1    2    0    0  0.27799879583E+02 -0.12744069017E+02  0.90264390539E+01  0.31886065953E+02  0.00000000000E+00 0.  1.
         11    1    3    3    0    0 -0.64634318813E+01 -0.16126889995E+01 -0.12884643127E+02  0.14504852507E+02  0.51100000000E-03 0. -1.
        -11    1    3    3    0    0 -0.21424690247E+02 -0.41055688719E+01  0.11681620937E+02  0.24745369585E+02  0.51100000000E-03 0.  1.
         12    1    3    3    0    0  0.88242544630E-01  0.18462326889E+02 -0.78234168638E+01  0.20051711955E+02  0.00000000000E+00 0. -1.
</event>
<event>
 7    1  0.3802554E-013  0.5930195E+02  0.7816164E-02  0.1266605E+00
        -11   -1    0    0    0    0  0.00000000000E+00  0.00000000000E+00  0.45593999997E+02  0.45594000000E+02  0.51100000000E-03 0. -1.
         11   -1    0    0    0    0 -0.00000000000E+00 -0.00000000000E+00 -0.45593999997E+02  0.45594000000E+02  0.51100000000E-03 0.  1.
    9900012    2    1    2    0    0 -0.27031793050E+02 -0.64753014227E+01  0.15622837460E+02  0.59301946398E+02  0.50000004323E+02 0.  0.
        -12    1    1    2    0    0  0.27031793050E+02  0.64753014227E+01 -0.15622837460E+02  0.31886053602E+02  0.00000000000E+00 0.  1.
         11    1    3    3    0    0  0.95937315676E+01 -0.39711134965E+01 -0.78488027363E+00  0.10412754924E+02  0.51100000000E-03 0. -1.
        -11    1    3    3    0    0 -0.45825340903E+01  0.52352097554E+01 -0.58699554556E+01  0.91029345369E+01  0.51100000000E-03 0.  1.
         12    1    3    3    0    0 -0.32042990527E+02 -0.77393976815E+01  0.22277673189E+02  0.39786256938E+02  0.00000000000E+00 0. -1.
</event>
<event>
 7    1  0.3802554E-013  0.5930196E+02  0.7816164E-02  0.1266605E+00
        -11   -1    0    0    0    0  0.00000000000E+00  0.00000000000E+00  0.45593999997E+02  0.45594000000E+02  0.51100000000E-03 0.  1.
         11   -1    0    0    0    0 -0.00000000000E+00 -0.00000000000E+00 -0.45593999997E+02  0.45594000000E+02  0.51100000000E-03 0. -1.
    9900012    2    1    2    0    0 -0.21607785267E+02  0.19966523941E+02  0.12294763059E+02  0.59301958209E+02  0.50000025863E+02 0.  0.
        -12    1    1    2    0    0  0.21607785267E+02 -0.19966523941E+02 -0.12294763059E+02  0.31886041791E+02  0.00000000000E+00 0.  1.
         11    1    3    3    0    0 -0.22957685096E+02  0.22793933647E+02 -0.29627163369E+01  0.32486865106E+02  0.51100000000E-03 0. -1.
        -11    1    3    3    0    0  0.27495992059E+01  0.93625419060E+01  0.61487008574E+01  0.11533603480E+02  0.51100000000E-03 0.  1.
        -12    1    3    3    0    0 -0.13996993771E+01 -0.12189951612E+02  0.91087785383E+01  0.15281489623E+02  0.00000000000E+00 0.  1.
</event>
<event>
 7    1  0.3802554E-013  0.5930194E+02  0.7816164E-02  0.1266605E+00
        -11   -1    0    0    0    0  0.00000000000E+00  0.00000000000E+00  0.45593999997E+02  0.45594000000E+02  0.51100000000E-03 0. -1.
         11   -1    0    0    0    0 -0.00000000000E+00 -0.00000000000E+00 -0.45593999997E+02  0.45594000000E+02  0.51100000000E-03 0.  1.
    9900012    2    1    2    0    0 -0.20686071867E+02  0.11562404408E+02  0.21333496100E+02  0.59301940024E+02  0.49999992698E+02 0.  0.
        -12    1    1    2    0    0  0.20686071867E+02 -0.11562404408E+02 -0.21333496100E+02  0.31886059976E+02  0.00000000000E+00 0.  1.
         11    1    3    3    0    0 -0.34938229399E+01  0.11125003635E+01  0.17184519809E+02  0.17571345342E+02  0.51100000000E-03 0. -1.
        -11    1    3    3    0    0 -0.13942186884E+02 -0.89256650591E+01 -0.82526449554E+01  0.18497519317E+02  0.51100000000E-03 0.  1.
         12    1    3    3    0    0 -0.32500620427E+01  0.19375569104E+02  0.12401621246E+02  0.23233075365E+02  0.00000000000E+00 0. -1.
</event>
<event>
 7    1  0.3802554E-013  0.5930195E+02  0.7816164E-02  0.1266605E+00
        -11   -1    0    0    0    0  0.00000000000E+00  0.00000000000E+00  0.45593999997E+02  0.45594000000E+02  0.51100000000E-03 0. -1.
         11   -1    0    0    0    0 -0.00000000000E+00 -0.00000000000E+00 -0.45593999997E+02  0.45594000000E+02  0.51100000000E-03 0.  1.
    9900012    2    1    2    0    0 -0.20186534728E+02 -0.18613597350E+02  0.16209815762E+02  0.59301947913E+02  0.50000007086E+02 0.  0.
        -12    1    1    2    0    0  0.20186534728E+02  0.18613597350E+02 -0.16209815762E+02  0.31886052087E+02  0.00000000000E+00 0.  1.
         11    1    3    3    0    0  0.53323628280E+01  0.25364929771E+01  0.15516813440E+02  0.16602391080E+02  0.51100000000E-03 0. -1.
        -11    1    3    3    0    0 -0.15483400496E+02  0.25341489764E+01  0.53144545813E+01  0.16565054474E+02  0.51100000000E-03 0.  1.
         12    1    3    3    0    0 -0.10035497060E+02 -0.23684239303E+02 -0.46214522594E+01  0.26134502360E+02  0.00000000000E+00 0. -1.
</event>
<event>
 7    1  0.3802554E-013  0.5930194E+02  0.7816164E-02  0.1266605E+00
        -11   -1    0    0    0    0  0.00000000000E+00  0.00000000000E+00  0.45593999997E+02  0.45594000000E+02  0.51100000000E-03 0.  1.
         11   -1    0    0    0    0 -0.00000000000E+00 -0.00000000000E+00 -0.45593999997E+02  0.45594000000E+02  0.51100000000E-03 0. -1.
    9900012    2    1    2    0    0  0.59787026238E+01 -0.31054904675E+02 -0.40705086887E+01  0.59301936737E+02  0.49999986703E+02 0.  0.
        -12    1    1    2    0    0 -0.59787026238E+01  0.31054904675E+02  0.40705086887E+01  0.31886063263E+02  0.00000000000E+00 0.  1.
         11    1    3    3    0    0  0.49676408782E+01 -0.17845113059E+02  0.21952654763E+01  0.18653276033E+02  0.51100000000E-03 0.  1.
        -11    1    3    3    0    0  0.14166194348E+02 -0.17378067536E+02  0.48377855569E+01  0.22936487590E+02  0.51100000000E-03 0. -1.
         12    1    3    3    0    0 -0.13155132602E+02  0.41682759204E+01 -0.11103559722E+02  0.17712173114E+02  0.00000000000E+00 0. -1.
</event>
<event>
 7    1  0.3802554E-013  0.5930192E+02  0.7816164E-02  0.1266605E+00
        -11   -1    0    0    0    0  0.00000000000E+00  0.00000000000E+00  0.45593999997E+02  0.45594000000E+02  0.51100000000E-03 0.  1.
         11   -1    0    0    0    0 -0.00000000000E+00 -0.00000000000E+00 -0.45593999997E+02  0.45594000000E+02  0.51100000000E-03 0. -1.
    9900012    2    1    2    0    0  0.10104707100E+02 -0.26570620122E+02 -0.14443655949E+02  0.59301919080E+02  0.49999954501E+02 0.  0.
        -12    1    1    2    0    0 -0.10104707100E+02  0.26570620122E+02  0.14443655949E+02  0.31886080920E+02  0.00000000000E+00 0.  1.
         11    1    3    3    0    0  0.23515912723E+01 -0.18836075518E+01 -0.13718992088E+02  0.14045949705E+02  0.51100000000E-03 0. -1.
        -11    1    3    3    0    0  0.62116792079E+00  0.82437869004E+01  0.68318951726E+01  0.10724768713E+02  0.51100000000E-03 0.  1.
         12    1    3    3    0    0  0.71319479070E+01 -0.32930799471E+02 -0.75565590336E+01  0.34531200662E+02  0.00000000000E+00 0. -1.
</event>
<event>
 7    1  0.3802554E-013  0.5930194E+02  0.7816164E-02  0.1266605E+00
        -11   -1    0    0    0    0  0.00000000000E+00  0.00000000000E+00  0.45593999997E+02  0.45594000000E+02  0.51100000000E-03 0. -1.
         11   -1    0    0    0    0 -0.00000000000E+00 -0.00000000000E+00 -0.45593999997E+02  0.45594000000E+02  0.51100000000E-03 0.  1.
    9900012    2    1    2    0    0  0.28370681375E+02  0.14347619633E+02 -0.24436157587E+01  0.59301937076E+02  0.49999987321E+02 0.  0.
        -12    1    1    2    0    0 -0.28370681375E+02 -0.14347619633E+02  0.24436157587E+01  0.31886062924E+02  0.00000000000E+00 0.  1.
         11    1    3    3    0    0  0.35290906170E+02  0.10168926067E+02  0.66960179721E+01  0.37332181460E+02  0.51100000000E-03 0. -1.
        -11    1    3    3    0    0  0.46066082559E+01  0.34177813028E+01 -0.86858304284E+01  0.10408924976E+02  0.51100000000E-03 0.  1.
        -12    1    3    3    0    0 -0.11526833050E+02  0.76091226331E+00 -0.45380330242E+00  0.11560830640E+02  0.00000000000E+00 0.  1.
</event>
<event>
 7    1  0.3802554E-013  0.5930194E+02  0.7816164E-02  0.1266605E+00
        -11   -1    0    0    0    0  0.00000000000E+00  0.00000000000E+00  0.45593999997E+02  0.45594000000E+02  0.51100000000E-03 0.  1.
         11   -1    0    0    0    0 -0.00000000000E+00 -0.00000000000E+00 -0.45593999997E+02  0.45594000000E+02  0.51100000000E-03 0. -1.
    9900012    2    1    2    0    0  0.16726730661E+02 -0.24910522965E+01 -0.27032050091E+02  0.59301943607E+02  0.49999999233E+02 0.  0.
        -12    1    1    2    0    0 -0.16726730661E+02  0.24910522965E+01  0.27032050091E+02  0.31886056393E+02  0.00000000000E+00 0.  1.
         11    1    3    3    0    0  0.16530520240E+01 -0.32191330580E+01 -0.22076704624E+02  0.22371327317E+02  0.51100000000E-03 0. -1.
        -11    1    3    3    0    0 -0.86627795789E+01 -0.69089857783E+01  0.14795935102E+01  0.11178865405E+02  0.51100000000E-03 0.  1.
        -12    1    3    3    0    0  0.23736458216E+02  0.76370665397E+01 -0.64349389778E+01  0.25751750885E+02  0.00000000000E+00 0.  1.
</event>
<event>
 7    1  0.3802554E-013  0.5930212E+02  0.7816164E-02  0.1266604E+00
        -11   -1    0    0    0    0  0.00000000000E+00  0.00000000000E+00  0.45593999997E+02  0.45594000000E+02  0.51100000000E-03 0.  1.
         11   -1    0    0    0    0 -0.00000000000E+00 -0.00000000000E+00 -0.45593999997E+02  0.45594000000E+02  0.51100000000E-03 0. -1.
    9900012    2    1    2    0    0  0.31558506747E+02  0.39802651717E+01 -0.22198037974E+01  0.59302119303E+02  0.50000319659E+02 0.  0.
        -12    1    1    2    0    0 -0.31558506747E+02 -0.39802651717E+01  0.22198037974E+01  0.31885880697E+02  0.00000000000E+00 0.  1.
         11    1    3    3    0    0  0.26391682078E+01 -0.61624070284E+00  0.12332250985E+02  0.12626534602E+02  0.51100000000E-03 0.  1.
        -11    1    3    3    0    0  0.19927410301E+02 -0.10814335045E+02  0.14357928561E+01  0.22718121075E+02  0.51100000000E-03 0. -1.
         12    1    3    3    0    0  0.89919282375E+01  0.15410840919E+02 -0.15987847639E+02  0.23957463626E+02  0.00000000000E+00 0. -1.
</event>
<event>
 7    1  0.3802554E-013  0.5930198E+02  0.7816164E-02  0.1266605E+00
        -11   -1    0    0    0    0  0.00000000000E+00  0.00000000000E+00  0.45593999997E+02  0.45594000000E+02  0.51100000000E-03 0. -1.
         11   -1    0    0    0    0 -0.00000000000E+00 -0.00000000000E+00 -0.45593999997E+02  0.45594000000E+02  0.51100000000E-03 0.  1.
    9900012    2    1    2    0    0 -0.31077861173E+02  0.11566325507E+01  0.70389698548E+01  0.59301978760E+02  0.50000063342E+02 0.  0.
        -12    1    1    2    0    0  0.31077861173E+02 -0.11566325507E+01 -0.70389698548E+01  0.31886021240E+02  0.00000000000E+00 0.  1.
         11    1    3    3    0    0 -0.47402201325E+01  0.12853499260E+02  0.80931801675E+01  0.15911684248E+02  0.51100000000E-03 0. -1.
        -11    1    3    3    0    0 -0.22273537930E+00  0.95397528445E+01 -0.18549259991E+01  0.97209694016E+01  0.51100000000E-03 0.  1.
        -12    1    3    3    0    0 -0.26114905661E+02 -0.21236619554E+02  0.80071568638E+00  0.33669325110E+02  0.00000000000E+00 0.  1.
</event>
<event>
 7    1  0.3802554E-013  0.5930184E+02  0.7816164E-02  0.1266605E+00
        -11   -1    0    0    0    0  0.00000000000E+00  0.00000000000E+00  0.45593999997E+02  0.45594000000E+02  0.51100000000E-03 0. -1.
         11   -1    0    0    0    0 -0.00000000000E+00 -0.00000000000E+00 -0.45593999997E+02  0.45594000000E+02  0.51100000000E-03 0.  1.
    9900012    2    1    2    0    0 -0.26788714101E+02  0.49796977816E+01 -0.16561838564E+02  0.59301841721E+02  0.49999813417E+02 0.  0.
        -12    1    1    2    0    0  0.26788714101E+02 -0.49796977816E+01  0.16561838564E+02  0.31886158279E+02  0.00000000000E+00 0.  1.
         11    1    3    3    0    0  0.69083804241E+00 -0.40835981241E+01  0.50569232867E+01  0.65364749084E+01  0.51100000000E-03 0. -1.
        -11    1    3    3    0    0 -0.24693319032E+02 -0.11468926829E+02 -0.99682820964E+01  0.28994187963E+02  0.51100000000E-03 0.  1.
        -12    1    3    3    0    0 -0.27862331114E+01  0.20532222735E+02 -0.11650479754E+02  0.23771178849E+02  0.00000000000E+00 0.  1.
</event>
<event>
 7    1  0.3802554E-013  0.5930196E+02  0.7816164E-02  0.1266605E+00
        -11   -1    0    0    0    0  0.00000000000E+00  0.00000000000E+00  0.45593999997E+02  0.45594000000E+02  0.51100000000E-03 0.  1.
         11   -1    0    0    0    0 -0.00000000000E+00 -0.00000000000E+00 -0.45593999997E+02  0.45594000000E+02  0.51100000000E-03 0. -1.
    9900012    2    1    2    0    0 -0.23265478343E+02 -0.82797861057E+01 -0.20171317208E+02  0.59301962642E+02  0.50000033947E+02 0.  0.
        -12    1    1    2    0    0  0.23265478343E+02  0.82797861057E+01  0.20171317208E+02  0.31886037358E+02  0.00000000000E+00 0.  1.
         11    1    3    3    0    0 -0.11024630341E+02 -0.48855419965E+01 -0.30969296658E+01  0.12449978650E+02  0.51100000000E-03 0. -1.
        -11    1    3    3    0    0 -0.17968123065E+02 -0.19400589877E+02 -0.12490803010E+02  0.29244768663E+02  0.51100000000E-03 0.  1.
         12    1    3    3    0    0  0.57272750627E+01  0.16006345768E+02 -0.45835845327E+01  0.17607215329E+02  0.00000000000E+00 0. -1.
</event>
<event>
 7    1  0.3802554E-013  0.5930196E+02  0.7816164E-02  0.1266605E+00
        -11   -1    0    0    0    0  0.00000000000E+00  0.00000000000E+00  0.45593999997E+02  0.45594000000E+02  0.51100000000E-03 0. -1.
         11   -1    0    0    0    0 -0.00000000000E+00 -0.00000000000E+00 -0.45593999997E+02  0.45594000000E+02  0.51100000000E-03 0.  1.
    9900012    2    1    2    0    0 -0.26191673111E+02 -0.14815866872E+02  0.10545418306E+02  0.59301960755E+02  0.50000030506E+02 0.  0.
        -12    1    1    2    0    0  0.26191673111E+02  0.14815866872E+02 -0.10545418306E+02  0.31886039245E+02  0.00000000000E+00 0.  1.
         11    1    3    3    0    0  0.64482585167E+01 -0.10518568577E+02 -0.25676126668E+01  0.12602101327E+02  0.51100000000E-03 0. -1.
        -11    1    3    3    0    0 -0.14493082085E+02  0.43528867939E+01 -0.83573754673E+01  0.17287069639E+02  0.51100000000E-03 0.  1.
         12    1    3    3    0    0 -0.18146849543E+02 -0.86501850893E+01  0.21470406440E+02  0.29412789788E+02  0.00000000000E+00 0. -1.
</event>
<event>
 7    1  0.3802554E-013  0.5930200E+02  0.7816164E-02  0.1266605E+00
        -11   -1    0    0    0    0  0.00000000000E+00  0.00000000000E+00  0.45593999997E+02  0.45594000000E+02  0.51100000000E-03 0.  1.
         11   -1    0    0    0    0 -0.00000000000E+00 -0.00000000000E+00 -0.45593999997E+02  0.45594000000E+02  0.51100000000E-03 0. -1.
    9900012    2    1    2    0    0  0.87425724481E+01  0.23596716117E+02 -0.19582637858E+02  0.59301995390E+02  0.50000093672E+02 0.  0.
        -12    1    1    2    0    0 -0.87425724481E+01 -0.23596716117E+02  0.19582637858E+02  0.31886004610E+02  0.00000000000E+00 0.  1.
         11    1    3    3    0    0 -0.95495849546E+01  0.23295253733E+01  0.37046908774E+01  0.10504570245E+02  0.51100000000E-03 0. -1.
        -11    1    3    3    0    0 -0.46021283443E+01  0.78697921433E+00  0.51401051620E+01  0.69440336202E+01  0.51100000000E-03 0.  1.
         12    1    3    3    0    0  0.22894285747E+02  0.20480211530E+02 -0.28427433897E+02  0.41853391525E+02  0.00000000000E+00 0. -1.
</event>
<event>
 7    1  0.3802554E-013  0.5930194E+02  0.7816164E-02  0.1266605E+00
        -11   -1    0    0    0    0  0.00000000000E+00  0.00000000000E+00  0.45593999997E+02  0.45594000000E+02  0.51100000000E-03 0.  1.
         11   -1    0    0    0    0 -0.00000000000E+00 -0.00000000000E+00 -0.45593999997E+02  0.45594000000E+02  0.51100000000E-03 0. -1.
    9900012    2    1    2    0    0  0.98797883646E+01  0.15425379825E+02 -0.26099203029E+02  0.59301937847E+02  0.49999988729E+02 0.  0.
        -12    1    1    2    0    0 -0.98797883646E+01 -0.15425379825E+02  0.26099203029E+02  0.31886062153E+02  0.00000000000E+00 0.  1.
         11    1    3    3    0    0 -0.35906073802E+01 -0.26093507712E+01 -0.32939151171E+01  0.55273004140E+01  0.51100000000E-03 0. -1.
        -11    1    3    3    0    0 -0.94655648953E+01  0.22674467798E+02 -0.70423742361E+01  0.25560192563E+02  0.51100000000E-03 0.  1.
        -12    1    3    3    0    0  0.22935960640E+02 -0.46397372026E+01 -0.15762913676E+02  0.28214444870E+02  0.00000000000E+00 0.  1.
</event>
<event>
 7    1  0.3802554E-013  0.5930195E+02  0.7816164E-02  0.1266605E+00
        -11   -1    0    0    0    0  0.00000000000E+00  0.00000000000E+00  0.45593999997E+02  0.45594000000E+02  0.51100000000E-03 0.  1.
         11   -1    0    0    0    0 -0.00000000000E+00 -0.00000000000E+00 -0.45593999997E+02  0.45594000000E+02  0.51100000000E-03 0. -1.
    9900012    2    1    2    0    0 -0.20814513111E+02 -0.23941549005E+02 -0.32059725522E+01  0.59301953133E+02  0.50000016606E+02 0.  0.
        -12    1    1    2    0    0  0.20814513111E+02  0.23941549005E+02  0.32059725522E+01  0.31886046867E+02  0.00000000000E+00 0.  1.
         11    1    3    3    0    0  0.46767163702E+01 -0.18440711430E+02 -0.30154135316E+01  0.19261989333E+02  0.51100000000E-03 0. -1.
        -11    1    3    3    0    0  0.27434433842E+01  0.59534792653E+01 -0.61551661202E+01  0.89920224195E+01  0.51100000000E-03 0.  1.
         12    1    3    3    0    0 -0.28234672865E+02 -0.11454316841E+02  0.59646070996E+01  0.31047941380E+02  0.00000000000E+00 0. -1.
</event>
<event>
 7    1  0.3802554E-013  0.5930194E+02  0.7816164E-02  0.1266605E+00
        -11   -1    0    0    0    0  0.00000000000E+00  0.00000000000E+00  0.45593999997E+02  0.45594000000E+02  0.51100000000E-03 0.  1.
         11   -1    0    0    0    0 -0.00000000000E+00 -0.00000000000E+00 -0.45593999997E+02  0.45594000000E+02  0.51100000000E-03 0. -1.
    9900012    2    1    2    0    0 -0.17873928919E+02  0.12797466507E+02 -0.23096927453E+02  0.59301944399E+02  0.50000000678E+02 0.  0.
        -12    1    1    2    0    0  0.17873928919E+02 -0.12797466507E+02  0.23096927453E+02  0.31886055601E+02  0.00000000000E+00 0.  1.
         11    1    3    3    0    0 -0.24571728412E+01  0.14102564654E+02 -0.14145826206E+02  0.20125218695E+02  0.51100000000E-03 0. -1.
        -11    1    3    3    0    0 -0.21341030614E+02 -0.75688791187E+01 -0.16257722386E+02  0.27875456161E+02  0.51100000000E-03 0.  1.
         12    1    3    3    0    0  0.59242745358E+01  0.62637809715E+01  0.73066211386E+01  0.11301269544E+02  0.00000000000E+00 0. -1.
</event>
<event>
 7    1  0.3802554E-013  0.5930196E+02  0.7816164E-02  0.1266605E+00
        -11   -1    0    0    0    0  0.00000000000E+00  0.00000000000E+00  0.45593999997E+02  0.45594000000E+02  0.51100000000E-03 0.  1.
         11   -1    0    0    0    0 -0.00000000000E+00 -0.00000000000E+00 -0.45593999997E+02  0.45594000000E+02  0.51100000000E-03 0. -1.
    9900012    2    1    2    0    0 -0.61792514269E+00 -0.14214233589E+02 -0.28535825390E+02  0.59301959187E+02  0.50000027647E+02 0.  0.
        -12    1    1    2    0    0  0.61792514269E+00  0.14214233589E+02  0.28535825390E+02  0.31886040813E+02  0.00000000000E+00 0.  1.
         11    1    3    3    0    0 -0.72258041637E+01 -0.42311732063E+01 -0.13478209263E+02  0.15867488702E+02  0.51100000000E-03 0. -1.
        -11    1    3    3    0    0  0.11668789656E+02 -0.90477851894E+01 -0.26808551932E+02  0.30605906714E+02  0.51100000000E-03 0.  1.
        -12    1    3    3    0    0 -0.50609106345E+01 -0.93527519356E+00  0.11750935804E+02  0.12828563771E+02  0.00000000000E+00 0.  1.
</event>
<event>
 7    1  0.3802554E-013  0.5930195E+02  0.7816164E-02  0.1266605E+00
        -11   -1    0    0    0    0  0.00000000000E+00  0.00000000000E+00  0.45593999997E+02  0.45594000000E+02  0.51100000000E-03 0.  1.
         11   -1    0    0    0    0 -0.00000000000E+00 -0.00000000000E+00 -0.45593999997E+02  0.45594000000E+02  0.51100000000E-03 0. -1.
    9900012    2    1    2    0    0  0.12005135521E+02 -0.29526366594E+02  0.88897839542E+00  0.59301954686E+02  0.50000019439E+02 0.  0.
        -12    1    1    2    0    0 -0.12005135521E+02  0.29526366594E+02 -0.88897839542E+00  0.31886045314E+02  0.00000000000E+00 0.  1.
         11    1    3    3    0    0  0.11903904649E+02  0.28297484542E+01 -0.48058505772E+01  0.13145593263E+02  0.51100000000E-03 0. -1.
        -11    1    3    3    0    0  0.21836364509E+01  0.13107077863E+01 -0.90072650248E+01  0.93603977768E+01  0.51100000000E-03 0.  1.
         12    1    3    3    0    0 -0.20824055784E+01 -0.33666822835E+02  0.14702093997E+02  0.36795963647E+02  0.00000000000E+00 0. -1.
</event>
<event>
 7    1  0.3802554E-013  0.5930192E+02  0.7816164E-02  0.1266605E+00
        -11   -1    0    0    0    0  0.00000000000E+00  0.00000000000E+00  0.45593999997E+02  0.45594000000E+02  0.51100000000E-03 0. -1.
         11   -1    0    0    0    0 -0.00000000000E+00 -0.00000000000E+00 -0.45593999997E+02  0.45594000000E+02  0.51100000000E-03 0.  1.
    9900012    2    1    2    0    0 -0.12691942444E+02 -0.72147962179E+01  0.28347545693E+02  0.59301920995E+02  0.49999957994E+02 0.  0.
        -12    1    1    2    0    0  0.12691942444E+02  0.72147962179E+01 -0.28347545693E+02  0.31886079005E+02  0.00000000000E+00 0.  1.
         11    1    3    3    0    0  0.42245700127E+01 -0.13425772723E+02  0.36696204591E+01  0.14545256256E+02  0.51100000000E-03 0. -1.
        -11    1    3    3    0    0  0.62161774941E+01  0.11839392097E+02  0.10884671893E+02  0.17242046002E+02  0.51100000000E-03 0.  1.
         12    1    3    3    0    0 -0.23132689951E+02 -0.56284155923E+01  0.13793253341E+02  0.27514618736E+02  0.00000000000E+00 0. -1.
</event>
<event>
 7    1  0.3802554E-013  0.5930192E+02  0.7816164E-02  0.1266605E+00
        -11   -1    0    0    0    0  0.00000000000E+00  0.00000000000E+00  0.45593999997E+02  0.45594000000E+02  0.51100000000E-03 0. -1.
         11   -1    0    0    0    0 -0.00000000000E+00 -0.00000000000E+00 -0.45593999997E+02  0.45594000000E+02  0.51100000000E-03 0.  1.
    9900012    2    1    2    0    0  0.11662988358E+01 -0.12785986893E+02  0.29186985681E+02  0.59301923933E+02  0.49999963352E+02 0.  0.
        -12    1    1    2    0    0 -0.11662988358E+01  0.12785986893E+02 -0.29186985681E+02  0.31886076067E+02  0.00000000000E+00 0.  1.
         11    1    3    3    0    0 -0.12045496403E+02 -0.13733835578E+01 -0.51091836030E+00  0.12134298654E+02  0.51100000000E-03 0. -1.
        -11    1    3    3    0    0  0.18988513867E+02 -0.14640546587E+02  0.92906945758E+01  0.25714320314E+02  0.51100000000E-03 0.  1.
         12    1    3    3    0    0 -0.57767186287E+01  0.32279432519E+01  0.20407209465E+02  0.21453304965E+02  0.00000000000E+00 0. -1.
</event>
<event>
 7    1  0.3802554E-013  0.5930196E+02  0.7816164E-02  0.1266605E+00
        -11   -1    0    0    0    0  0.00000000000E+00  0.00000000000E+00  0.45593999997E+02  0.45594000000E+02  0.51100000000E-03 0.  1.
         11   -1    0    0    0    0 -0.00000000000E+00 -0.00000000000E+00 -0.45593999997E+02  0.45594000000E+02  0.51100000000E-03 0. -1.
    9900012    2    1    2    0    0 -0.29542724937E+02  0.71106122287E+01 -0.96636581625E+01  0.59301957723E+02  0.50000024978E+02 0.  0.
        -12    1    1    2    0    0  0.29542724937E+02 -0.71106122287E+01  0.96636581625E+01  0.31886042277E+02  0.00000000000E+00 0.  1.
         11    1    3    3    0    0 -0.16986215567E+02  0.47524368386E+01 -0.15339572242E+02  0.23375620891E+02  0.51100000000E-03 0. -1.
        -11    1    3    3    0    0  0.28138586824E+01 -0.11332467705E+02 -0.50430170769E+01  0.12719066257E+02  0.51100000000E-03 0.  1.
        -12    1    3    3    0    0 -0.15370368053E+02  0.13690643095E+02  0.10718931157E+02  0.23207270576E+02  0.00000000000E+00 0.  1.
</event>
<event>
 7    1  0.3802554E-013  0.5930192E+02  0.7816164E-02  0.1266605E+00
        -11   -1    0    0    0    0  0.00000000000E+00  0.00000000000E+00  0.45593999997E+02  0.45594000000E+02  0.51100000000E-03 0.  1.
         11   -1    0    0    0    0 -0.00000000000E+00 -0.00000000000E+00 -0.45593999997E+02  0.45594000000E+02  0.51100000000E-03 0. -1.
    9900012    2    1    2    0    0  0.43588371937E+01 -0.28435475099E+02 -0.13753039966E+02  0.59301924448E+02  0.49999964291E+02 0.  0.
        -12    1    1    2    0    0 -0.43588371937E+01  0.28435475099E+02  0.13753039966E+02  0.31886075552E+02  0.00000000000E+00 0.  1.
         11    1    3    3    0    0 -0.54919739772E+01 -0.11526498603E+02 -0.86047420352E+01  0.15396867668E+02  0.51100000000E-03 0. -1.
        -11    1    3    3    0    0 -0.63966564826E+01 -0.13713178837E+02 -0.17582681432E+02  0.23197395858E+02  0.51100000000E-03 0.  1.
        -12    1    3    3    0    0  0.16247467654E+02 -0.31957976586E+01  0.12434383501E+02  0.20707660923E+02  0.00000000000E+00 0.  1.
</event>
<event>
 7    1  0.3802554E-013  0.5930194E+02  0.7816164E-02  0.1266605E+00
        -11   -1    0    0    0    0  0.00000000000E+00  0.00000000000E+00  0.45593999997E+02  0.45594000000E+02  0.51100000000E-03 0. -1.
         11   -1    0    0    0    0 -0.00000000000E+00 -0.00000000000E+00 -0.45593999997E+02  0.45594000000E+02  0.51100000000E-03 0.  1.
    9900012    2    1    2    0    0  0.63826557566E+00 -0.23632033198E+02  0.21397206471E+02  0.59301940024E+02  0.49999992699E+02 0.  0.
        -12    1    1    2    0    0 -0.63826557566E+00  0.23632033198E+02 -0.21397206471E+02  0.31886059976E+02  0.00000000000E+00 0.  1.
         11    1    3    3    0    0 -0.18127537437E+01 -0.16667672306E+02  0.17587139886E+02  0.24298248206E+02  0.51100000000E-03 0. -1.
        -11    1    3    3    0    0  0.59660536290E+01  0.48760979864E+01  0.15932248476E+02  0.17697645867E+02  0.51100000000E-03 0.  1.
         12    1    3    3    0    0 -0.35150343096E+01 -0.11840458879E+02 -0.12122181892E+02  0.17306045951E+02  0.00000000000E+00 0. -1.
</event>
<event>
 7    1  0.3802554E-013  0.5930194E+02  0.7816164E-02  0.1266605E+00
        -11   -1    0    0    0    0  0.00000000000E+00  0.00000000000E+00  0.45593999997E+02  0.45594000000E+02  0.51100000000E-03 0.  1.
         11   -1    0    0    0    0 -0.00000000000E+00 -0.00000000000E+00 -0.45593999997E+02  0.45594000000E+02  0.51100000000E-03 0. -1.
    9900012    2    1    2    0    0 -0.71220148645E+01  0.12500515724E+02 -0.28455843120E+02  0.59301937265E+02  0.49999987666E+02 0.  0.
        -12    1    1    2    0    0  0.71220148645E+01 -0.12500515724E+02  0.28455843120E+02  0.31886062735E+02  0.00000000000E+00 0.  1.
         11    1    3    3    0    0  0.20743144179E+01 -0.12243080091E+01  0.22801563356E+01  0.33167489476E+01  0.51100000000E-03 0. -1.
        -11    1    3    3    0    0  0.82945402669E+01 -0.12646642696E+02 -0.90914236920E+01  0.17646273111E+02  0.51100000000E-03 0.  1.
         12    1    3    3    0    0 -0.17490869549E+02  0.26371466429E+02 -0.21644575763E+02  0.38338915206E+02  0.00000000000E+00 0. -1.
</event>
<event>
 7    1  0.3802554E-013  0.5930195E+02  0.7816164E-02  0.1266605E+00
        -11   -1    0    0    0    0  0.00000000000E+00  0.00000000000E+00  0.45593999997E+02  0.45594000000E+02  0.51100000000E-03 0.  1.
         11   -1    0    0    0    0 -0.00000000000E+00 -0.00000000000E+00 -0.45593999997E+02  0.45594000000E+02  0.51100000000E-03 0. -1.
    9900012    2    1    2    0    0  0.23609345400E+01 -0.31191199032E+02 -0.61850658836E+01  0.59301953696E+02  0.50000017632E+02 0.  0.
        -12    1    1    2    0    0 -0.23609345400E+01  0.31191199032E+02  0.61850658836E+01  0.31886046304E+02  0.00000000000E+00 0.  1.
         11    1    3    3    0    0  0.68920920892E+01 -0.20155736108E+01  0.43542374312E+01  0.83977886503E+01  0.51100000000E-03 0. -1.
        -11    1    3    3    0    0 -0.53394635457E+01  0.92276878412E+01  0.12247775803E+01  0.10731270858E+02  0.51100000000E-03 0.  1.
         12    1    3    3    0    0  0.80830599646E+00 -0.38403313262E+02 -0.11764080895E+02  0.40172894187E+02  0.00000000000E+00 0. -1.
</event>
<event>
 7    1  0.3802554E-013  0.5930193E+02  0.7816164E-02  0.1266605E+00
        -11   -1    0    0    0    0  0.00000000000E+00  0.00000000000E+00  0.45593999997E+02  0.45594000000E+02  0.51100000000E-03 0.  1.
         11   -1    0    0    0    0 -0.00000000000E+00 -0.00000000000E+00 -0.45593999997E+02  0.45594000000E+02  0.51100000000E-03 0. -1.
    9900012    2    1    2    0    0  0.19275387106E+01  0.31575111648E+02  0.40023248344E+01  0.59301926470E+02  0.49999967979E+02 0.  0.
        -12    1    1    2    0    0 -0.19275387106E+01 -0.31575111648E+02 -0.40023248344E+01  0.31886073530E+02  0.00000000000E+00 0.  1.
         11    1    3    3    0    0  0.35985818994E+01  0.21270218476E+02 -0.17182912455E+01  0.21640806610E+02  0.51100000000E-03 0. -1.
        -11    1    3    3    0    0 -0.45204045503E+01  0.22222713795E+02  0.98579978291E+01  0.24727781687E+02  0.51100000000E-03 0.  1.
        -12    1    3    3    0    0  0.28493613615E+01 -0.11917820622E+02 -0.41373817491E+01  0.12933338173E+02  0.00000000000E+00 0.  1.
</event>
<event>
 7    1  0.3802554E-013  0.5930196E+02  0.7816164E-02  0.1266605E+00
        -11   -1    0    0    0    0  0.00000000000E+00  0.00000000000E+00  0.45593999997E+02  0.45594000000E+02  0.51100000000E-03 0.  1.
         11   -1    0    0    0    0 -0.00000000000E+00 -0.00000000000E+00 -0.45593999997E+02  0.45594000000E+02  0.51100000000E-03 0. -1.
    9900012    2    1    2    0    0  0.73059445572E+00  0.31591432153E+02 -0.42622811403E+01  0.59301962393E+02  0.50000033494E+02 0.  0.
        -12    1    1    2    0    0 -0.73059445572E+00 -0.31591432153E+02  0.42622811403E+01  0.31886037607E+02  0.00000000000E+00 0.  1.
         11    1    3    3    0    0  0.15670112542E+02  0.20788913273E+02  0.10487587319E+02  0.28066364748E+02  0.51100000000E-03 0. -1.
        -11    1    3    3    0    0 -0.74204635009E+01  0.73647500880E+00  0.41549871995E+01  0.85363688355E+01  0.51100000000E-03 0.  1.
        -12    1    3    3    0    0 -0.75190545851E+01  0.10066043871E+02 -0.18904855659E+02  0.22699228809E+02  0.00000000000E+00 0.  1.
</event>
<event>
 7    1  0.3802554E-013  0.5930194E+02  0.7816164E-02  0.1266605E+00
        -11   -1    0    0    0    0  0.00000000000E+00  0.00000000000E+00  0.45593999997E+02  0.45594000000E+02  0.51100000000E-03 0.  1.
         11   -1    0    0    0    0 -0.00000000000E+00 -0.00000000000E+00 -0.45593999997E+02  0.45594000000E+02  0.51100000000E-03 0. -1.
    9900012    2    1    2    0    0 -0.94689376424E+01 -0.30444673563E+02  0.42655537911E+00  0.59301939128E+02  0.49999991065E+02 0.  0.
        -12    1    1    2    0    0  0.94689376424E+01  0.30444673563E+02 -0.42655537911E+00  0.31886060872E+02  0.00000000000E+00 0.  1.
         11    1    3    3    0    0 -0.46675594392E+01  0.93157017228E+01  0.32319969652E+01  0.10909363609E+02  0.51100000000E-03 0. -1.
        -11    1    3    3    0    0 -0.14371169322E+02 -0.22659217826E+02  0.50080551034E+01  0.27295627422E+02  0.51100000000E-03 0.  1.
         12    1    3    3    0    0  0.95697911190E+01 -0.17101157460E+02 -0.78134966895E+01  0.21096948098E+02  0.00000000000E+00 0. -1.
</event>
<event>
 7    1  0.3802554E-013  0.5930194E+02  0.7816164E-02  0.1266605E+00
        -11   -1    0    0    0    0  0.00000000000E+00  0.00000000000E+00  0.45593999997E+02  0.45594000000E+02  0.51100000000E-03 0.  1.
         11   -1    0    0    0    0 -0.00000000000E+00 -0.00000000000E+00 -0.45593999997E+02  0.45594000000E+02  0.51100000000E-03 0. -1.
    9900012    2    1    2    0    0  0.34969289596E+01  0.15437237472E+02 -0.27680023646E+02  0.59301944710E+02  0.50000001243E+02 0.  0.
        -12    1    1    2    0    0 -0.34969289596E+01 -0.15437237472E+02  0.27680023646E+02  0.31886055290E+02  0.00000000000E+00 0.  1.
         11    1    3    3    0    0  0.43003093547E+01 -0.49962979361E+00 -0.13399469852E+02  0.14081480144E+02  0.51100000000E-03 0. -1.
        -11    1    3    3    0    0  0.18063996464E+01  0.28803425361E+02 -0.14029819926E+02  0.32089503574E+02  0.51100000000E-03 0.  1.
        -12    1    3    3    0    0 -0.26097800415E+01 -0.12866558095E+02 -0.25073386832E+00  0.13130960991E+02  0.00000000000E+00 0.  1.
</event>
<event>
 7    1  0.3802554E-013  0.5930192E+02  0.7816164E-02  0.1266605E+00
        -11   -1    0    0    0    0  0.00000000000E+00  0.00000000000E+00  0.45593999997E+02  0.45594000000E+02  0.51100000000E-03 0. -1.
         11   -1    0    0    0    0 -0.00000000000E+00 -0.00000000000E+00 -0.45593999997E+02  0.45594000000E+02  0.51100000000E-03 0.  1.
    9900012    2    1    2    0    0  0.19090303284E+02 -0.24126897888E+02 -0.83770565431E+01  0.59301922199E+02  0.49999960191E+02 0.  0.
        -12    1    1    2    0    0 -0.19090303284E+02  0.24126897888E+02  0.83770565431E+01  0.31886077801E+02  0.00000000000E+00 0.  1.
         11    1    3    3    0    0 -0.47774045970E+01  0.25259065035E+01 -0.45523716967E+01  0.70659667897E+01  0.51100000000E-03 0. -1.
        -11    1    3    3    0    0  0.69976882808E+00  0.54957668321E+01  0.90146995888E+01  0.10581017835E+02  0.51100000000E-03 0.  1.
        -12    1    3    3    0    0  0.23167939053E+02 -0.32148571224E+02 -0.12839384435E+02  0.41654937575E+02  0.00000000000E+00 0.  1.
</event>
<event>
 7    1  0.3802554E-013  0.5930195E+02  0.7816164E-02  0.1266605E+00
        -11   -1    0    0    0    0  0.00000000000E+00  0.00000000000E+00  0.45593999997E+02  0.45594000000E+02  0.51100000000E-03 0. -1.
         11   -1    0    0    0    0 -0.00000000000E+00 -0.00000000000E+00 -0.45593999997E+02  0.45594000000E+02  0.51100000000E-03 0.  1.
    9900012    2    1    2    0    0  0.23582477693E+02 -0.21328071720E+02 -0.23875201610E+01  0.59301950543E+02  0.50000011883E+02 0.  0.
        -12    1    1    2    0    0 -0.23582477693E+02  0.21328071720E+02  0.23875201610E+01  0.31886049457E+02  0.00000000000E+00 0.  1.
         11    1    3    3    0    0  0.12790070880E+02  0.38372714880E+01  0.11016580583E+02  0.17311141314E+02  0.51100000000E-03 0. -1.
        -11    1    3    3    0    0  0.11665914606E+02 -0.15288453890E+02  0.60461223224E+01  0.20159017370E+02  0.51100000000E-03 0.  1.
        -12    1    3    3    0    0 -0.87350779308E+00 -0.98768893186E+01 -0.19450223066E+02  0.21831791859E+02  0.00000000000E+00 0.  1.
</event>
<event>
 7    1  0.3802554E-013  0.5930194E+02  0.7816164E-02  0.1266605E+00
        -11   -1    0    0    0    0  0.00000000000E+00  0.00000000000E+00  0.45593999997E+02  0.45594000000E+02  0.51100000000E-03 0. -1.
         11   -1    0    0    0    0 -0.00000000000E+00 -0.00000000000E+00 -0.45593999997E+02  0.45594000000E+02  0.51100000000E-03 0.  1.
    9900012    2    1    2    0    0 -0.18614501098E+02  0.43561046615E+01  0.25519516859E+02  0.59301936592E+02  0.49999986438E+02 0.  0.
        -12    1    1    2    0    0  0.18614501098E+02 -0.43561046615E+01 -0.25519516859E+02  0.31886063408E+02  0.00000000000E+00 0.  1.
         11    1    3    3    0    0 -0.41725452429E+01 -0.27133929829E+01 -0.27780839964E+01  0.57000338803E+01  0.51100000000E-03 0. -1.
        -11    1    3    3    0    0 -0.70787018191E+01 -0.17972566399E+02  0.13845510897E+02  0.23765928021E+02  0.51100000000E-03 0.  1.
         12    1    3    3    0    0 -0.73632540361E+01  0.25042064044E+02  0.14452089958E+02  0.29835974691E+02  0.00000000000E+00 0. -1.
</event>
<event>
 7    1  0.3802554E-013  0.5930193E+02  0.7816164E-02  0.1266605E+00
        -11   -1    0    0    0    0  0.00000000000E+00  0.00000000000E+00  0.45593999997E+02  0.45594000000E+02  0.51100000000E-03 0.  1.
         11   -1    0    0    0    0 -0.00000000000E+00 -0.00000000000E+00 -0.45593999997E+02  0.45594000000E+02  0.51100000000E-03 0. -1.
    9900012    2    1    2    0    0 -0.15865886196E+02 -0.24170960646E+02 -0.13444681679E+02  0.59301934881E+02  0.49999983318E+02 0.  0.
        -12    1    1    2    0    0  0.15865886196E+02  0.24170960646E+02  0.13444681679E+02  0.31886065119E+02  0.00000000000E+00 0.  1.
         11    1    3    3    0    0  0.91833673217E+01 -0.35889076677E+01 -0.75885707994E+01  0.12441901006E+02  0.51100000000E-03 0. -1.
        -11    1    3    3    0    0  0.77807034371E+01 -0.84398218730E+01 -0.18688809294E+01  0.11630247436E+02  0.51100000000E-03 0.  1.
        -12    1    3    3    0    0 -0.32829956955E+02 -0.12142231105E+02 -0.39872299507E+01  0.35229786439E+02  0.00000000000E+00 0.  1.
</event>
<event>
 7    1  0.3802554E-013  0.5930198E+02  0.7816164E-02  0.1266605E+00
        -11   -1    0    0    0    0  0.00000000000E+00  0.00000000000E+00  0.45593999997E+02  0.45594000000E+02  0.51100000000E-03 0.  1.
         11   -1    0    0    0    0 -0.00000000000E+00 -0.00000000000E+00 -0.45593999997E+02  0.45594000000E+02  0.51100000000E-03 0. -1.
    9900012    2    1    2    0    0 -0.12867472501E+02  0.27769362271E+02  0.89447624840E+01  0.59301982603E+02  0.50000070353E+02 0.  0.
        -12    1    1    2    0    0  0.12867472501E+02 -0.27769362271E+02 -0.89447624840E+01  0.31886017397E+02  0.00000000000E+00 0.  1.
         11    1    3    3    0    0 -0.34382815455E+01 -0.25655044070E+01  0.51293696262E+01  0.66868547069E+01  0.51100000000E-03 0. -1.
        -11    1    3    3    0    0 -0.15246149992E+02 -0.52082195273E+01 -0.16156390590E+01  0.16192002040E+02  0.51100000000E-03 0.  1.
         12    1    3    3    0    0  0.58169590368E+01  0.35543086206E+02  0.54310319168E+01  0.36423125856E+02  0.00000000000E+00 0. -1.
</event>
<event>
 7    1  0.3802554E-013  0.5930192E+02  0.7816164E-02  0.1266605E+00
        -11   -1    0    0    0    0  0.00000000000E+00  0.00000000000E+00  0.45593999997E+02  0.45594000000E+02  0.51100000000E-03 0. -1.
         11   -1    0    0    0    0 -0.00000000000E+00 -0.00000000000E+00 -0.45593999997E+02  0.45594000000E+02  0.51100000000E-03 0.  1.
    9900012    2    1    2    0    0 -0.17807032707E+02 -0.11897307168E+02  0.23623842756E+02  0.59301917170E+02  0.49999951019E+02 0.  0.
        -12    1    1    2    0    0  0.17807032707E+02  0.11897307168E+02 -0.23623842756E+02  0.31886082830E+02  0.00000000000E+00 0.  1.
         11    1    3    3    0    0  0.45264375762E+01 -0.23467120081E+01  0.10859099915E+02  0.11996488887E+02  0.51100000000E-03 0. -1.
        -11    1    3    3    0    0  0.37788948041E+01 -0.87680345565E+01 -0.91368333021E+01  0.13215150358E+02  0.51100000000E-03 0.  1.
         12    1    3    3    0    0 -0.26112365087E+02 -0.78256060356E+00  0.21901576143E+02  0.34090277926E+02  0.00000000000E+00 0. -1.
</event>
<event>
 7    1  0.3802554E-013  0.5930195E+02  0.7816164E-02  0.1266605E+00
        -11   -1    0    0    0    0  0.00000000000E+00  0.00000000000E+00  0.45593999997E+02  0.45594000000E+02  0.51100000000E-03 0.  1.
         11   -1    0    0    0    0 -0.00000000000E+00 -0.00000000000E+00 -0.45593999997E+02  0.45594000000E+02  0.51100000000E-03 0. -1.
    9900012    2    1    2    0    0  0.24584425770E+02 -0.10960885877E+02 -0.17093432302E+02  0.59301946034E+02  0.50000003659E+02 0.  0.
        -12    1    1    2    0    0 -0.24584425770E+02  0.10960885877E+02  0.17093432302E+02  0.31886053966E+02  0.00000000000E+00 0.  1.
         11    1    3    3    0    0  0.46522831594E+01  0.17186752151E+01  0.44171430138E+01  0.66414407891E+01  0.51100000000E-03 0. -1.
        -11    1    3    3    0    0 -0.32593331111E+00  0.11643780341E+02 -0.17114034836E+02  0.20702029895E+02  0.51100000000E-03 0.  1.
         12    1    3    3    0    0  0.20258075922E+02 -0.24323341432E+02 -0.43965404794E+01  0.31958475350E+02  0.00000000000E+00 0. -1.
</event>
<event>
 7    1  0.3802554E-013  0.5930197E+02  0.7816164E-02  0.1266605E+00
        -11   -1    0    0    0    0  0.00000000000E+00  0.00000000000E+00  0.45593999997E+02  0.45594000000E+02  0.51100000000E-03 0. -1.
         11   -1    0    0    0    0 -0.00000000000E+00 -0.00000000000E+00 -0.45593999997E+02  0.45594000000E+02  0.51100000000E-03 0.  1.
    9900012    2    1    2    0    0 -0.23548242776E+02 -0.15311084377E+02  0.15092039942E+02  0.59301973088E+02  0.50000052999E+02 0.  0.
        -12    1    1    2    0    0  0.23548242776E+02  0.15311084377E+02 -0.15092039942E+02  0.31886026912E+02  0.00000000000E+00 0.  1.
         11    1    3    3    0    0 -0.10426811148E+02  0.45043571694E+01 -0.81050306291E+01  0.13953463583E+02  0.51100000000E-03 0. -1.
        -11    1    3    3    0    0 -0.13094977343E+02  0.59279305296E+00 -0.16307964814E+01  0.13209441042E+02  0.51100000000E-03 0.  1.
         12    1    3    3    0    0 -0.26454285663E-01 -0.20408234599E+02  0.24827867052E+02  0.32139068463E+02  0.00000000000E+00 0. -1.
</event>
<event>
 7    1  0.3802554E-013  0.5930196E+02  0.7816164E-02  0.1266605E+00
        -11   -1    0    0    0    0  0.00000000000E+00  0.00000000000E+00  0.45593999997E+02  0.45594000000E+02  0.51100000000E-03 0. -1.
         11   -1    0    0    0    0 -0.00000000000E+00 -0.00000000000E+00 -0.45593999997E+02  0.45594000000E+02  0.51100000000E-03 0.  1.
    9900012    2    1    2    0    0 -0.14608731785E+02 -0.22065217910E+02  0.17788503607E+02  0.59301956872E+02  0.50000023425E+02 0.  0.
        -12    1    1    2    0    0  0.14608731785E+02  0.22065217910E+02 -0.17788503607E+02  0.31886043128E+02  0.00000000000E+00 0.  1.
         11    1    3    3    0    0  0.73175082101E+01 -0.63772798112E+01  0.88363588088E+01  0.13126189906E+02  0.51100000000E-03 0. -1.
        -11    1    3    3    0    0 -0.21237772391E+01 -0.88842676109E+01 -0.12967910103E+02  0.15862135211E+02  0.51100000000E-03 0.  1.
        -12    1    3    3    0    0 -0.19802462756E+02 -0.68036704878E+01  0.21920054901E+02  0.30313631755E+02  0.00000000000E+00 0.  1.
</event>
<event>
 7    1  0.3802554E-013  0.5930194E+02  0.7816164E-02  0.1266605E+00
        -11   -1    0    0    0    0  0.00000000000E+00  0.00000000000E+00  0.45593999997E+02  0.45594000000E+02  0.51100000000E-03 0. -1.
         11   -1    0    0    0    0 -0.00000000000E+00 -0.00000000000E+00 -0.45593999997E+02  0.45594000000E+02  0.51100000000E-03 0.  1.
    9900012    2    1    2    0    0 -0.18124883036E+02  0.19107730017E+02  0.17975094777E+02  0.59301940919E+02  0.49999994331E+02 0.  0.
        -12    1    1    2    0    0  0.18124883036E+02 -0.19107730017E+02 -0.17975094777E+02  0.31886059081E+02  0.00000000000E+00 0.  1.
         11    1    3    3    0    0 -0.84093217245E+01  0.10257221987E+02 -0.86501549508E+01  0.15835165793E+02  0.51100000000E-03 0. -1.
        -11    1    3    3    0    0 -0.41162966174E+01 -0.92833682228E+01  0.21547522847E+02  0.23820591188E+02  0.51100000000E-03 0.  1.
         12    1    3    3    0    0 -0.55992646937E+01  0.18133876253E+02  0.50777268806E+01  0.19646183939E+02  0.00000000000E+00 0. -1.
</event>
<event>
 7    1  0.3802554E-013  0.5930194E+02  0.7816164E-02  0.1266605E+00
        -11   -1    0    0    0    0  0.00000000000E+00  0.00000000000E+00  0.45593999997E+02  0.45594000000E+02  0.51100000000E-03 0. -1.
         11   -1    0    0    0    0 -0.00000000000E+00 -0.00000000000E+00 -0.45593999997E+02  0.45594000000E+02  0.51100000000E-03 0.  1.
    9900012    2    1    2    0    0  0.24109052348E+01 -0.31069472397E+02  0.67525159912E+01  0.59301936410E+02  0.49999986107E+02 0.  0.
        -12    1    1    2    0    0 -0.24109052348E+01  0.31069472397E+02 -0.67525159912E+01  0.31886063590E+02  0.00000000000E+00 0.  1.
         11    1    3    3    0    0 -0.73507355659E+01 -0.27861475321E+02  0.11475372004E+02  0.31015790871E+02  0.51100000000E-03 0. -1.
        -11    1    3    3    0    0  0.54084161444E+01 -0.14665733453E+02 -0.25269462389E+01  0.15834145397E+02  0.51100000000E-03 0.  1.
        -12    1    3    3    0    0  0.43532246564E+01  0.11457736378E+02 -0.21959097740E+01  0.12452000142E+02  0.00000000000E+00 0.  1.
</event>
<event>
 7    1  0.3802554E-013  0.5930184E+02  0.7816164E-02  0.1266605E+00
        -11   -1    0    0    0    0  0.00000000000E+00  0.00000000000E+00  0.45593999997E+02  0.45594000000E+02  0.51100000000E-03 0. -1.
         11   -1    0    0    0    0 -0.00000000000E+00 -0.00000000000E+00 -0.45593999997E+02  0.45594000000E+02  0.51100000000E-03 0.  1.
    9900012    2    1    2    0    0  0.38488129480E+01 -0.13694580327E+01  0.31623379545E+02  0.59301844536E+02  0.49999818551E+02 0.  0.
        -12    1    1    2    0    0 -0.38488129480E+01  0.13694580327E+01 -0.31623379545E+02  0.31886155464E+02  0.00000000000E+00 0.  1.
         11    1    3    3    0    0  0.64235086928E+01  0.43491482970E+01 -0.60545835858E+01  0.98404541305E+01  0.51100000000E-03 0. -1.
        -11    1    3    3    0    0 -0.14149895833E+01 -0.13055174845E+01 -0.56112599924E+01  0.59323528541E+01  0.51100000000E-03 0.  1.
         12    1    3    3    0    0 -0.11597061615E+01 -0.44130888452E+01  0.43289223123E+02  0.43529037551E+02  0.00000000000E+00 0. -1.
</event>
<event>
 7    1  0.3802554E-013  0.5930195E+02  0.7816164E-02  0.1266605E+00
        -11   -1    0    0    0    0  0.00000000000E+00  0.00000000000E+00  0.45593999997E+02  0.45594000000E+02  0.51100000000E-03 0.  1.
         11   -1    0    0    0    0 -0.00000000000E+00 -0.00000000000E+00 -0.45593999997E+02  0.45594000000E+02  0.51100000000E-03 0. -1.
    9900012    2    1    2    0    0  0.27334374263E+02 -0.14060192348E+02 -0.84772123747E+01  0.59301950466E+02  0.50000011742E+02 0.  0.
        -12    1    1    2    0    0 -0.27334374263E+02  0.14060192348E+02  0.84772123747E+01  0.31886049534E+02  0.00000000000E+00 0.  1.
         11    1    3    3    0    0  0.46017604141E+00 -0.29665784217E+01  0.36217526507E+01  0.47041940909E+01  0.51100000000E-03 0. -1.
        -11    1    3    3    0    0 -0.26003399899E+01 -0.73986108653E+01  0.13349254993E+02  0.15482371263E+02  0.51100000000E-03 0.  1.
         12    1    3    3    0    0  0.29474538212E+02 -0.36950030613E+01 -0.25448220018E+02  0.39115385113E+02  0.00000000000E+00 0. -1.
</event>
<event>
 7    1  0.3802554E-013  0.5930193E+02  0.7816164E-02  0.1266605E+00
        -11   -1    0    0    0    0  0.00000000000E+00  0.00000000000E+00  0.45593999997E+02  0.45594000000E+02  0.51100000000E-03 0.  1.
         11   -1    0    0    0    0 -0.00000000000E+00 -0.00000000000E+00 -0.45593999997E+02  0.45594000000E+02  0.51100000000E-03 0. -1.
    9900012    2    1    2    0    0 -0.20714715762E+01  0.21608359772E+02 -0.23356134339E+02  0.59301933799E+02  0.49999981346E+02 0.  0.
        -12    1    1    2    0    0  0.20714715762E+01 -0.21608359772E+02  0.23356134339E+02  0.31886066201E+02  0.00000000000E+00 0.  1.
         11    1    3    3    0    0 -0.69425689818E+00 -0.42619822711E+01  0.83082267794E+01  0.93633924408E+01  0.51100000000E-03 0. -1.
        -11    1    3    3    0    0 -0.62807434602E+01 -0.44140537676E+01 -0.87927982117E+01  0.11672399485E+02  0.51100000000E-03 0.  1.
         12    1    3    3    0    0  0.49035287822E+01  0.30284395810E+02 -0.22871562907E+02  0.38266141874E+02  0.00000000000E+00 0. -1.
</event>
<event>
 7    1  0.3802554E-013  0.5930196E+02  0.7816164E-02  0.1266605E+00
        -11   -1    0    0    0    0  0.00000000000E+00  0.00000000000E+00  0.45593999997E+02  0.45594000000E+02  0.51100000000E-03 0. -1.
         11   -1    0    0    0    0 -0.00000000000E+00 -0.00000000000E+00 -0.45593999997E+02  0.45594000000E+02  0.51100000000E-03 0.  1.
    9900012    2    1    2    0    0 -0.94399659554E+01  0.10222994486E+02  0.28689668554E+02  0.59301958301E+02  0.50000026031E+02 0.  0.
        -12    1    1    2    0    0  0.94399659554E+01 -0.10222994486E+02 -0.28689668554E+02  0.31886041699E+02  0.00000000000E+00 0.  1.
         11    1    3    3    0    0  0.38621868095E-01  0.36329137673E+01 -0.13390233146E+01  0.38720198588E+01  0.51100000000E-03 0. -1.
        -11    1    3    3    0    0 -0.10542094875E+02 -0.15360378042E+02  0.27628802633E+02  0.33323080787E+02  0.51100000000E-03 0.  1.
         12    1    3    3    0    0  0.10635070513E+01  0.21950458761E+02  0.23998892358E+01  0.22106857655E+02  0.00000000000E+00 0. -1.
</event>
<event>
 7    1  0.3802554E-013  0.5930200E+02  0.7816164E-02  0.1266605E+00
        -11   -1    0    0    0    0  0.00000000000E+00  0.00000000000E+00  0.45593999997E+02  0.45594000000E+02  0.51100000000E-03 0. -1.
         11   -1    0    0    0    0 -0.00000000000E+00 -0.00000000000E+00 -0.45593999997E+02  0.45594000000E+02  0.51100000000E-03 0.  1.
    9900012    2    1    2    0    0  0.62138186114E+01  0.10131978626E+02  0.29587980870E+02  0.59301997670E+02  0.50000097831E+02 0.  0.
        -12    1    1    2    0    0 -0.62138186114E+01 -0.10131978626E+02 -0.29587980870E+02  0.31886002330E+02  0.00000000000E+00 0.  1.
         11    1    3    3    0    0 -0.98918715541E+01 -0.85519612579E-01  0.11602620754E+02  0.15247204500E+02  0.51100000000E-03 0. -1.
        -11    1    3    3    0    0 -0.99186380949E+01  0.88640429911E+01  0.19172458530E+01  0.13439734809E+02  0.51100000000E-03 0.  1.
         12    1    3    3    0    0  0.26024328260E+02  0.13534552477E+01  0.16068114262E+02  0.30615058361E+02  0.00000000000E+00 0. -1.
</event>
<event>
 7    1  0.3802554E-013  0.5930193E+02  0.7816164E-02  0.1266605E+00
        -11   -1    0    0    0    0  0.00000000000E+00  0.00000000000E+00  0.45593999997E+02  0.45594000000E+02  0.51100000000E-03 0. -1.
         11   -1    0    0    0    0 -0.00000000000E+00 -0.00000000000E+00 -0.45593999997E+02  0.45594000000E+02  0.51100000000E-03 0.  1.
    9900012    2    1    2    0    0  0.31624286602E+02 -0.36363173494E+01 -0.18447563317E+01  0.59301930426E+02  0.49999975195E+02 0.  0.
        -12    1    1    2    0    0 -0.31624286602E+02  0.36363173494E+01  0.18447563317E+01  0.31886069574E+02  0.00000000000E+00 0.  1.
         11    1    3    3    0    0  0.15180347015E+02  0.14761109650E+02  0.49784732059E+01  0.21751287073E+02  0.51100000000E-03 0. -1.
        -11    1    3    3    0    0  0.36175383144E+01 -0.82349001053E+01  0.10428963968E+02  0.13771835495E+02  0.51100000000E-03 0.  1.
         12    1    3    3    0    0  0.12826401272E+02 -0.10162526894E+02 -0.17252193505E+02  0.23778807859E+02  0.00000000000E+00 0. -1.
</event>
<event>
 7    1  0.3802554E-013  0.5930193E+02  0.7816164E-02  0.1266605E+00
        -11   -1    0    0    0    0  0.00000000000E+00  0.00000000000E+00  0.45593999997E+02  0.45594000000E+02  0.51100000000E-03 0. -1.
         11   -1    0    0    0    0 -0.00000000000E+00 -0.00000000000E+00 -0.45593999997E+02  0.45594000000E+02  0.51100000000E-03 0.  1.
    9900012    2    1    2    0    0 -0.16985715150E+02 -0.26786058070E+02  0.32732082490E+01  0.59301932222E+02  0.49999978470E+02 0.  0.
        -12    1    1    2    0    0  0.16985715150E+02  0.26786058070E+02 -0.32732082490E+01  0.31886067778E+02  0.00000000000E+00 0.  1.
         11    1    3    3    0    0 -0.19282684897E+02 -0.13838776320E+02  0.26920379928E+01  0.23886831847E+02  0.51100000000E-03 0. -1.
        -11    1    3    3    0    0 -0.12925606014E+02 -0.14033916407E+02 -0.39732754393E+01  0.19488689503E+02  0.51100000000E-03 0.  1.
        -12    1    3    3    0    0  0.15222575761E+02  0.10866346573E+01  0.45544456955E+01  0.15926410872E+02  0.00000000000E+00 0.  1.
</event>
<event>
 7    1  0.3802554E-013  0.5930195E+02  0.7816164E-02  0.1266605E+00
        -11   -1    0    0    0    0  0.00000000000E+00  0.00000000000E+00  0.45593999997E+02  0.45594000000E+02  0.51100000000E-03 0. -1.
         11   -1    0    0    0    0 -0.00000000000E+00 -0.00000000000E+00 -0.45593999997E+02  0.45594000000E+02  0.51100000000E-03 0.  1.
    9900012    2    1    2    0    0  0.69439065021E+01  0.46294826577E+01  0.30774506881E+02  0.59301949430E+02  0.50000009852E+02 0.  0.
        -12    1    1    2    0    0 -0.69439065021E+01 -0.46294826577E+01 -0.30774506881E+02  0.31886050570E+02  0.00000000000E+00 0.  1.
         11    1    3    3    0    0  0.61290168151E+01 -0.67946502045E+01 -0.40138972165E+01  0.99921714180E+01  0.51100000000E-03 0. -1.
        -11    1    3    3    0    0  0.54833249206E+01 -0.10860409918E+02  0.11515440232E+02  0.16751737814E+02  0.51100000000E-03 0.  1.
         12    1    3    3    0    0 -0.46684352337E+01  0.22284542781E+02  0.23272963865E+02  0.32558040198E+02  0.00000000000E+00 0. -1.
</event>
<event>
 7    1  0.3802554E-013  0.5930202E+02  0.7816164E-02  0.1266605E+00
        -11   -1    0    0    0    0  0.00000000000E+00  0.00000000000E+00  0.45593999997E+02  0.45594000000E+02  0.51100000000E-03 0. -1.
         11   -1    0    0    0    0 -0.00000000000E+00 -0.00000000000E+00 -0.45593999997E+02  0.45594000000E+02  0.51100000000E-03 0.  1.
    9900012    2    1    2    0    0 -0.16875477087E+02  0.21782228258E+01  0.26966451119E+02  0.59302017695E+02  0.50000134351E+02 0.  0.
        -12    1    1    2    0    0  0.16875477087E+02 -0.21782228258E+01 -0.26966451119E+02  0.31885982305E+02  0.00000000000E+00 0.  1.
         11    1    3    3    0    0 -0.97322557777E+00  0.21445346614E+02  0.15663121587E+02  0.26574112168E+02  0.51100000000E-03 0. -1.
        -11    1    3    3    0    0 -0.10145578434E+00  0.23873944970E+01 -0.17015247667E+01  0.29334506223E+01  0.51100000000E-03 0.  1.
         12    1    3    3    0    0 -0.15800795725E+02 -0.21654518285E+02  0.13004854299E+02  0.29794454904E+02  0.00000000000E+00 0. -1.
</event>
<event>
 7    1  0.3802554E-013  0.5930196E+02  0.7816164E-02  0.1266605E+00
        -11   -1    0    0    0    0  0.00000000000E+00  0.00000000000E+00  0.45593999997E+02  0.45594000000E+02  0.51100000000E-03 0.  1.
         11   -1    0    0    0    0 -0.00000000000E+00 -0.00000000000E+00 -0.45593999997E+02  0.45594000000E+02  0.51100000000E-03 0. -1.
    9900012    2    1    2    0    0 -0.27417616158E+01  0.16827812284E+00 -0.31767499545E+02  0.59301959141E+02  0.50000027563E+02 0.  0.
        -12    1    1    2    0    0  0.27417616158E+01 -0.16827812284E+00  0.31767499545E+02  0.31886040859E+02  0.00000000000E+00 0.  1.
         11    1    3    3    0    0  0.10391603688E+01 -0.88043610465E+01  0.51946862017E+00  0.88806799074E+01  0.51100000000E-03 0.  1.
        -11    1    3    3    0    0 -0.14605380659E+02 -0.47993753097E+01 -0.20950005236E+01  0.15515804040E+02  0.51100000000E-03 0. -1.
         12    1    3    3    0    0  0.10824458675E+02  0.13772014479E+02 -0.30191967642E+02  0.34905475194E+02  0.00000000000E+00 0. -1.
</event>
<event>
 7    1  0.3802554E-013  0.5930203E+02  0.7816164E-02  0.1266604E+00
        -11   -1    0    0    0    0  0.00000000000E+00  0.00000000000E+00  0.45593999997E+02  0.45594000000E+02  0.51100000000E-03 0.  1.
         11   -1    0    0    0    0 -0.00000000000E+00 -0.00000000000E+00 -0.45593999997E+02  0.45594000000E+02  0.51100000000E-03 0. -1.
    9900012    2    1    2    0    0  0.22789210176E+02 -0.13410665918E+02 -0.17819112320E+02  0.59302034049E+02  0.50000164176E+02 0.  0.
        -12    1    1    2    0    0 -0.22789210176E+02  0.13410665918E+02  0.17819112320E+02  0.31885965951E+02  0.00000000000E+00 0.  1.
         11    1    3    3    0    0  0.20425595871E+02  0.36945137485E+01 -0.10031714429E+02  0.23054060232E+02  0.51100000000E-03 0.  1.
        -11    1    3    3    0    0 -0.11296496939E+02 -0.17470059497E+02 -0.87055686377E+01  0.22552178331E+02  0.51100000000E-03 0. -1.
         12    1    3    3    0    0  0.13660111243E+02  0.36487983047E+00  0.91817074691E+00  0.13695795486E+02  0.00000000000E+00 0. -1.
</event>
<event>
 7    1  0.3802554E-013  0.5930195E+02  0.7816164E-02  0.1266605E+00
        -11   -1    0    0    0    0  0.00000000000E+00  0.00000000000E+00  0.45593999997E+02  0.45594000000E+02  0.51100000000E-03 0.  1.
         11   -1    0    0    0    0 -0.00000000000E+00 -0.00000000000E+00 -0.45593999997E+02  0.45594000000E+02  0.51100000000E-03 0. -1.
    9900012    2    1    2    0    0  0.21149996751E+02 -0.38081559959E+01 -0.23556223247E+02  0.59301951824E+02  0.50000014218E+02 0.  0.
        -12    1    1    2    0    0 -0.21149996751E+02  0.38081559959E+01  0.23556223247E+02  0.31886048176E+02  0.00000000000E+00 0.  1.
         11    1    3    3    0    0  0.13993906622E+02 -0.22611149897E+02 -0.17528331599E+02  0.31848640962E+02  0.51100000000E-03 0. -1.
        -11    1    3    3    0    0  0.27132471734E+01 -0.14447388218E+01 -0.59800304231E+01  0.67238191982E+01  0.51100000000E-03 0.  1.
        -12    1    3    3    0    0  0.44428429552E+01  0.20247732723E+02 -0.47861224612E-01  0.20729491664E+02  0.00000000000E+00 0.  1.
</event>
<event>
 7    1  0.3802554E-013  0.5930195E+02  0.7816164E-02  0.1266605E+00
        -11   -1    0    0    0    0  0.00000000000E+00  0.00000000000E+00  0.45593999997E+02  0.45594000000E+02  0.51100000000E-03 0.  1.
         11   -1    0    0    0    0 -0.00000000000E+00 -0.00000000000E+00 -0.45593999997E+02  0.45594000000E+02  0.51100000000E-03 0. -1.
    9900012    2    1    2    0    0  0.26849200135E+02 -0.37795832507E+01 -0.16779603210E+02  0.59301954756E+02  0.50000019566E+02 0.  0.
        -12    1    1    2    0    0 -0.26849200135E+02  0.37795832507E+01  0.16779603210E+02  0.31886045244E+02  0.00000000000E+00 0.  1.
         11    1    3    3    0    0  0.74053992016E+01  0.42009651972E+01  0.14976927785E+01  0.86447168746E+01  0.51100000000E-03 0. -1.
        -11    1    3    3    0    0  0.13037368687E+02  0.14251566797E+02  0.26051479622E+01  0.19490175336E+02  0.51100000000E-03 0.  1.
        -12    1    3    3    0    0  0.64064322460E+01 -0.22232115245E+02 -0.20882443950E+02  0.31167062545E+02  0.00000000000E+00 0.  1.
</event>
<event>
 7    1  0.3802554E-013  0.5930194E+02  0.7816164E-02  0.1266605E+00
        -11   -1    0    0    0    0  0.00000000000E+00  0.00000000000E+00  0.45593999997E+02  0.45594000000E+02  0.51100000000E-03 0.  1.
         11   -1    0    0    0    0 -0.00000000000E+00 -0.00000000000E+00 -0.45593999997E+02  0.45594000000E+02  0.51100000000E-03 0. -1.
    9900012    2    1    2    0    0  0.45534479924E+01 -0.25708088324E+02  0.18305212997E+02  0.59301944792E+02  0.50000001393E+02 0.  0.
        -12    1    1    2    0    0 -0.45534479924E+01  0.25708088324E+02 -0.18305212997E+02  0.31886055208E+02  0.00000000000E+00 0.  1.
         11    1    3    3    0    0 -0.86073690821E+00  0.18732638712E+01  0.93400579045E+01  0.95648663073E+01  0.51100000000E-03 0.  1.
        -11    1    3    3    0    0 -0.71157235094E+01 -0.68032080745E+01 -0.13474433421E+02  0.16687645653E+02  0.51100000000E-03 0. -1.
         12    1    3    3    0    0  0.12529908410E+02 -0.20778144120E+02  0.22439588513E+02  0.33049432832E+02  0.00000000000E+00 0. -1.
</event>
<event>
 7    1  0.3802554E-013  0.5930197E+02  0.7816164E-02  0.1266605E+00
        -11   -1    0    0    0    0  0.00000000000E+00  0.00000000000E+00  0.45593999997E+02  0.45594000000E+02  0.51100000000E-03 0. -1.
         11   -1    0    0    0    0 -0.00000000000E+00 -0.00000000000E+00 -0.45593999997E+02  0.45594000000E+02  0.51100000000E-03 0.  1.
    9900012    2    1    2    0    0  0.60132220314E+01 -0.26468511820E+02  0.16732538182E+02  0.59301971850E+02  0.50000050742E+02 0.  0.
        -12    1    1    2    0    0 -0.60132220314E+01  0.26468511820E+02 -0.16732538182E+02  0.31886028150E+02  0.00000000000E+00 0.  1.
         11    1    3    3    0    0  0.21901929076E+02 -0.91409568878E+01  0.18223950582E+02  0.29922632991E+02  0.51100000000E-03 0. -1.
        -11    1    3    3    0    0 -0.54289397671E+01 -0.13446135941E+02  0.62598875498E+01  0.15794244241E+02  0.51100000000E-03 0.  1.
        -12    1    3    3    0    0 -0.10459767277E+02 -0.38814189913E+01 -0.77512999501E+01  0.13585094619E+02  0.00000000000E+00 0.  1.
</event>
<event>
 7    1  0.3802554E-013  0.5930195E+02  0.7816164E-02  0.1266605E+00
        -11   -1    0    0    0    0  0.00000000000E+00  0.00000000000E+00  0.45593999997E+02  0.45594000000E+02  0.51100000000E-03 0. -1.
         11   -1    0    0    0    0 -0.00000000000E+00 -0.00000000000E+00 -0.45593999997E+02  0.45594000000E+02  0.51100000000E-03 0.  1.
    9900012    2    1    2    0    0 -0.26371879472E+02  0.14845702194E+02  0.10042386599E+02  0.59301946166E+02  0.50000003899E+02 0.  0.
        -12    1    1    2    0    0  0.26371879472E+02 -0.14845702194E+02 -0.10042386599E+02  0.31886053834E+02  0.00000000000E+00 0.  1.
         11    1    3    3    0    0  0.75989138430E+01  0.76540034037E+01  0.11631387264E+02  0.15862421935E+02  0.51100000000E-03 0. -1.
        -11    1    3    3    0    0  0.14665864654E+01  0.50895531967E+01 -0.56070282927E+01  0.77131831392E+01  0.51100000000E-03 0.  1.
        -12    1    3    3    0    0 -0.35437379780E+02  0.21021455938E+01  0.40180276279E+01  0.35726341092E+02  0.00000000000E+00 0.  1.
</event>
<event>
 7    1  0.3802554E-013  0.5930193E+02  0.7816164E-02  0.1266605E+00
        -11   -1    0    0    0    0  0.00000000000E+00  0.00000000000E+00  0.45593999997E+02  0.45594000000E+02  0.51100000000E-03 0.  1.
         11   -1    0    0    0    0 -0.00000000000E+00 -0.00000000000E+00 -0.45593999997E+02  0.45594000000E+02  0.51100000000E-03 0. -1.
    9900012    2    1    2    0    0  0.14661368466E+02  0.10541097582E+02 -0.26280233637E+02  0.59301934963E+02  0.49999983468E+02 0.  0.
        -12    1    1    2    0    0 -0.14661368466E+02 -0.10541097582E+02  0.26280233637E+02  0.31886065037E+02  0.00000000000E+00 0.  1.
         11    1    3    3    0    0  0.21408558331E+01  0.36787228739E+00 -0.73752592314E+01  0.76885006802E+01  0.51100000000E-03 0. -1.
        -11    1    3    3    0    0 -0.14367347579E+02  0.12548568632E+02 -0.15151909528E+02  0.24361190730E+02  0.51100000000E-03 0.  1.
        -12    1    3    3    0    0  0.26887860211E+02 -0.23753433374E+01 -0.37530648778E+01  0.27252243553E+02  0.00000000000E+00 0.  1.
</event>
<event>
 7    1  0.3802554E-013  0.5930195E+02  0.7816164E-02  0.1266605E+00
        -11   -1    0    0    0    0  0.00000000000E+00  0.00000000000E+00  0.45593999997E+02  0.45594000000E+02  0.51100000000E-03 0.  1.
         11   -1    0    0    0    0 -0.00000000000E+00 -0.00000000000E+00 -0.45593999997E+02  0.45594000000E+02  0.51100000000E-03 0. -1.
    9900012    2    1    2    0    0  0.10022821148E+01  0.26144376005E+02  0.18226009557E+02  0.59301946772E+02  0.50000005004E+02 0.  0.
        -12    1    1    2    0    0 -0.10022821148E+01 -0.26144376005E+02 -0.18226009557E+02  0.31886053228E+02  0.00000000000E+00 0.  1.
         11    1    3    3    0    0  0.12909735622E+02  0.92760209795E+01  0.79318721004E+01  0.17765709508E+02  0.51100000000E-03 0. -1.
        -11    1    3    3    0    0 -0.10092694949E+02  0.20772282779E+02  0.20233769796E+02  0.30704326464E+02  0.51100000000E-03 0.  1.
         12    1    3    3    0    0 -0.18147585574E+01 -0.39039277536E+01 -0.99396323400E+01  0.10831910800E+02  0.00000000000E+00 0. -1.
</event>
<event>
 7    1  0.3802554E-013  0.5930197E+02  0.7816164E-02  0.1266605E+00
        -11   -1    0    0    0    0  0.00000000000E+00  0.00000000000E+00  0.45593999997E+02  0.45594000000E+02  0.51100000000E-03 0.  1.
         11   -1    0    0    0    0 -0.00000000000E+00 -0.00000000000E+00 -0.45593999997E+02  0.45594000000E+02  0.51100000000E-03 0. -1.
    9900012    2    1    2    0    0  0.21394649373E+02 -0.23256691720E+02 -0.42560812797E+01  0.59301969212E+02  0.50000045930E+02 0.  0.
        -12    1    1    2    0    0 -0.21394649373E+02  0.23256691720E+02  0.42560812797E+01  0.31886030788E+02  0.00000000000E+00 0.  1.
         11    1    3    3    0    0  0.49326481163E+01 -0.96507653603E+01  0.14328958325E+02  0.17966283322E+02  0.51100000000E-03 0. -1.
        -11    1    3    3    0    0  0.76567819291E+01 -0.76121403798E+01  0.75090554149E+01  0.13151308078E+02  0.51100000000E-03 0.  1.
         12    1    3    3    0    0  0.88052193280E+01 -0.59937859795E+01 -0.26094095019E+02  0.28184377812E+02  0.00000000000E+00 0. -1.
</event>
<event>
 7    1  0.3802554E-013  0.5930195E+02  0.7816164E-02  0.1266605E+00
        -11   -1    0    0    0    0  0.00000000000E+00  0.00000000000E+00  0.45593999997E+02  0.45594000000E+02  0.51100000000E-03 0.  1.
         11   -1    0    0    0    0 -0.00000000000E+00 -0.00000000000E+00 -0.45593999997E+02  0.45594000000E+02  0.51100000000E-03 0. -1.
    9900012    2    1    2    0    0 -0.15802110564E+02 -0.26457400380E+02  0.81865466927E+01  0.59301948505E+02  0.50000008166E+02 0.  0.
        -12    1    1    2    0    0  0.15802110564E+02  0.26457400380E+02 -0.81865466927E+01  0.31886051495E+02  0.00000000000E+00 0.  1.
         11    1    3    3    0    0 -0.21835313445E+01  0.21906472745E+01  0.12998658123E+01  0.33550552909E+01  0.51100000000E-03 0. -1.
        -11    1    3    3    0    0 -0.81776865390E+00 -0.14577931659E+02  0.25467458397E+02  0.29356026204E+02  0.51100000000E-03 0.  1.
         12    1    3    3    0    0 -0.12800810565E+02 -0.14070115996E+02 -0.18580777516E+02  0.26590867011E+02  0.00000000000E+00 0. -1.
</event>
<event>
 7    1  0.3802554E-013  0.5930193E+02  0.7816164E-02  0.1266605E+00
        -11   -1    0    0    0    0  0.00000000000E+00  0.00000000000E+00  0.45593999997E+02  0.45594000000E+02  0.51100000000E-03 0. -1.
         11   -1    0    0    0    0 -0.00000000000E+00 -0.00000000000E+00 -0.45593999997E+02  0.45594000000E+02  0.51100000000E-03 0.  1.
    9900012    2    1    2    0    0  0.15231158782E+02  0.98687781711E+01  0.26217180932E+02  0.59301928489E+02  0.49999971661E+02 0.  0.
        -12    1    1    2    0    0 -0.15231158782E+02 -0.98687781711E+01 -0.26217180932E+02  0.31886071511E+02  0.00000000000E+00 0.  1.
         11    1    3    3    0    0  0.30777467956E+01 -0.37673699006E+01  0.53106018611E+01  0.72019506867E+01  0.51100000000E-03 0. -1.
        -11    1    3    3    0    0  0.74724214349E+01 -0.10302245333E+02  0.24341211487E+02  0.27467579397E+02  0.51100000000E-03 0.  1.
        -12    1    3    3    0    0  0.46809905510E+01  0.23938393405E+02 -0.34346324163E+01  0.24632398405E+02  0.00000000000E+00 0.  1.
</event>
<event>
 7    1  0.3802554E-013  0.5930179E+02  0.7816164E-02  0.1266605E+00
        -11   -1    0    0    0    0  0.00000000000E+00  0.00000000000E+00  0.45593999997E+02  0.45594000000E+02  0.51100000000E-03 0. -1.
         11   -1    0    0    0    0 -0.00000000000E+00 -0.00000000000E+00 -0.45593999997E+02  0.45594000000E+02  0.51100000000E-03 0.  1.
    9900012    2    1    2    0    0 -0.20974132317E+02 -0.17815268475E+01  0.23950834572E+02  0.59301787603E+02  0.49999714718E+02 0.  0.
        -12    1    1    2    0    0  0.20974132317E+02  0.17815268475E+01 -0.23950834572E+02  0.31886212397E+02  0.00000000000E+00 0.  1.
         11    1    3    3    0    0 -0.10824645529E+02 -0.26186464520E+01 -0.90330689608E+00  0.11173460685E+02  0.51100000000E-03 0. -1.
        -11    1    3    3    0    0  0.12702242079E+02 -0.46716046112E+01 -0.51396279564E+00  0.13543817833E+02  0.51100000000E-03 0.  1.
         12    1    3    3    0    0 -0.22851728867E+02  0.55087242158E+01  0.25368104263E+02  0.34584509085E+02  0.00000000000E+00 0. -1.
</event>
<event>
 7    1  0.3802554E-013  0.5930216E+02  0.7816164E-02  0.1266604E+00
        -11   -1    0    0    0    0  0.00000000000E+00  0.00000000000E+00  0.45593999997E+02  0.45594000000E+02  0.51100000000E-03 0.  1.
         11   -1    0    0    0    0 -0.00000000000E+00 -0.00000000000E+00 -0.45593999997E+02  0.45594000000E+02  0.51100000000E-03 0. -1.
    9900012    2    1    2    0    0 -0.10985676983E+02  0.97400780320E+00 -0.29917765558E+02  0.59302164807E+02  0.50000402647E+02 0.  0.
        -12    1    1    2    0    0  0.10985676983E+02 -0.97400780320E+00  0.29917765558E+02  0.31885835193E+02  0.00000000000E+00 0.  1.
         11    1    3    3    0    0 -0.86784175792E+01 -0.12699393066E+02 -0.14305610135E+02  0.21005713450E+02  0.51100000000E-03 0. -1.
        -11    1    3    3    0    0 -0.10781643880E+02 -0.66480619005E+01 -0.80886825886E+01  0.15028884126E+02  0.51100000000E-03 0.  1.
        -12    1    3    3    0    0  0.84743844764E+01  0.20321462770E+02 -0.75234728342E+01  0.23267567231E+02  0.00000000000E+00 0.  1.
</event>
<event>
 7    1  0.3802554E-013  0.5930213E+02  0.7816164E-02  0.1266604E+00
        -11   -1    0    0    0    0  0.00000000000E+00  0.00000000000E+00  0.45593999997E+02  0.45594000000E+02  0.51100000000E-03 0.  1.
         11   -1    0    0    0    0 -0.00000000000E+00 -0.00000000000E+00 -0.45593999997E+02  0.45594000000E+02  0.51100000000E-03 0. -1.
    9900012    2    1    2    0    0 -0.59039771661E+01  0.16528154084E+02 -0.26620892373E+02  0.59302129547E+02  0.50000338342E+02 0.  0.
        -12    1    1    2    0    0  0.59039771661E+01 -0.16528154084E+02  0.26620892373E+02  0.31885870453E+02  0.00000000000E+00 0.  1.
         11    1    3    3    0    0  0.28723474819E+01  0.12567375919E+02 -0.15433051558E+02  0.20108913402E+02  0.51100000000E-03 0. -1.
        -11    1    3    3    0    0 -0.18065615310E+01 -0.56653597220E+01 -0.22205178890E+02  0.22987603946E+02  0.51100000000E-03 0.  1.
         12    1    3    3    0    0 -0.69697631169E+01  0.96261378867E+01  0.11017338075E+02  0.16205612200E+02  0.00000000000E+00 0. -1.
</event>
<event>
 7    1  0.3802554E-013  0.5930199E+02  0.7816164E-02  0.1266605E+00
        -11   -1    0    0    0    0  0.00000000000E+00  0.00000000000E+00  0.45593999997E+02  0.45594000000E+02  0.51100000000E-03 0. -1.
         11   -1    0    0    0    0 -0.00000000000E+00 -0.00000000000E+00 -0.45593999997E+02  0.45594000000E+02  0.51100000000E-03 0.  1.
    9900012    2    1    2    0    0  0.27810192783E+02  0.30129709942E+01  0.15304671281E+02  0.59301987708E+02  0.50000079663E+02 0.  0.
        -12    1    1    2    0    0 -0.27810192783E+02 -0.30129709942E+01 -0.15304671281E+02  0.31886012292E+02  0.00000000000E+00 0.  1.
         11    1    3    3    0    0  0.14585425924E+02 -0.25873085350E+01 -0.83415630992E+01  0.17000308528E+02  0.51100000000E-03 0.  1.
        -11    1    3    3    0    0  0.15363255620E+02 -0.10220400633E+02  0.85766285885E+01  0.20348090096E+02  0.51100000000E-03 0. -1.
         12    1    3    3    0    0 -0.21384887608E+01  0.15820680162E+02  0.15069605791E+02  0.21953589084E+02  0.00000000000E+00 0. -1.
</event>
<event>
 7    1  0.3802554E-013  0.5930194E+02  0.7816164E-02  0.1266605E+00
        -11   -1    0    0    0    0  0.00000000000E+00  0.00000000000E+00  0.45593999997E+02  0.45594000000E+02  0.51100000000E-03 0.  1.
         11   -1    0    0    0    0 -0.00000000000E+00 -0.00000000000E+00 -0.45593999997E+02  0.45594000000E+02  0.51100000000E-03 0. -1.
    9900012    2    1    2    0    0  0.86510770812E+01 -0.14549404236E+02 -0.27022111662E+02  0.59301940084E+02  0.49999992808E+02 0.  0.
        -12    1    1    2    0    0 -0.86510770812E+01  0.14549404236E+02  0.27022111662E+02  0.31886059916E+02  0.00000000000E+00 0.  1.
         11    1    3    3    0    0  0.18673539708E+02 -0.71315551889E+01 -0.11021313830E+02  0.22826071135E+02  0.51100000000E-03 0. -1.
        -11    1    3    3    0    0  0.84893530981E+01 -0.92765917293E+01 -0.10691286936E+01  0.12620115156E+02  0.51100000000E-03 0.  1.
        -12    1    3    3    0    0 -0.18511815725E+02  0.18587426827E+01 -0.14931669138E+02  0.23855753793E+02  0.00000000000E+00 0.  1.
</event>
<event>
 7    1  0.3802554E-013  0.5930193E+02  0.7816164E-02  0.1266605E+00
        -11   -1    0    0    0    0  0.00000000000E+00  0.00000000000E+00  0.45593999997E+02  0.45594000000E+02  0.51100000000E-03 0. -1.
         11   -1    0    0    0    0 -0.00000000000E+00 -0.00000000000E+00 -0.45593999997E+02  0.45594000000E+02  0.51100000000E-03 0.  1.
    9900012    2    1    2    0    0  0.81050755255E+01  0.26784285935E+02  0.15284996448E+02  0.59301931902E+02  0.49999977885E+02 0.  0.
        -12    1    1    2    0    0 -0.81050755255E+01 -0.26784285935E+02 -0.15284996448E+02  0.31886068098E+02  0.00000000000E+00 0.  1.
         11    1    3    3    0    0 -0.48396125597E+01  0.94589246910E+01 -0.25801559670E+00  0.10628249072E+02  0.51100000000E-03 0. -1.
        -11    1    3    3    0    0 -0.63031361200E+01  0.23697015455E+02  0.26903742751E+01  0.24668120731E+02  0.51100000000E-03 0.  1.
         12    1    3    3    0    0  0.19247824205E+02 -0.63716542103E+01  0.12852637770E+02  0.24005562098E+02  0.00000000000E+00 0. -1.
</event>
<event>
 7    1  0.3802554E-013  0.5930189E+02  0.7816164E-02  0.1266605E+00
        -11   -1    0    0    0    0  0.00000000000E+00  0.00000000000E+00  0.45593999997E+02  0.45594000000E+02  0.51100000000E-03 0.  1.
         11   -1    0    0    0    0 -0.00000000000E+00 -0.00000000000E+00 -0.45593999997E+02  0.45594000000E+02  0.51100000000E-03 0. -1.
    9900012    2    1    2    0    0  0.15756406325E+02  0.15191860056E+02 -0.23187652720E+02  0.59301887178E+02  0.49999896319E+02 0.  0.
        -12    1    1    2    0    0 -0.15756406325E+02 -0.15191860056E+02  0.23187652720E+02  0.31886112822E+02  0.00000000000E+00 0.  1.
         11    1    3    3    0    0 -0.10428420709E+02  0.27650351310E+01 -0.66065804715E+01  0.12650860981E+02  0.51100000000E-03 0. -1.
        -11    1    3    3    0    0  0.33843949474E+01 -0.41576454751E+01  0.77407363437E+01  0.94158984946E+01  0.51100000000E-03 0.  1.
         12    1    3    3    0    0  0.22800432087E+02  0.16584470400E+02 -0.24321808592E+02  0.37235127702E+02  0.00000000000E+00 0. -1.
</event>
<event>
 7    1  0.3802554E-013  0.5930195E+02  0.7816164E-02  0.1266605E+00
        -11   -1    0    0    0    0  0.00000000000E+00  0.00000000000E+00  0.45593999997E+02  0.45594000000E+02  0.51100000000E-03 0.  1.
         11   -1    0    0    0    0 -0.00000000000E+00 -0.00000000000E+00 -0.45593999997E+02  0.45594000000E+02  0.51100000000E-03 0. -1.
    9900012    2    1    2    0    0 -0.52562287128E+01  0.20749816142E+02 -0.23633394605E+02  0.59301950531E+02  0.50000011860E+02 0.  0.
        -12    1    1    2    0    0  0.52562287128E+01 -0.20749816142E+02  0.23633394605E+02  0.31886049469E+02  0.00000000000E+00 0.  1.
         11    1    3    3    0    0  0.18232869611E+02  0.13649897458E+02  0.17452995304E+01  0.22843014371E+02  0.51100000000E-03 0. -1.
        -11    1    3    3    0    0 -0.14457937747E+01  0.13348622695E+01  0.44810894941E+00  0.20181622356E+01  0.51100000000E-03 0.  1.
        -12    1    3    3    0    0 -0.22043304549E+02  0.57650564148E+01 -0.25826803084E+02  0.34440773924E+02  0.00000000000E+00 0.  1.
</event>
<event>
 7    1  0.3802554E-013  0.5930206E+02  0.7816164E-02  0.1266604E+00
        -11   -1    0    0    0    0  0.00000000000E+00  0.00000000000E+00  0.45593999997E+02  0.45594000000E+02  0.51100000000E-03 0. -1.
         11   -1    0    0    0    0 -0.00000000000E+00 -0.00000000000E+00 -0.45593999997E+02  0.45594000000E+02  0.51100000000E-03 0.  1.
    9900012    2    1    2    0    0  0.11314426209E+02  0.18654294056E+02  0.23253259082E+02  0.59302062895E+02  0.50000216784E+02 0.  0.
        -12    1    1    2    0    0 -0.11314426209E+02 -0.18654294056E+02 -0.23253259082E+02  0.31885937105E+02  0.00000000000E+00 0.  1.
         11    1    3    3    0    0 -0.54049198894E+01  0.51317430968E+01  0.55736678811E+01  0.93066492430E+01  0.51100000000E-03 0. -1.
        -11    1    3    3    0    0  0.86021814357E+01 -0.12923070599E+02  0.15981085605E+02  0.22279999474E+02  0.51100000000E-03 0.  1.
         12    1    3    3    0    0  0.81171646623E+01  0.26445621559E+02  0.16985055952E+01  0.27715414178E+02  0.00000000000E+00 0. -1.
</event>
<event>
 7    1  0.3802554E-013  0.5930196E+02  0.7816164E-02  0.1266605E+00
        -11   -1    0    0    0    0  0.00000000000E+00  0.00000000000E+00  0.45593999997E+02  0.45594000000E+02  0.51100000000E-03 0. -1.
         11   -1    0    0    0    0 -0.00000000000E+00 -0.00000000000E+00 -0.45593999997E+02  0.45594000000E+02  0.51100000000E-03 0.  1.
    9900012    2    1    2    0    0 -0.14918937475E+02 -0.26501874043E+02  0.95810036576E+01  0.59301958316E+02  0.50000026059E+02 0.  0.
        -12    1    1    2    0    0  0.14918937475E+02  0.26501874043E+02 -0.95810036576E+01  0.31886041684E+02  0.00000000000E+00 0.  1.
         11    1    3    3    0    0  0.51707208127E+01  0.95879858585E+01  0.93425834617E+01  0.14350947444E+02  0.51100000000E-03 0. -1.
        -11    1    3    3    0    0 -0.12866833106E+02 -0.17957759431E+02  0.86146888444E+01  0.23711798374E+02  0.51100000000E-03 0.  1.
        -12    1    3    3    0    0 -0.72228251816E+01 -0.18132100470E+02 -0.83762686485E+01  0.21239212498E+02  0.00000000000E+00 0.  1.
</event>
<event>
 7    1  0.3802554E-013  0.5930194E+02  0.7816164E-02  0.1266605E+00
        -11   -1    0    0    0    0  0.00000000000E+00  0.00000000000E+00  0.45593999997E+02  0.45594000000E+02  0.51100000000E-03 0.  1.
         11   -1    0    0    0    0 -0.00000000000E+00 -0.00000000000E+00 -0.45593999997E+02  0.45594000000E+02  0.51100000000E-03 0. -1.
    9900012    2    1    2    0    0 -0.15686756179E+01 -0.26181850973E+02 -0.18132040147E+02  0.59301938101E+02  0.49999989191E+02 0.  0.
        -12    1    1    2    0    0  0.15686756179E+01  0.26181850973E+02  0.18132040147E+02  0.31886061899E+02  0.00000000000E+00 0.  1.
         11    1    3    3    0    0  0.69015412372E+01 -0.54532087233E+01 -0.47873144908E+01  0.10014346565E+02  0.51100000000E-03 0. -1.
        -11    1    3    3    0    0  0.34102096750E+01 -0.47704724289E+01  0.14168985227E+02  0.15334506182E+02  0.51100000000E-03 0.  1.
        -12    1    3    3    0    0 -0.11880426530E+02 -0.15958169820E+02 -0.27513710883E+02  0.33953085354E+02  0.00000000000E+00 0.  1.
</event>
<event>
 7    1  0.3802554E-013  0.5930196E+02  0.7816164E-02  0.1266605E+00
        -11   -1    0    0    0    0  0.00000000000E+00  0.00000000000E+00  0.45593999997E+02  0.45594000000E+02  0.51100000000E-03 0. -1.
         11   -1    0    0    0    0 -0.00000000000E+00 -0.00000000000E+00 -0.45593999997E+02  0.45594000000E+02  0.51100000000E-03 0.  1.
    9900012    2    1    2    0    0  0.26585792734E+02  0.16472461556E+02  0.62107210559E+01  0.59301961973E+02  0.50000032728E+02 0.  0.
        -12    1    1    2    0    0 -0.26585792734E+02 -0.16472461556E+02 -0.62107210559E+01  0.31886038027E+02  0.00000000000E+00 0.  1.
         11    1    3    3    0    0 -0.64337532257E-01  0.11897468987E+02 -0.11509906250E+02  0.16553907387E+02  0.51100000000E-03 0. -1.
        -11    1    3    3    0    0 -0.32692509519E+01  0.54142638960E+00 -0.42649195568E+01  0.54009891139E+01  0.51100000000E-03 0.  1.
         12    1    3    3    0    0  0.29919381218E+02  0.40335661792E+01  0.21985546862E+02  0.37347065473E+02  0.00000000000E+00 0. -1.
</event>
<event>
 7    1  0.3802554E-013  0.5930196E+02  0.7816164E-02  0.1266605E+00
        -11   -1    0    0    0    0  0.00000000000E+00  0.00000000000E+00  0.45593999997E+02  0.45594000000E+02  0.51100000000E-03 0.  1.
         11   -1    0    0    0    0 -0.00000000000E+00 -0.00000000000E+00 -0.45593999997E+02  0.45594000000E+02  0.51100000000E-03 0. -1.
    9900012    2    1    2    0    0  0.99026226006E+01 -0.60712122211E+01 -0.29695085751E+02  0.59301958070E+02  0.50000025610E+02 0.  0.
        -12    1    1    2    0    0 -0.99026226006E+01  0.60712122211E+01  0.29695085751E+02  0.31886041930E+02  0.00000000000E+00 0.  1.
         11    1    3    3    0    0  0.20117658529E+01  0.12620217989E+01 -0.70348385624E+01  0.74248807888E+01  0.51100000000E-03 0. -1.
        -11    1    3    3    0    0 -0.17330328886E+02  0.47029206358E+01 -0.43808670178E+01  0.18483770121E+02  0.51100000000E-03 0.  1.
         12    1    3    3    0    0  0.25221185634E+02 -0.12036154656E+02 -0.18279380171E+02  0.33393307160E+02  0.00000000000E+00 0. -1.
</event>
<event>
 7    1  0.3802554E-013  0.5930192E+02  0.7816164E-02  0.1266605E+00
        -11   -1    0    0    0    0  0.00000000000E+00  0.00000000000E+00  0.45593999997E+02  0.45594000000E+02  0.51100000000E-03 0. -1.
         11   -1    0    0    0    0 -0.00000000000E+00 -0.00000000000E+00 -0.45593999997E+02  0.45594000000E+02  0.51100000000E-03 0.  1.
    9900012    2    1    2    0    0  0.44732425465E+01  0.74408418561E+01  0.30681358592E+02  0.59301924803E+02  0.49999964939E+02 0.  0.
        -12    1    1    2    0    0 -0.44732425465E+01 -0.74408418561E+01 -0.30681358592E+02  0.31886075197E+02  0.00000000000E+00 0.  1.
         11    1    3    3    0    0  0.93255718708E+00  0.62390287217E+01  0.27414902840E+02  0.28131335558E+02  0.51100000000E-03 0. -1.
        -11    1    3    3    0    0  0.12848766874E+02 -0.29944580000E+01  0.11924628919E+02  0.17783541942E+02  0.51100000000E-03 0.  1.
        -12    1    3    3    0    0 -0.93080815143E+01  0.41962711344E+01 -0.86581731669E+01  0.13387047303E+02  0.00000000000E+00 0.  1.
</event>
<event>
 7    1  0.3802554E-013  0.5930198E+02  0.7816164E-02  0.1266605E+00
        -11   -1    0    0    0    0  0.00000000000E+00  0.00000000000E+00  0.45593999997E+02  0.45594000000E+02  0.51100000000E-03 0. -1.
         11   -1    0    0    0    0 -0.00000000000E+00 -0.00000000000E+00 -0.45593999997E+02  0.45594000000E+02  0.51100000000E-03 0.  1.
    9900012    2    1    2    0    0 -0.11475744002E+02 -0.87502820812E+01  0.28433396915E+02  0.59301981167E+02  0.50000067732E+02 0.  0.
        -12    1    1    2    0    0  0.11475744002E+02  0.87502820812E+01 -0.28433396915E+02  0.31886018833E+02  0.00000000000E+00 0.  1.
         11    1    3    3    0    0  0.11702647711E+02 -0.24970504457E+01  0.31756191254E+02  0.33935864622E+02  0.51100000000E-03 0. -1.
        -11    1    3    3    0    0 -0.14047900518E+00 -0.16844922726E+00 -0.14480355646E+01  0.14645534304E+01  0.51100000000E-03 0.  1.
        -12    1    3    3    0    0 -0.23037912707E+02 -0.60847824082E+01 -0.18747587742E+01  0.23901563115E+02  0.00000000000E+00 0.  1.
</event>
<event>
 7    1  0.3802554E-013  0.5930194E+02  0.7816164E-02  0.1266605E+00
        -11   -1    0    0    0    0  0.00000000000E+00  0.00000000000E+00  0.45593999997E+02  0.45594000000E+02  0.51100000000E-03 0.  1.
         11   -1    0    0    0    0 -0.00000000000E+00 -0.00000000000E+00 -0.45593999997E+02  0.45594000000E+02  0.51100000000E-03 0. -1.
    9900012    2    1    2    0    0  0.20751358250E+02  0.22808494473E+02  0.81163057132E+01  0.59301941797E+02  0.49999995931E+02 0.  0.
        -12    1    1    2    0    0 -0.20751358250E+02 -0.22808494473E+02 -0.81163057132E+01  0.31886058203E+02  0.00000000000E+00 0.  1.
         11    1    3    3    0    0 -0.31587074768E+01  0.70921072283E+01 -0.46825566521E+01  0.90665183462E+01  0.51100000000E-03 0. -1.
        -11    1    3    3    0    0 -0.26777944729E+01  0.19276316200E+02 -0.20596170456E+01  0.19570104040E+02  0.51100000000E-03 0.  1.
         12    1    3    3    0    0  0.26587860199E+02 -0.35599289556E+01  0.14858479411E+02  0.30665319411E+02  0.00000000000E+00 0. -1.
</event>
<event>
 7    1  0.3802554E-013  0.5930195E+02  0.7816164E-02  0.1266605E+00
        -11   -1    0    0    0    0  0.00000000000E+00  0.00000000000E+00  0.45593999997E+02  0.45594000000E+02  0.51100000000E-03 0. -1.
         11   -1    0    0    0    0 -0.00000000000E+00 -0.00000000000E+00 -0.45593999997E+02  0.45594000000E+02  0.51100000000E-03 0.  1.
    9900012    2    1    2    0    0  0.77967516910E+01  0.14293961786E+01  0.30885076729E+02  0.59301945448E+02  0.50000002590E+02 0.  0.
        -12    1    1    2    0    0 -0.77967516910E+01 -0.14293961786E+01 -0.30885076729E+02  0.31886054552E+02  0.00000000000E+00 0.  1.
         11    1    3    3    0    0  0.55334388535E+01 -0.54458311119E+01 -0.12045899338E+01  0.78566569999E+01  0.51100000000E-03 0. -1.
        -11    1    3    3    0    0  0.20522352535E+02 -0.47301223368E+00  0.16486034363E+02  0.26328312202E+02  0.51100000000E-03 0.  1.
         12    1    3    3    0    0 -0.18259039698E+02  0.73482395242E+01  0.15603632299E+02  0.25116976246E+02  0.00000000000E+00 0. -1.
</event>
<event>
 7    1  0.3802554E-013  0.5930194E+02  0.7816164E-02  0.1266605E+00
        -11   -1    0    0    0    0  0.00000000000E+00  0.00000000000E+00  0.45593999997E+02  0.45594000000E+02  0.51100000000E-03 0.  1.
         11   -1    0    0    0    0 -0.00000000000E+00 -0.00000000000E+00 -0.45593999997E+02  0.45594000000E+02  0.51100000000E-03 0. -1.
    9900012    2    1    2    0    0 -0.36823565521E+01  0.10088878110E+02 -0.30022916064E+02  0.59301941914E+02  0.49999996145E+02 0.  0.
        -12    1    1    2    0    0  0.36823565521E+01 -0.10088878110E+02  0.30022916064E+02  0.31886058086E+02  0.00000000000E+00 0.  1.
         11    1    3    3    0    0  0.11879597306E+02  0.19854756512E+02 -0.76395129485E+01  0.24365925935E+02  0.51100000000E-03 0. -1.
        -11    1    3    3    0    0  0.23662839516E+01 -0.22156846364E+01  0.19496163994E+01  0.37827982385E+01  0.51100000000E-03 0.  1.
        -12    1    3    3    0    0 -0.17928237810E+02 -0.75501937656E+01 -0.24333019515E+02  0.31153217740E+02  0.00000000000E+00 0.  1.
</event>
<event>
 7    1  0.3802554E-013  0.5930193E+02  0.7816164E-02  0.1266605E+00
        -11   -1    0    0    0    0  0.00000000000E+00  0.00000000000E+00  0.45593999997E+02  0.45594000000E+02  0.51100000000E-03 0. -1.
         11   -1    0    0    0    0 -0.00000000000E+00 -0.00000000000E+00 -0.45593999997E+02  0.45594000000E+02  0.51100000000E-03 0.  1.
    9900012    2    1    2    0    0 -0.83915943479E+01 -0.26999720842E+02  0.14741708384E+02  0.59301925495E+02  0.49999966201E+02 0.  0.
        -12    1    1    2    0    0  0.83915943479E+01  0.26999720842E+02 -0.14741708384E+02  0.31886074505E+02  0.00000000000E+00 0.  1.
         11    1    3    3    0    0  0.23753152965E+01 -0.17609320941E+01  0.78372308378E+01  0.83764665620E+01  0.51100000000E-03 0. -1.
        -11    1    3    3    0    0 -0.57135282657E+01  0.77184316849E+00  0.20393349631E+02  0.21192660441E+02  0.51100000000E-03 0.  1.
         12    1    3    3    0    0 -0.50533813787E+01 -0.26010631916E+02 -0.13488872085E+02  0.29732798492E+02  0.00000000000E+00 0. -1.
</event>
<event>
 7    1  0.3802554E-013  0.5930194E+02  0.7816164E-02  0.1266605E+00
        -11   -1    0    0    0    0  0.00000000000E+00  0.00000000000E+00  0.45593999997E+02  0.45594000000E+02  0.51100000000E-03 0.  1.
         11   -1    0    0    0    0 -0.00000000000E+00 -0.00000000000E+00 -0.45593999997E+02  0.45594000000E+02  0.51100000000E-03 0. -1.
    9900012    2    1    2    0    0 -0.21884409098E+02  0.81968239840E+01 -0.21693447393E+02  0.59301938079E+02  0.49999989152E+02 0.  0.
        -12    1    1    2    0    0  0.21884409098E+02 -0.81968239840E+01  0.21693447393E+02  0.31886061921E+02  0.00000000000E+00 0.  1.
         11    1    3    3    0    0  0.26647829757E+01 -0.21485130831E+01  0.51605253006E+01  0.61925922210E+01  0.51100000000E-03 0. -1.
        -11    1    3    3    0    0  0.47430229866E+00  0.54789109968E+01  0.81345007647E+01  0.98190392266E+01  0.51100000000E-03 0.  1.
         12    1    3    3    0    0 -0.25023494373E+02  0.48664260703E+01 -0.34988473459E+02  0.43290306632E+02  0.00000000000E+00 0. -1.
</event>
<event>
 7    1  0.3802554E-013  0.5930193E+02  0.7816164E-02  0.1266605E+00
        -11   -1    0    0    0    0  0.00000000000E+00  0.00000000000E+00  0.45593999997E+02  0.45594000000E+02  0.51100000000E-03 0. -1.
         11   -1    0    0    0    0 -0.00000000000E+00 -0.00000000000E+00 -0.45593999997E+02  0.45594000000E+02  0.51100000000E-03 0.  1.
    9900012    2    1    2    0    0 -0.24827889113E+02  0.49725192614E+01  0.19379664617E+02  0.59301930529E+02  0.49999975382E+02 0.  0.
        -12    1    1    2    0    0  0.24827889113E+02 -0.49725192614E+01 -0.19379664617E+02  0.31886069471E+02  0.00000000000E+00 0.  1.
         11    1    3    3    0    0 -0.27217940541E+01 -0.40776744567E+00 -0.16447394493E+01  0.32061823529E+01  0.51100000000E-03 0. -1.
        -11    1    3    3    0    0 -0.30095855808E+02 -0.68670740790E+01  0.47315774314E+00  0.30872983687E+02  0.51100000000E-03 0.  1.
         12    1    3    3    0    0  0.79897607489E+01  0.12247360786E+02  0.20551246324E+02  0.25222764490E+02  0.00000000000E+00 0. -1.
</event>
<event>
 7    1  0.3802554E-013  0.5930195E+02  0.7816164E-02  0.1266605E+00
        -11   -1    0    0    0    0  0.00000000000E+00  0.00000000000E+00  0.45593999997E+02  0.45594000000E+02  0.51100000000E-03 0.  1.
         11   -1    0    0    0    0 -0.00000000000E+00 -0.00000000000E+00 -0.45593999997E+02  0.45594000000E+02  0.51100000000E-03 0. -1.
    9900012    2    1    2    0    0 -0.11801263938E+02 -0.19287771000E+02 -0.22481820642E+02  0.59301949757E+02  0.50000010450E+02 0.  0.
        -12    1    1    2    0    0  0.11801263938E+02  0.19287771000E+02  0.22481820642E+02  0.31886050243E+02  0.00000000000E+00 0.  1.
         11    1    3    3    0    0 -0.58788282119E+01  0.12459381686E+00 -0.42002649138E+01  0.72262279490E+01  0.51100000000E-03 0. -1.
        -11    1    3    3    0    0 -0.20442677165E+02  0.30880635113E+01 -0.20842258469E+01  0.20779393243E+02  0.51100000000E-03 0.  1.
         12    1    3    3    0    0  0.14520241438E+02 -0.22500428328E+02 -0.16197329882E+02  0.31296328565E+02  0.00000000000E+00 0. -1.
</event>
<event>
 7    1  0.3802554E-013  0.5930198E+02  0.7816164E-02  0.1266605E+00
        -11   -1    0    0    0    0  0.00000000000E+00  0.00000000000E+00  0.45593999997E+02  0.45594000000E+02  0.51100000000E-03 0.  1.
         11   -1    0    0    0    0 -0.00000000000E+00 -0.00000000000E+00 -0.45593999997E+02  0.45594000000E+02  0.51100000000E-03 0. -1.
    9900012    2    1    2    0    0 -0.12363729588E+02 -0.27147697178E+02 -0.11263162539E+02  0.59301982661E+02  0.50000070457E+02 0.  0.
        -12    1    1    2    0    0  0.12363729588E+02  0.27147697178E+02  0.11263162539E+02  0.31886017339E+02  0.00000000000E+00 0.  1.
         11    1    3    3    0    0 -0.56462546192E+01 -0.22150770050E+02 -0.34338754368E+01  0.23115542516E+02  0.51100000000E-03 0.  1.
        -11    1    3    3    0    0 -0.19333841235E+02  0.37802721882E+01 -0.22156969135E+01  0.19824156673E+02  0.51100000000E-03 0. -1.
        -12    1    3    3    0    0  0.12616366266E+02 -0.87771993160E+01 -0.56135901884E+01  0.16362283471E+02  0.00000000000E+00 0.  1.
</event>
<event>
 7    1  0.3802554E-013  0.5930195E+02  0.7816164E-02  0.1266605E+00
        -11   -1    0    0    0    0  0.00000000000E+00  0.00000000000E+00  0.45593999997E+02  0.45594000000E+02  0.51100000000E-03 0. -1.
         11   -1    0    0    0    0 -0.00000000000E+00 -0.00000000000E+00 -0.45593999997E+02  0.45594000000E+02  0.51100000000E-03 0.  1.
    9900012    2    1    2    0    0  0.39461571585E+01  0.25888984864E+02  0.18190889966E+02  0.59301950207E+02  0.50000011269E+02 0.  0.
        -12    1    1    2    0    0 -0.39461571585E+01 -0.25888984864E+02 -0.18190889966E+02  0.31886049793E+02  0.00000000000E+00 0.  1.
         11    1    3    3    0    0  0.10351541206E+02  0.22796131343E+02  0.71830652096E+01  0.26046390068E+02  0.51100000000E-03 0. -1.
        -11    1    3    3    0    0 -0.10870632978E+02  0.15047430306E+02  0.74982180769E+01  0.20020466896E+02  0.51100000000E-03 0.  1.
         12    1    3    3    0    0  0.44652489304E+01 -0.11954576784E+02  0.35096066799E+01  0.13235093243E+02  0.00000000000E+00 0. -1.
</event>
<event>
 7    1  0.3802554E-013  0.5930161E+02  0.7816164E-02  0.1266606E+00
        -11   -1    0    0    0    0  0.00000000000E+00  0.00000000000E+00  0.45593999997E+02  0.45594000000E+02  0.51100000000E-03 0.  1.
         11   -1    0    0    0    0 -0.00000000000E+00 -0.00000000000E+00 -0.45593999997E+02  0.45594000000E+02  0.51100000000E-03 0. -1.
    9900012    2    1    2    0    0 -0.15015668117E+01 -0.14512921815E+02 -0.28352461050E+02  0.59301613405E+02  0.49999397021E+02 0.  0.
        -12    1    1    2    0    0  0.15015668117E+01  0.14512921815E+02  0.28352461050E+02  0.31886386595E+02  0.00000000000E+00 0.  1.
         11    1    3    3    0    0 -0.11273970979E+02  0.97570838638E+01 -0.44505451016E+01  0.15559899072E+02  0.51100000000E-03 0. -1.
        -11    1    3    3    0    0 -0.58124219977E+01  0.15134774269E+01 -0.14791574920E+01  0.61856907899E+01  0.51100000000E-03 0.  1.
        -12    1    3    3    0    0  0.15584826165E+02 -0.25783483105E+02 -0.22422758456E+02  0.37556023544E+02  0.00000000000E+00 0.  1.
</event>
<event>
 7    1  0.3802554E-013  0.5930193E+02  0.7816164E-02  0.1266605E+00
        -11   -1    0    0    0    0  0.00000000000E+00  0.00000000000E+00  0.45593999997E+02  0.45594000000E+02  0.51100000000E-03 0. -1.
         11   -1    0    0    0    0 -0.00000000000E+00 -0.00000000000E+00 -0.45593999997E+02  0.45594000000E+02  0.51100000000E-03 0.  1.
    9900012    2    1    2    0    0 -0.16745835101E+02  0.27093426924E+02  0.14981603193E+01  0.59301933136E+02  0.49999980136E+02 0.  0.
        -12    1    1    2    0    0  0.16745835101E+02 -0.27093426924E+02 -0.14981603193E+01  0.31886066864E+02  0.00000000000E+00 0.  1.
         11    1    3    3    0    0 -0.21365246408E+02  0.16547400908E+02  0.12303686818E+02  0.29692944287E+02  0.51100000000E-03 0. -1.
        -11    1    3    3    0    0 -0.65601328330E+01  0.56234767451E+01  0.47266593029E+01  0.98488650065E+01  0.51100000000E-03 0.  1.
        -12    1    3    3    0    0  0.11179544140E+02  0.49225492708E+01 -0.15532185801E+02  0.19760123842E+02  0.00000000000E+00 0.  1.
</event>
<event>
 7    1  0.3802554E-013  0.5930194E+02  0.7816164E-02  0.1266605E+00
        -11   -1    0    0    0    0  0.00000000000E+00  0.00000000000E+00  0.45593999997E+02  0.45594000000E+02  0.51100000000E-03 0.  1.
         11   -1    0    0    0    0 -0.00000000000E+00 -0.00000000000E+00 -0.45593999997E+02  0.45594000000E+02  0.51100000000E-03 0. -1.
    9900012    2    1    2    0    0  0.94238039102E+01  0.29084490023E+02  0.90556800905E+01  0.59301937497E+02  0.49999988090E+02 0.  0.
        -12    1    1    2    0    0 -0.94238039102E+01 -0.29084490023E+02 -0.90556800905E+01  0.31886062503E+02  0.00000000000E+00 0.  1.
         11    1    3    3    0    0  0.18518062866E+02  0.28831152903E+02  0.18447538921E+02  0.38916137045E+02  0.51100000000E-03 0.  1.
        -11    1    3    3    0    0 -0.11102633516E+02  0.82465145806E-01 -0.33566864087E+00  0.11108012657E+02  0.51100000000E-03 0. -1.
        -12    1    3    3    0    0  0.20083745605E+01  0.17087197428E+00 -0.90561901896E+01  0.92777877943E+01  0.00000000000E+00 0.  1.
</event>
<event>
 7    1  0.3802554E-013  0.5930190E+02  0.7816164E-02  0.1266605E+00
        -11   -1    0    0    0    0  0.00000000000E+00  0.00000000000E+00  0.45593999997E+02  0.45594000000E+02  0.51100000000E-03 0.  1.
         11   -1    0    0    0    0 -0.00000000000E+00 -0.00000000000E+00 -0.45593999997E+02  0.45594000000E+02  0.51100000000E-03 0. -1.
    9900012    2    1    2    0    0 -0.12040919218E+02 -0.29303004723E+02 -0.36157352836E+01  0.59301900159E+02  0.49999919994E+02 0.  0.
        -12    1    1    2    0    0  0.12040919218E+02  0.29303004723E+02  0.36157352836E+01  0.31886099841E+02  0.00000000000E+00 0.  1.
         11    1    3    3    0    0 -0.22607486822E+02 -0.65902198210E+01 -0.26527848785E+01  0.23697399131E+02  0.51100000000E-03 0. -1.
        -11    1    3    3    0    0  0.25504733083E+01  0.53757458132E+00 -0.92828757291E+01  0.96418713220E+01  0.51100000000E-03 0.  1.
         12    1    3    3    0    0  0.80160942960E+01 -0.23250359484E+02  0.83199253240E+01  0.25962629706E+02  0.00000000000E+00 0. -1.
</event>
<event>
 7    1  0.3802554E-013  0.5930173E+02  0.7816164E-02  0.1266605E+00
        -11   -1    0    0    0    0  0.00000000000E+00  0.00000000000E+00  0.45593999997E+02  0.45594000000E+02  0.51100000000E-03 0. -1.
         11   -1    0    0    0    0 -0.00000000000E+00 -0.00000000000E+00 -0.45593999997E+02  0.45594000000E+02  0.51100000000E-03 0.  1.
    9900012    2    1    2    0    0 -0.23755543075E+02  0.12681864180E+02  0.17075671645E+02  0.59301732298E+02  0.49999613854E+02 0.  0.
        -12    1    1    2    0    0  0.23755543075E+02 -0.12681864180E+02 -0.17075671645E+02  0.31886267702E+02  0.00000000000E+00 0.  1.
         11    1    3    3    0    0 -0.11649415252E+02  0.13717379263E+02  0.23101184141E+02  0.29283785249E+02  0.51100000000E-03 0. -1.
        -11    1    3    3    0    0  0.78360310843E+01 -0.94439834605E+00  0.25720156447E+01  0.83012370239E+01  0.51100000000E-03 0.  1.
        -12    1    3    3    0    0 -0.19942158908E+02 -0.91116736892E-01 -0.85975281410E+01  0.21716710025E+02  0.00000000000E+00 0.  1.
</event>
<event>
 7    1  0.3802554E-013  0.5930195E+02  0.7816164E-02  0.1266605E+00
        -11   -1    0    0    0    0  0.00000000000E+00  0.00000000000E+00  0.45593999997E+02  0.45594000000E+02  0.51100000000E-03 0. -1.
         11   -1    0    0    0    0 -0.00000000000E+00 -0.00000000000E+00 -0.45593999997E+02  0.45594000000E+02  0.51100000000E-03 0.  1.
    9900012    2    1    2    0    0 -0.78943498426E+01 -0.27153749636E+02  0.14733400031E+02  0.59301953597E+02  0.50000017452E+02 0.  0.
        -12    1    1    2    0    0  0.78943498426E+01  0.27153749636E+02 -0.14733400031E+02  0.31886046403E+02  0.00000000000E+00 0.  1.
         11    1    3    3    0    0  0.22151971873E+01 -0.30325866231E+01  0.10252048288E+02  0.10918249611E+02  0.51100000000E-03 0. -1.
        -11    1    3    3    0    0  0.12110278356E+02  0.36018618590E+01  0.16606510351E+01  0.12743234002E+02  0.51100000000E-03 0.  1.
        -12    1    3    3    0    0 -0.22219825386E+02 -0.27723024872E+02  0.28207007086E+01  0.35640469984E+02  0.00000000000E+00 0.  1.
</event>
<event>
 7    1  0.3802554E-013  0.5930196E+02  0.7816164E-02  0.1266605E+00
        -11   -1    0    0    0    0  0.00000000000E+00  0.00000000000E+00  0.45593999997E+02  0.45594000000E+02  0.51100000000E-03 0.  1.
         11   -1    0    0    0    0 -0.00000000000E+00 -0.00000000000E+00 -0.45593999997E+02  0.45594000000E+02  0.51100000000E-03 0. -1.
    9900012    2    1    2    0    0  0.17552545264E+02  0.14391515985E+02 -0.22394468515E+02  0.59301956068E+02  0.50000021958E+02 0.  0.
        -12    1    1    2    0    0 -0.17552545264E+02 -0.14391515985E+02  0.22394468515E+02  0.31886043932E+02  0.00000000000E+00 0.  1.
         11    1    3    3    0    0  0.15308974918E+02  0.10679401621E+02 -0.24599925463E+02  0.30879939525E+02  0.51100000000E-03 0.  1.
        -11    1    3    3    0    0  0.97836071638E+00  0.85518298633E+01 -0.11193113121E+02  0.14120083757E+02  0.51100000000E-03 0. -1.
        -12    1    3    3    0    0  0.12652096293E+01 -0.48397154988E+01  0.13398570069E+02  0.14301932786E+02  0.00000000000E+00 0.  1.
</event>
<event>
 7    1  0.3802554E-013  0.5930193E+02  0.7816164E-02  0.1266605E+00
        -11   -1    0    0    0    0  0.00000000000E+00  0.00000000000E+00  0.45593999997E+02  0.45594000000E+02  0.51100000000E-03 0.  1.
         11   -1    0    0    0    0 -0.00000000000E+00 -0.00000000000E+00 -0.45593999997E+02  0.45594000000E+02  0.51100000000E-03 0. -1.
    9900012    2    1    2    0    0  0.97632258831E+01 -0.30022224397E+02 -0.44795971980E+01  0.59301932063E+02  0.49999978179E+02 0.  0.
        -12    1    1    2    0    0 -0.97632258831E+01  0.30022224397E+02  0.44795971980E+01  0.31886067937E+02  0.00000000000E+00 0.  1.
         11    1    3    3    0    0 -0.90205527540E+01 -0.27402266127E+02  0.75415502420E+00  0.28858678260E+02  0.51100000000E-03 0. -1.
        -11    1    3    3    0    0  0.28375231161E+01  0.12204294521E+01  0.85042463061E+01  0.90478279701E+01  0.51100000000E-03 0.  1.
        -12    1    3    3    0    0  0.15946255521E+02 -0.38403877227E+01 -0.13737998528E+02  0.21395425833E+02  0.00000000000E+00 0.  1.
</event>
<event>
 7    1  0.3802554E-013  0.5930194E+02  0.7816164E-02  0.1266605E+00
        -11   -1    0    0    0    0  0.00000000000E+00  0.00000000000E+00  0.45593999997E+02  0.45594000000E+02  0.51100000000E-03 0. -1.
         11   -1    0    0    0    0 -0.00000000000E+00 -0.00000000000E+00 -0.45593999997E+02  0.45594000000E+02  0.51100000000E-03 0.  1.
    9900012    2    1    2    0    0 -0.22961048206E+02  0.21262259625E+02  0.61177985034E+01  0.59301939133E+02  0.49999991073E+02 0.  0.
        -12    1    1    2    0    0  0.22961048206E+02 -0.21262259625E+02 -0.61177985034E+01  0.31886060867E+02  0.00000000000E+00 0.  1.
         11    1    3    3    0    0 -0.19579868472E+02  0.38103107181E+01 -0.10543133549E+02  0.22562078416E+02  0.51100000000E-03 0. -1.
        -11    1    3    3    0    0 -0.95584478248E+01  0.15853516220E+02 -0.40872318588E+00  0.18516612980E+02  0.51100000000E-03 0.  1.
        -12    1    3    3    0    0  0.61772680910E+01  0.15984326866E+01  0.17069655238E+02  0.18223247737E+02  0.00000000000E+00 0.  1.
</event>
<event>
 7    1  0.3802554E-013  0.5930193E+02  0.7816164E-02  0.1266605E+00
        -11   -1    0    0    0    0  0.00000000000E+00  0.00000000000E+00  0.45593999997E+02  0.45594000000E+02  0.51100000000E-03 0. -1.
         11   -1    0    0    0    0 -0.00000000000E+00 -0.00000000000E+00 -0.45593999997E+02  0.45594000000E+02  0.51100000000E-03 0.  1.
    9900012    2    1    2    0    0 -0.28275304314E+02  0.10576416994E+02  0.10264877701E+02  0.59301934945E+02  0.49999983435E+02 0.  0.
        -12    1    1    2    0    0  0.28275304314E+02 -0.10576416994E+02 -0.10264877701E+02  0.31886065055E+02  0.00000000000E+00 0.  1.
         11    1    3    3    0    0 -0.11788881126E+02 -0.65768407464E+01  0.21396640217E+02  0.25299185071E+02  0.51100000000E-03 0. -1.
        -11    1    3    3    0    0 -0.13226691830E+02 -0.10491049076E+01 -0.72057563619E+01  0.15098639770E+02  0.51100000000E-03 0.  1.
        -12    1    3    3    0    0 -0.32597313573E+01  0.18202362648E+02 -0.39260061544E+01  0.18904110104E+02  0.00000000000E+00 0.  1.
</event>
<event>
 7    1  0.4200198E-013  0.5930194E+02  0.7816164E-02  0.1266605E+00
        -11   -1    0    0    0    0  0.00000000000E+00  0.00000000000E+00  0.45593999997E+02  0.45594000000E+02  0.51100000000E-03 0.  1.
         11   -1    0    0    0    0 -0.00000000000E+00 -0.00000000000E+00 -0.45593999997E+02  0.45594000000E+02  0.51100000000E-03 0. -1.
    9900012    2    1    2    0    0  0.29598438191E+02  0.11709554021E+02 -0.18813291795E+01  0.59301943515E+02  0.49999999064E+02 0.  0.
        -12    1    1    2    0    0 -0.29598438191E+02 -0.11709554021E+02  0.18813291795E+01  0.31886056485E+02  0.00000000000E+00 0.  1.
         11    1    3    3    0    0  0.25450809683E+02  0.21413862889E+01 -0.20833319884E+01  0.25625563822E+02  0.51100000000E-03 0. -1.
        -11    1    3    3    0    0  0.86727613641E+01  0.20271456236E+01 -0.14223196710E+02  0.16781699377E+02  0.51100000000E-03 0.  1.
        -12    1    3    3    0    0 -0.45251328559E+01  0.75410221081E+01  0.14425199519E+02  0.16894680316E+02  0.00000000000E+00 0.  1.
</event>
<event>
 7    1  0.3802554E-013  0.5930193E+02  0.7816164E-02  0.1266605E+00
        -11   -1    0    0    0    0  0.00000000000E+00  0.00000000000E+00  0.45593999997E+02  0.45594000000E+02  0.51100000000E-03 0. -1.
         11   -1    0    0    0    0 -0.00000000000E+00 -0.00000000000E+00 -0.45593999997E+02  0.45594000000E+02  0.51100000000E-03 0.  1.
    9900012    2    1    2    0    0  0.25975924139E+02  0.17017265498E+02  0.72377636185E+01  0.59301934359E+02  0.49999982366E+02 0.  0.
        -12    1    1    2    0    0 -0.25975924139E+02 -0.17017265498E+02 -0.72377636185E+01  0.31886065641E+02  0.00000000000E+00 0.  1.
         11    1    3    3    0    0 -0.56491065300E+01  0.23880607043E+01  0.49523178570E+00  0.61530881107E+01  0.51100000000E-03 0. -1.
        -11    1    3    3    0    0  0.11319048678E+02 -0.61316452967E+01 -0.12793234482E+02  0.18148961011E+02  0.51100000000E-03 0.  1.
         12    1    3    3    0    0  0.20305981991E+02  0.20760850090E+02  0.19535766315E+02  0.34999885237E+02  0.00000000000E+00 0. -1.
</event>
<event>
 7    1  0.3802554E-013  0.5930195E+02  0.7816164E-02  0.1266605E+00
        -11   -1    0    0    0    0  0.00000000000E+00  0.00000000000E+00  0.45593999997E+02  0.45594000000E+02  0.51100000000E-03 0.  1.
         11   -1    0    0    0    0 -0.00000000000E+00 -0.00000000000E+00 -0.45593999997E+02  0.45594000000E+02  0.51100000000E-03 0. -1.
    9900012    2    1    2    0    0  0.19600883947E+02 -0.17801655739E+02 -0.17765887589E+02  0.59301947244E+02  0.50000005866E+02 0.  0.
        -12    1    1    2    0    0 -0.19600883947E+02  0.17801655739E+02  0.17765887589E+02  0.31886052756E+02  0.00000000000E+00 0.  1.
         11    1    3    3    0    0 -0.15090491791E+02 -0.16139541760E+01 -0.10816708444E+02  0.18636764000E+02  0.51100000000E-03 0. -1.
        -11    1    3    3    0    0  0.11456255120E+02 -0.15466306835E+01  0.21001564920E+01  0.11749404470E+02  0.51100000000E-03 0.  1.
        -12    1    3    3    0    0  0.23235120617E+02 -0.14641070880E+02 -0.90493356364E+01  0.28915778773E+02  0.00000000000E+00 0.  1.
</event>
<event>
 7    1  0.3802554E-013  0.5930204E+02  0.7816164E-02  0.1266604E+00
        -11   -1    0    0    0    0  0.00000000000E+00  0.00000000000E+00  0.45593999997E+02  0.45594000000E+02  0.51100000000E-03 0.  1.
         11   -1    0    0    0    0 -0.00000000000E+00 -0.00000000000E+00 -0.45593999997E+02  0.45594000000E+02  0.51100000000E-03 0. -1.
    9900012    2    1    2    0    0 -0.48290051861E+01  0.26191463328E+02 -0.17532893768E+02  0.59302040610E+02  0.50000176143E+02 0.  0.
        -12    1    1    2    0    0  0.48290051861E+01 -0.26191463328E+02  0.17532893768E+02  0.31885959390E+02  0.00000000000E+00 0.  1.
         11    1    3    3    0    0 -0.13652516768E+01  0.13295551546E+01 -0.55887263674E+01  0.59047008156E+01  0.51100000000E-03 0. -1.
        -11    1    3    3    0    0  0.82531218120E+01  0.28736835895E+01 -0.24128553546E+02  0.25662407788E+02  0.51100000000E-03 0.  1.
        -12    1    3    3    0    0 -0.11716875321E+02  0.21988224584E+02  0.12184386146E+02  0.27734932006E+02  0.00000000000E+00 0.  1.
</event>
<event>
 7    1  0.3802554E-013  0.5930194E+02  0.7816164E-02  0.1266605E+00
        -11   -1    0    0    0    0  0.00000000000E+00  0.00000000000E+00  0.45593999997E+02  0.45594000000E+02  0.51100000000E-03 0.  1.
         11   -1    0    0    0    0 -0.00000000000E+00 -0.00000000000E+00 -0.45593999997E+02  0.45594000000E+02  0.51100000000E-03 0. -1.
    9900012    2    1    2    0    0 -0.29758149060E+02 -0.92076663148E+01  0.68111787730E+01  0.59301941750E+02  0.49999995846E+02 0.  0.
        -12    1    1    2    0    0  0.29758149060E+02  0.92076663148E+01 -0.68111787730E+01  0.31886058250E+02  0.00000000000E+00 0.  1.
         11    1    3    3    0    0  0.48350934901E+01 -0.65028102645E+01 -0.12701098547E+01  0.82023075837E+01  0.51100000000E-03 0. -1.
        -11    1    3    3    0    0 -0.67085814972E+00 -0.10878002735E+02 -0.71419433441E+01  0.13030285843E+02  0.51100000000E-03 0.  1.
        -12    1    3    3    0    0 -0.33922384400E+02  0.81731466846E+01  0.15223231972E+02  0.38069348324E+02  0.00000000000E+00 0.  1.
</event>
<event>
 7    1  0.3802554E-013  0.5930179E+02  0.7816164E-02  0.1266605E+00
        -11   -1    0    0    0    0  0.00000000000E+00  0.00000000000E+00  0.45593999997E+02  0.45594000000E+02  0.51100000000E-03 0.  1.
         11   -1    0    0    0    0 -0.00000000000E+00 -0.00000000000E+00 -0.45593999997E+02  0.45594000000E+02  0.51100000000E-03 0. -1.
    9900012    2    1    2    0    0 -0.10356094856E+02  0.28062871439E+02 -0.11043415135E+02  0.59301788687E+02  0.49999716695E+02 0.  0.
        -12    1    1    2    0    0  0.10356094856E+02 -0.28062871439E+02  0.11043415135E+02  0.31886211313E+02  0.00000000000E+00 0.  1.
         11    1    3    3    0    0 -0.20363466963E+02  0.30198931494E+01 -0.18229543646E+02  0.27497396299E+02  0.51100000000E-03 0. -1.
        -11    1    3    3    0    0  0.62399268833E+01  0.70498721371E+00  0.58263263543E+00  0.63065961920E+01  0.51100000000E-03 0.  1.
        -12    1    3    3    0    0  0.37674452235E+01  0.24337991075E+02  0.66034958758E+01  0.25497796196E+02  0.00000000000E+00 0.  1.
</event>
<event>
 7    1  0.3802554E-013  0.5930195E+02  0.7816164E-02  0.1266605E+00
        -11   -1    0    0    0    0  0.00000000000E+00  0.00000000000E+00  0.45593999997E+02  0.45594000000E+02  0.51100000000E-03 0.  1.
         11   -1    0    0    0    0 -0.00000000000E+00 -0.00000000000E+00 -0.45593999997E+02  0.45594000000E+02  0.51100000000E-03 0. -1.
    9900012    2    1    2    0    0  0.23033337723E+02 -0.20095500503E+02  0.90750262214E+01  0.59301954650E+02  0.50000019373E+02 0.  0.
        -12    1    1    2    0    0 -0.23033337723E+02  0.20095500503E+02 -0.90750262214E+01  0.31886045350E+02  0.00000000000E+00 0.  1.
         11    1    3    3    0    0  0.20296413514E+02 -0.98470034690E+01  0.25146232583E+02  0.33782257062E+02  0.51100000000E-03 0. -1.
        -11    1    3    3    0    0  0.49023024825E+01  0.11494100890E-01  0.14395762594E+01  0.51093132427E+01  0.51100000000E-03 0.  1.
         12    1    3    3    0    0 -0.21653782733E+01 -0.10259991135E+02 -0.17510782621E+02  0.20410384346E+02  0.00000000000E+00 0. -1.
</event>
<event>
 7    1  0.3802554E-013  0.5930194E+02  0.7816164E-02  0.1266605E+00
        -11   -1    0    0    0    0  0.00000000000E+00  0.00000000000E+00  0.45593999997E+02  0.45594000000E+02  0.51100000000E-03 0.  1.
         11   -1    0    0    0    0 -0.00000000000E+00 -0.00000000000E+00 -0.45593999997E+02  0.45594000000E+02  0.51100000000E-03 0. -1.
    9900012    2    1    2    0    0 -0.12535814406E+02  0.13731772572E+02 -0.25903915270E+02  0.59301936475E+02  0.49999986226E+02 0.  0.
        -12    1    1    2    0    0  0.12535814406E+02 -0.13731772572E+02  0.25903915270E+02  0.31886063525E+02  0.00000000000E+00 0.  1.
         11    1    3    3    0    0 -0.12077968972E+01  0.15854043693E+02 -0.78613089680E+01  0.17737239180E+02  0.51100000000E-03 0. -1.
        -11    1    3    3    0    0 -0.76337840951E+01  0.13112627160E+02  0.28566698103E+01  0.15439436949E+02  0.51100000000E-03 0.  1.
        -12    1    3    3    0    0 -0.36942334139E+01 -0.15234898281E+02 -0.20899276112E+02  0.26125260347E+02  0.00000000000E+00 0.  1.
</event>
<event>
 7    1  0.3802554E-013  0.5930194E+02  0.7816164E-02  0.1266605E+00
        -11   -1    0    0    0    0  0.00000000000E+00  0.00000000000E+00  0.45593999997E+02  0.45594000000E+02  0.51100000000E-03 0. -1.
         11   -1    0    0    0    0 -0.00000000000E+00 -0.00000000000E+00 -0.45593999997E+02  0.45594000000E+02  0.51100000000E-03 0.  1.
    9900012    2    1    2    0    0  0.22003590397E+02  0.90121567894E+01  0.21244851938E+02  0.59301942009E+02  0.49999996318E+02 0.  0.
        -12    1    1    2    0    0 -0.22003590397E+02 -0.90121567894E+01 -0.21244851938E+02  0.31886057991E+02  0.00000000000E+00 0.  1.
         11    1    3    3    0    0  0.43669821793E+01  0.12656711262E+02  0.11655898936E+02  0.17751700020E+02  0.51100000000E-03 0. -1.
        -11    1    3    3    0    0  0.21723984105E+02  0.48094660492E+01  0.18248829981E+02  0.28776418211E+02  0.51100000000E-03 0.  1.
        -12    1    3    3    0    0 -0.40873758878E+01 -0.84540205221E+01 -0.86598769788E+01  0.12773823778E+02  0.00000000000E+00 0.  1.
</event>
<event>
 7    1  0.3802554E-013  0.5930193E+02  0.7816164E-02  0.1266605E+00
        -11   -1    0    0    0    0  0.00000000000E+00  0.00000000000E+00  0.45593999997E+02  0.45594000000E+02  0.51100000000E-03 0. -1.
         11   -1    0    0    0    0 -0.00000000000E+00 -0.00000000000E+00 -0.45593999997E+02  0.45594000000E+02  0.51100000000E-03 0.  1.
    9900012    2    1    2    0    0 -0.81942624949E+01 -0.30240841138E+02  0.59217214163E+01  0.59301934154E+02  0.49999981993E+02 0.  0.
        -12    1    1    2    0    0  0.81942624949E+01  0.30240841138E+02 -0.59217214163E+01  0.31886065846E+02  0.00000000000E+00 0.  1.
         11    1    3    3    0    0  0.86633977528E+01 -0.13370582229E+02  0.81951398981E+01  0.17916116989E+02  0.51100000000E-03 0. -1.
        -11    1    3    3    0    0 -0.11124176676E+02 -0.27264334596E+02 -0.12910788926E+01  0.29474703267E+02  0.51100000000E-03 0.  1.
         12    1    3    3    0    0 -0.57334835712E+01  0.10394075686E+02 -0.98233958916E+00  0.11911113898E+02  0.00000000000E+00 0. -1.
</event>
<event>
 7    1  0.3802554E-013  0.5930198E+02  0.7816164E-02  0.1266605E+00
        -11   -1    0    0    0    0  0.00000000000E+00  0.00000000000E+00  0.45593999997E+02  0.45594000000E+02  0.51100000000E-03 0. -1.
         11   -1    0    0    0    0 -0.00000000000E+00 -0.00000000000E+00 -0.45593999997E+02  0.45594000000E+02  0.51100000000E-03 0.  1.
    9900012    2    1    2    0    0 -0.44814022203E+01  0.15638026044E+02  0.27424209429E+02  0.59301982889E+02  0.50000070874E+02 0.  0.
        -12    1    1    2    0    0  0.44814022203E+01 -0.15638026044E+02 -0.27424209429E+02  0.31886017111E+02  0.00000000000E+00 0.  1.
         11    1    3    3    0    0  0.13986712180E+02 -0.38409222655E+01  0.18830563588E+02  0.23769117080E+02  0.51100000000E-03 0. -1.
        -11    1    3    3    0    0  0.40054576248E+01  0.37362033549E+01  0.57590030220E+01  0.79478942093E+01  0.51100000000E-03 0.  1.
        -12    1    3    3    0    0 -0.22473572025E+02  0.15742744954E+02  0.28346428190E+01  0.27584971600E+02  0.00000000000E+00 0.  1.
</event>
<event>
 7    1  0.3802554E-013  0.5930195E+02  0.7816164E-02  0.1266605E+00
        -11   -1    0    0    0    0  0.00000000000E+00  0.00000000000E+00  0.45593999997E+02  0.45594000000E+02  0.51100000000E-03 0. -1.
         11   -1    0    0    0    0 -0.00000000000E+00 -0.00000000000E+00 -0.45593999997E+02  0.45594000000E+02  0.51100000000E-03 0.  1.
    9900012    2    1    2    0    0 -0.22284102262E+02  0.50986910064E+01  0.22229309841E+02  0.59301951647E+02  0.50000013896E+02 0.  0.
        -12    1    1    2    0    0  0.22284102262E+02 -0.50986910064E+01 -0.22229309841E+02  0.31886048353E+02  0.00000000000E+00 0.  1.
         11    1    3    3    0    0 -0.15007420295E+02 -0.67036028024E+01  0.24563098104E+02  0.29555147490E+02  0.51100000000E-03 0. -1.
        -11    1    3    3    0    0 -0.16233991592E+02  0.45145080123E+01  0.28496130237E+01  0.17089282028E+02  0.51100000000E-03 0.  1.
         12    1    3    3    0    0  0.89573096250E+01  0.72877857965E+01 -0.51834012869E+01  0.12657522129E+02  0.00000000000E+00 0. -1.
</event>
<event>
 7    1  0.3802554E-013  0.5930194E+02  0.7816164E-02  0.1266605E+00
        -11   -1    0    0    0    0  0.00000000000E+00  0.00000000000E+00  0.45593999997E+02  0.45594000000E+02  0.51100000000E-03 0. -1.
         11   -1    0    0    0    0 -0.00000000000E+00 -0.00000000000E+00 -0.45593999997E+02  0.45594000000E+02  0.51100000000E-03 0.  1.
    9900012    2    1    2    0    0 -0.76580814972E+01 -0.25097401138E+02  0.18116150450E+02  0.59301942495E+02  0.49999997204E+02 0.  0.
        -12    1    1    2    0    0  0.76580814972E+01  0.25097401138E+02 -0.18116150450E+02  0.31886057505E+02  0.00000000000E+00 0.  1.
         11    1    3    3    0    0 -0.10453203718E+02 -0.31864725708E+02  0.25201763107E+02  0.41949482433E+02  0.51100000000E-03 0. -1.
        -11    1    3    3    0    0  0.27226129987E+01  0.62363958440E+01  0.28679601349E+01  0.73844735940E+01  0.51100000000E-03 0.  1.
        -12    1    3    3    0    0  0.72509222355E-01  0.53092872600E+00 -0.99535727920E+01  0.99679864680E+01  0.00000000000E+00 0.  1.
</event>
<event>
 7    1  0.3802554E-013  0.5930194E+02  0.7816164E-02  0.1266605E+00
        -11   -1    0    0    0    0  0.00000000000E+00  0.00000000000E+00  0.45593999997E+02  0.45594000000E+02  0.51100000000E-03 0. -1.
         11   -1    0    0    0    0 -0.00000000000E+00 -0.00000000000E+00 -0.45593999997E+02  0.45594000000E+02  0.51100000000E-03 0.  1.
    9900012    2    1    2    0    0  0.27902870877E+02  0.12453939505E+02 -0.91131701483E+01  0.59301942192E+02  0.49999996653E+02 0.  0.
        -12    1    1    2    0    0 -0.27902870877E+02 -0.12453939505E+02  0.91131701483E+01  0.31886057808E+02  0.00000000000E+00 0.  1.
         11    1    3    3    0    0  0.30871264044E+01  0.79598601979E+01  0.58437451924E+01  0.10345969357E+02  0.51100000000E-03 0. -1.
        -11    1    3    3    0    0 -0.54222769089E+01 -0.88973028174E+01  0.36133561052E+01  0.11028119826E+02  0.51100000000E-03 0.  1.
         12    1    3    3    0    0  0.30238021381E+02  0.13391382124E+02 -0.18570271446E+02  0.37927853009E+02  0.00000000000E+00 0. -1.
</event>
<event>
 7    1  0.3802554E-013  0.5930199E+02  0.7816164E-02  0.1266605E+00
        -11   -1    0    0    0    0  0.00000000000E+00  0.00000000000E+00  0.45593999997E+02  0.45594000000E+02  0.51100000000E-03 0.  1.
         11   -1    0    0    0    0 -0.00000000000E+00 -0.00000000000E+00 -0.45593999997E+02  0.45594000000E+02  0.51100000000E-03 0. -1.
    9900012    2    1    2    0    0  0.38860498330E+01  0.24632904306E+02 -0.19870481501E+02  0.59301993776E+02  0.50000090728E+02 0.  0.
        -12    1    1    2    0    0 -0.38860498330E+01 -0.24632904306E+02  0.19870481501E+02  0.31886006224E+02  0.00000000000E+00 0.  1.
         11    1    3    3    0    0 -0.17147855218E+02  0.12120345640E+02 -0.14839040810E+02  0.25712814888E+02  0.51100000000E-03 0. -1.
        -11    1    3    3    0    0 -0.22554576871E+00 -0.44051817662E+01 -0.46610243627E+01  0.64172927047E+01  0.51100000000E-03 0.  1.
         12    1    3    3    0    0  0.21259450820E+02  0.16917740433E+02 -0.37041632784E+00  0.27171886183E+02  0.00000000000E+00 0. -1.
</event>
<event>
 7    1  0.3802554E-013  0.5930193E+02  0.7816164E-02  0.1266605E+00
        -11   -1    0    0    0    0  0.00000000000E+00  0.00000000000E+00  0.45593999997E+02  0.45594000000E+02  0.51100000000E-03 0. -1.
         11   -1    0    0    0    0 -0.00000000000E+00 -0.00000000000E+00 -0.45593999997E+02  0.45594000000E+02  0.51100000000E-03 0.  1.
    9900012    2    1    2    0    0 -0.17515578552E+01  0.30376793841E+02  0.95343692295E+01  0.59301925366E+02  0.49999965966E+02 0.  0.
        -12    1    1    2    0    0  0.17515578552E+01 -0.30376793841E+02 -0.95343692295E+01  0.31886074634E+02  0.00000000000E+00 0.  1.
         11    1    3    3    0    0 -0.60839102681E+01  0.12050486671E+02  0.50908481373E+01  0.14427228708E+02  0.51100000000E-03 0. -1.
        -11    1    3    3    0    0 -0.45922585925E+01  0.27382304444E+02  0.11819202621E+02  0.30175701922E+02  0.51100000000E-03 0.  1.
         12    1    3    3    0    0  0.89246110054E+01 -0.90559972746E+01 -0.73756815291E+01  0.14698994736E+02  0.00000000000E+00 0. -1.
</event>
<event>
 7    1  0.3802554E-013  0.5930193E+02  0.7816164E-02  0.1266605E+00
        -11   -1    0    0    0    0  0.00000000000E+00  0.00000000000E+00  0.45593999997E+02  0.45594000000E+02  0.51100000000E-03 0.  1.
         11   -1    0    0    0    0 -0.00000000000E+00 -0.00000000000E+00 -0.45593999997E+02  0.45594000000E+02  0.51100000000E-03 0. -1.
    9900012    2    1    2    0    0 -0.45247596582E+01  0.27197119647E+01 -0.31446003848E+02  0.59301930296E+02  0.49999974957E+02 0.  0.
        -12    1    1    2    0    0  0.45247596582E+01 -0.27197119647E+01  0.31446003848E+02  0.31886069704E+02  0.00000000000E+00 0.  1.
         11    1    3    3    0    0 -0.84787754427E+01  0.19174448101E+02 -0.12356486571E+02  0.24335814218E+02  0.51100000000E-03 0. -1.
        -11    1    3    3    0    0 -0.80658967793E+01 -0.10391657188E+02 -0.21511372815E+01  0.13329389402E+02  0.51100000000E-03 0.  1.
         12    1    3    3    0    0  0.12019912564E+02 -0.60630789484E+01 -0.16938379995E+02  0.21636726676E+02  0.00000000000E+00 0. -1.
</event>
<event>
 7    1  0.3802554E-013  0.5930193E+02  0.7816164E-02  0.1266605E+00
        -11   -1    0    0    0    0  0.00000000000E+00  0.00000000000E+00  0.45593999997E+02  0.45594000000E+02  0.51100000000E-03 0.  1.
         11   -1    0    0    0    0 -0.00000000000E+00 -0.00000000000E+00 -0.45593999997E+02  0.45594000000E+02  0.51100000000E-03 0. -1.
    9900012    2    1    2    0    0  0.13638596453E+02 -0.66941372659E+01 -0.28033886926E+02  0.59301927756E+02  0.49999970324E+02 0.  0.
        -12    1    1    2    0    0 -0.13638596453E+02  0.66941372659E+01  0.28033886926E+02  0.31886072244E+02  0.00000000000E+00 0.  1.
         11    1    3    3    0    0  0.12264327244E+01  0.37401115646E+01 -0.20305002951E+02  0.20682981333E+02  0.51100000000E-03 0. -1.
        -11    1    3    3    0    0 -0.81220765980E+01 -0.97358522742E+01 -0.12196314459E+02  0.17592755168E+02  0.51100000000E-03 0.  1.
         12    1    3    3    0    0  0.20534240327E+02 -0.69839655633E+00  0.44674304835E+01  0.21026191254E+02  0.00000000000E+00 0. -1.
</event>
<event>
 7    1  0.3802554E-013  0.5930196E+02  0.7816164E-02  0.1266605E+00
        -11   -1    0    0    0    0  0.00000000000E+00  0.00000000000E+00  0.45593999997E+02  0.45594000000E+02  0.51100000000E-03 0.  1.
         11   -1    0    0    0    0 -0.00000000000E+00 -0.00000000000E+00 -0.45593999997E+02  0.45594000000E+02  0.51100000000E-03 0. -1.
    9900012    2    1    2    0    0  0.10827089665E+02 -0.22753735172E+02 -0.19538710308E+02  0.59301960180E+02  0.50000029458E+02 0.  0.
        -12    1    1    2    0    0 -0.10827089665E+02  0.22753735172E+02  0.19538710308E+02  0.31886039820E+02  0.00000000000E+00 0.  1.
         11    1    3    3    0    0 -0.29729783952E+01  0.28236143406E+01 -0.21015453339E+02  0.21411694884E+02  0.51100000000E-03 0. -1.
        -11    1    3    3    0    0  0.78658745767E+01  0.14830972295E+01  0.57547458479E+01  0.98584309241E+01  0.51100000000E-03 0.  1.
        -12    1    3    3    0    0  0.59341934831E+01 -0.27060446742E+02 -0.42780028164E+01  0.28031834372E+02  0.00000000000E+00 0.  1.
</event>
<event>
 7    1  0.3802554E-013  0.5930193E+02  0.7816164E-02  0.1266605E+00
        -11   -1    0    0    0    0  0.00000000000E+00  0.00000000000E+00  0.45593999997E+02  0.45594000000E+02  0.51100000000E-03 0.  1.
         11   -1    0    0    0    0 -0.00000000000E+00 -0.00000000000E+00 -0.45593999997E+02  0.45594000000E+02  0.51100000000E-03 0. -1.
    9900012    2    1    2    0    0 -0.31588706881E+01  0.31582453853E+02  0.30482209643E+01  0.59301929273E+02  0.49999973090E+02 0.  0.
        -12    1    1    2    0    0  0.31588706881E+01 -0.31582453853E+02 -0.30482209643E+01  0.31886070727E+02  0.00000000000E+00 0.  1.
         11    1    3    3    0    0 -0.10020478778E+02  0.26357265595E+01  0.21179284363E+01  0.10575569514E+02  0.51100000000E-03 0. -1.
        -11    1    3    3    0    0 -0.12971903964E+02  0.40231128578E+01  0.84541084477E+01  0.15997739823E+02  0.51100000000E-03 0.  1.
         12    1    3    3    0    0  0.19833512054E+02  0.24923614435E+02 -0.75238159197E+01  0.32728619936E+02  0.00000000000E+00 0. -1.
</event>
<event>
 7    1  0.3802554E-013  0.5930194E+02  0.7816164E-02  0.1266605E+00
        -11   -1    0    0    0    0  0.00000000000E+00  0.00000000000E+00  0.45593999997E+02  0.45594000000E+02  0.51100000000E-03 0.  1.
         11   -1    0    0    0    0 -0.00000000000E+00 -0.00000000000E+00 -0.45593999997E+02  0.45594000000E+02  0.51100000000E-03 0. -1.
    9900012    2    1    2    0    0  0.22439381832E+02  0.19915652341E+02 -0.10796389734E+02  0.59301935701E+02  0.49999984815E+02 0.  0.
        -12    1    1    2    0    0 -0.22439381832E+02 -0.19915652341E+02  0.10796389734E+02  0.31886064299E+02  0.00000000000E+00 0.  1.
         11    1    3    3    0    0  0.94853752983E+01  0.24861919931E+02  0.60147462216E+00  0.26616708647E+02  0.51100000000E-03 0.  1.
        -11    1    3    3    0    0  0.54882910881E+01  0.94774452753E+01  0.25862689141E+01  0.11253092694E+02  0.51100000000E-03 0. -1.
        -12    1    3    3    0    0  0.74657154452E+01 -0.14423712865E+02 -0.13984133270E+02  0.21432134361E+02  0.00000000000E+00 0.  1.
</event>
<event>
 7    1  0.3802554E-013  0.5930195E+02  0.7816164E-02  0.1266605E+00
        -11   -1    0    0    0    0  0.00000000000E+00  0.00000000000E+00  0.45593999997E+02  0.45594000000E+02  0.51100000000E-03 0. -1.
         11   -1    0    0    0    0 -0.00000000000E+00 -0.00000000000E+00 -0.45593999997E+02  0.45594000000E+02  0.51100000000E-03 0.  1.
    9900012    2    1    2    0    0  0.25439812420E+02  0.16221569563E+02 -0.10314882625E+02  0.59301950094E+02  0.50000011063E+02 0.  0.
        -12    1    1    2    0    0 -0.25439812420E+02 -0.16221569563E+02  0.10314882625E+02  0.31886049906E+02  0.00000000000E+00 0.  1.
         11    1    3    3    0    0  0.40518817909E+01  0.95736605068E+00  0.13847728990E+02  0.14460079330E+02  0.51100000000E-03 0. -1.
        -11    1    3    3    0    0  0.26071468776E+02  0.61074205043E+01 -0.13356212846E+02  0.29923410420E+02  0.51100000000E-03 0.  1.
        -12    1    3    3    0    0 -0.46835381468E+01  0.91567830083E+01 -0.10806398769E+02  0.14918460343E+02  0.00000000000E+00 0.  1.
</event>
<event>
 7    1  0.3802554E-013  0.5930194E+02  0.7816164E-02  0.1266605E+00
        -11   -1    0    0    0    0  0.00000000000E+00  0.00000000000E+00  0.45593999997E+02  0.45594000000E+02  0.51100000000E-03 0. -1.
         11   -1    0    0    0    0 -0.00000000000E+00 -0.00000000000E+00 -0.45593999997E+02  0.45594000000E+02  0.51100000000E-03 0.  1.
    9900012    2    1    2    0    0 -0.31294807945E+02  0.61064727372E+01  0.25841682700E+00  0.59301940462E+02  0.49999993497E+02 0.  0.
        -12    1    1    2    0    0  0.31294807945E+02 -0.61064727372E+01 -0.25841682700E+00  0.31886059538E+02  0.00000000000E+00 0.  1.
         11    1    3    3    0    0 -0.16082663228E+02 -0.98181227566E+01  0.91292943576E+01  0.20937803292E+02  0.51100000000E-03 0. -1.
        -11    1    3    3    0    0 -0.84219511704E+01  0.21424286096E+01 -0.18355220723E+02  0.20308456119E+02  0.51100000000E-03 0.  1.
         12    1    3    3    0    0 -0.67901935469E+01  0.13782166884E+02  0.94843431928E+01  0.18055681051E+02  0.00000000000E+00 0. -1.
</event>
<event>
 7    1  0.3802554E-013  0.5930193E+02  0.7816164E-02  0.1266605E+00
        -11   -1    0    0    0    0  0.00000000000E+00  0.00000000000E+00  0.45593999997E+02  0.45594000000E+02  0.51100000000E-03 0. -1.
         11   -1    0    0    0    0 -0.00000000000E+00 -0.00000000000E+00 -0.45593999997E+02  0.45594000000E+02  0.51100000000E-03 0.  1.
    9900012    2    1    2    0    0  0.13562597608E+02 -0.77733911850E+00  0.28847412535E+02  0.59301929061E+02  0.49999972704E+02 0.  0.
        -12    1    1    2    0    0 -0.13562597608E+02  0.77733911850E+00 -0.28847412535E+02  0.31886070939E+02  0.00000000000E+00 0.  1.
         11    1    3    3    0    0  0.23506727621E+02  0.69245016938E+01  0.12523419494E+02  0.27520010960E+02  0.51100000000E-03 0. -1.
        -11    1    3    3    0    0 -0.16373825606E+02 -0.85576799142E+00  0.51518858303E+01  0.17186518894E+02  0.51100000000E-03 0.  1.
         12    1    3    3    0    0  0.64296955927E+01 -0.68460728209E+01  0.11172107210E+02  0.14595399206E+02  0.00000000000E+00 0. -1.
</event>
<event>
 7    1  0.3802554E-013  0.5930194E+02  0.7816164E-02  0.1266605E+00
        -11   -1    0    0    0    0  0.00000000000E+00  0.00000000000E+00  0.45593999997E+02  0.45594000000E+02  0.51100000000E-03 0.  1.
         11   -1    0    0    0    0 -0.00000000000E+00 -0.00000000000E+00 -0.45593999997E+02  0.45594000000E+02  0.51100000000E-03 0. -1.
    9900012    2    1    2    0    0 -0.31059113062E+02  0.72134152483E+01 -0.13871094827E+00  0.59301935575E+02  0.49999984585E+02 0.  0.
        -12    1    1    2    0    0  0.31059113062E+02 -0.72134152483E+01  0.13871094827E+00  0.31886064425E+02  0.00000000000E+00 0.  1.
         11    1    3    3    0    0 -0.13802561055E+02  0.13574881535E+02 -0.25919861708E+01  0.19532191197E+02  0.51100000000E-03 0. -1.
        -11    1    3    3    0    0  0.62384084085E+01 -0.85503207987E+01 -0.86707895396E+01  0.13682409025E+02  0.51100000000E-03 0.  1.
         12    1    3    3    0    0 -0.23494960415E+02  0.21888545118E+01  0.11124064762E+02  0.26087335353E+02  0.00000000000E+00 0. -1.
</event>
<event>
 7    1  0.3802554E-013  0.5930191E+02  0.7816164E-02  0.1266605E+00
        -11   -1    0    0    0    0  0.00000000000E+00  0.00000000000E+00  0.45593999997E+02  0.45594000000E+02  0.51100000000E-03 0. -1.
         11   -1    0    0    0    0 -0.00000000000E+00 -0.00000000000E+00 -0.45593999997E+02  0.45594000000E+02  0.51100000000E-03 0.  1.
    9900012    2    1    2    0    0  0.17788728948E+01  0.16979134575E+02  0.26930788563E+02  0.59301909422E+02  0.49999936888E+02 0.  0.
        -12    1    1    2    0    0 -0.17788728948E+01 -0.16979134575E+02 -0.26930788563E+02  0.31886090578E+02  0.00000000000E+00 0.  1.
         11    1    3    3    0    0 -0.13124521497E+02  0.14573779497E+02  0.28492576796E+01  0.19818334514E+02  0.51100000000E-03 0.  1.
        -11    1    3    3    0    0  0.52563063882E+01  0.13901345074E+02  0.17867277263E+02  0.23240390461E+02  0.51100000000E-03 0. -1.
        -12    1    3    3    0    0  0.96470880032E+01 -0.11495989996E+02  0.62142536202E+01  0.16243184447E+02  0.00000000000E+00 0.  1.
</event>
<event>
 7    1  0.3802554E-013  0.5930195E+02  0.7816164E-02  0.1266605E+00
        -11   -1    0    0    0    0  0.00000000000E+00  0.00000000000E+00  0.45593999997E+02  0.45594000000E+02  0.51100000000E-03 0.  1.
         11   -1    0    0    0    0 -0.00000000000E+00 -0.00000000000E+00 -0.45593999997E+02  0.45594000000E+02  0.51100000000E-03 0. -1.
    9900012    2    1    2    0    0  0.10521061312E+02 -0.31605051267E+01 -0.29933902290E+02  0.59301952422E+02  0.50000015310E+02 0.  0.
        -12    1    1    2    0    0 -0.10521061312E+02  0.31605051267E+01  0.29933902290E+02  0.31886047578E+02  0.00000000000E+00 0.  1.
         11    1    3    3    0    0 -0.10632939910E+02 -0.75055727658E+01 -0.22294716764E+02  0.25815643116E+02  0.51100000000E-03 0. -1.
        -11    1    3    3    0    0  0.89819416340E+01 -0.72499144442E+01 -0.11439717617E+02  0.16251266855E+02  0.51100000000E-03 0.  1.
         12    1    3    3    0    0  0.12172059589E+02  0.11594982083E+02  0.38005320903E+01  0.17235042452E+02  0.00000000000E+00 0. -1.
</event>
<event>
 7    1  0.3802554E-013  0.5930193E+02  0.7816164E-02  0.1266605E+00
        -11   -1    0    0    0    0  0.00000000000E+00  0.00000000000E+00  0.45593999997E+02  0.45594000000E+02  0.51100000000E-03 0.  1.
         11   -1    0    0    0    0 -0.00000000000E+00 -0.00000000000E+00 -0.45593999997E+02  0.45594000000E+02  0.51100000000E-03 0. -1.
    9900012    2    1    2    0    0 -0.28382711031E+02 -0.23867026074E+01 -0.14333413437E+02  0.59301931324E+02  0.49999976832E+02 0.  0.
        -12    1    1    2    0    0  0.28382711031E+02  0.23867026074E+01  0.14333413437E+02  0.31886068676E+02  0.00000000000E+00 0.  1.
         11    1    3    3    0    0 -0.60968262906E+01  0.71428209243E+01  0.38388225584E+01  0.10145330969E+02  0.51100000000E-03 0. -1.
        -11    1    3    3    0    0 -0.78416956315E+01  0.76993514296E+00  0.11881996998E+02  0.14257168142E+02  0.51100000000E-03 0.  1.
         12    1    3    3    0    0 -0.14444189109E+02 -0.10299458675E+02 -0.30054232993E+02  0.34899432214E+02  0.00000000000E+00 0. -1.
</event>
<event>
 7    1  0.3802554E-013  0.5930194E+02  0.7816164E-02  0.1266605E+00
        -11   -1    0    0    0    0  0.00000000000E+00  0.00000000000E+00  0.45593999997E+02  0.45594000000E+02  0.51100000000E-03 0.  1.
         11   -1    0    0    0    0 -0.00000000000E+00 -0.00000000000E+00 -0.45593999997E+02  0.45594000000E+02  0.51100000000E-03 0. -1.
    9900012    2    1    2    0    0  0.17048009483E+02 -0.26671274151E+02 -0.38379126432E+01  0.59301936185E+02  0.49999985696E+02 0.  0.
        -12    1    1    2    0    0 -0.17048009483E+02  0.26671274151E+02  0.38379126432E+01  0.31886063815E+02  0.00000000000E+00 0.  1.
         11    1    3    3    0    0  0.13267333158E+01  0.92645410191E+01 -0.51233350965E+01  0.10669606570E+02  0.51100000000E-03 0. -1.
        -11    1    3    3    0    0  0.19249641806E+01 -0.21226194212E+02  0.13333582595E+02  0.25140430245E+02  0.51100000000E-03 0.  1.
         12    1    3    3    0    0  0.13796311987E+02 -0.14709620958E+02 -0.12048160142E+02  0.23491899369E+02  0.00000000000E+00 0. -1.
</event>
<event>
 7    1  0.3802554E-013  0.5930196E+02  0.7816164E-02  0.1266605E+00
        -11   -1    0    0    0    0  0.00000000000E+00  0.00000000000E+00  0.45593999997E+02  0.45594000000E+02  0.51100000000E-03 0. -1.
         11   -1    0    0    0    0 -0.00000000000E+00 -0.00000000000E+00 -0.45593999997E+02  0.45594000000E+02  0.51100000000E-03 0.  1.
    9900012    2    1    2    0    0  0.17528411712E+02 -0.11675640698E+02  0.23940631138E+02  0.59301958820E+02  0.50000026977E+02 0.  0.
        -12    1    1    2    0    0 -0.17528411712E+02  0.11675640698E+02 -0.23940631138E+02  0.31886041180E+02  0.00000000000E+00 0.  1.
         11    1    3    3    0    0  0.10421203649E+02 -0.68838144104E+00  0.16676688661E+02  0.19677075480E+02  0.51100000000E-03 0. -1.
        -11    1    3    3    0    0  0.17747647897E+02 -0.10896521663E+01 -0.71425692917E+01  0.19162010439E+02  0.51100000000E-03 0.  1.
        -12    1    3    3    0    0 -0.10640439834E+02 -0.98976070908E+01  0.14406511769E+02  0.20462872901E+02  0.00000000000E+00 0.  1.
</event>
<event>
 7    1  0.3802554E-013  0.5930194E+02  0.7816164E-02  0.1266605E+00
        -11   -1    0    0    0    0  0.00000000000E+00  0.00000000000E+00  0.45593999997E+02  0.45594000000E+02  0.51100000000E-03 0.  1.
         11   -1    0    0    0    0 -0.00000000000E+00 -0.00000000000E+00 -0.45593999997E+02  0.45594000000E+02  0.51100000000E-03 0. -1.
    9900012    2    1    2    0    0  0.18075233080E+01  0.94817645483E+01 -0.30389961585E+02  0.59301940905E+02  0.49999994305E+02 0.  0.
        -12    1    1    2    0    0 -0.18075233080E+01 -0.94817645483E+01  0.30389961585E+02  0.31886059095E+02  0.00000000000E+00 0.  1.
         11    1    3    3    0    0  0.96119621877E+01  0.46234257889E+01  0.19393136538E+01  0.10840978776E+02  0.51100000000E-03 0. -1.
        -11    1    3    3    0    0 -0.15023407066E+02 -0.62449285523E+01 -0.33671439169E+01  0.16614438026E+02  0.51100000000E-03 0.  1.
         12    1    3    3    0    0  0.72189681867E+01  0.11103267312E+02 -0.28962131322E+02  0.31846524102E+02  0.00000000000E+00 0. -1.
</event>
<event>
 7    1  0.3802554E-013  0.5930190E+02  0.7816164E-02  0.1266605E+00
        -11   -1    0    0    0    0  0.00000000000E+00  0.00000000000E+00  0.45593999997E+02  0.45594000000E+02  0.51100000000E-03 0. -1.
         11   -1    0    0    0    0 -0.00000000000E+00 -0.00000000000E+00 -0.45593999997E+02  0.45594000000E+02  0.51100000000E-03 0.  1.
    9900012    2    1    2    0    0 -0.14686052542E+02 -0.16857411788E+02  0.22734789107E+02  0.59301904171E+02  0.49999927311E+02 0.  0.
        -12    1    1    2    0    0  0.14686052542E+02  0.16857411788E+02 -0.22734789107E+02  0.31886095829E+02  0.00000000000E+00 0.  1.
         11    1    3    3    0    0 -0.97864285240E+01  0.18492646260E+01  0.20050664822E+02  0.22388012930E+02  0.51100000000E-03 0. -1.
        -11    1    3    3    0    0 -0.11385526169E+02 -0.15128717303E+00  0.10757221491E+02  0.15664319596E+02  0.51100000000E-03 0.  1.
        -12    1    3    3    0    0  0.64859021504E+01 -0.18555389241E+02 -0.80730972057E+01  0.21249571645E+02  0.00000000000E+00 0.  1.
</event>
<event>
 7    1  0.3802554E-013  0.5930194E+02  0.7816164E-02  0.1266605E+00
        -11   -1    0    0    0    0  0.00000000000E+00  0.00000000000E+00  0.45593999997E+02  0.45594000000E+02  0.51100000000E-03 0. -1.
         11   -1    0    0    0    0 -0.00000000000E+00 -0.00000000000E+00 -0.45593999997E+02  0.45594000000E+02  0.51100000000E-03 0.  1.
    9900012    2    1    2    0    0 -0.22057751848E+01 -0.27476181285E+02  0.16028571634E+02  0.59301935790E+02  0.49999984976E+02 0.  0.
        -12    1    1    2    0    0  0.22057751848E+01  0.27476181285E+02 -0.16028571634E+02  0.31886064210E+02  0.00000000000E+00 0.  1.
         11    1    3    3    0    0 -0.17064310217E+01 -0.29413670285E+02 -0.26835889713E+01  0.29585090104E+02  0.51100000000E-03 0.  1.
        -11    1    3    3    0    0 -0.49516355257E+01 -0.17924235104E+01 -0.37829530185E+01  0.64839964699E+01  0.51100000000E-03 0. -1.
         12    1    3    3    0    0  0.44522913626E+01  0.37299125100E+01  0.22495113624E+02  0.23232849215E+02  0.00000000000E+00 0. -1.
</event>
<event>
 7    1  0.3802554E-013  0.5930195E+02  0.7816164E-02  0.1266605E+00
        -11   -1    0    0    0    0  0.00000000000E+00  0.00000000000E+00  0.45593999997E+02  0.45594000000E+02  0.51100000000E-03 0.  1.
         11   -1    0    0    0    0 -0.00000000000E+00 -0.00000000000E+00 -0.45593999997E+02  0.45594000000E+02  0.51100000000E-03 0. -1.
    9900012    2    1    2    0    0  0.92049407594E+00  0.46899239741E+01 -0.31525826858E+02  0.59301945755E+02  0.50000003150E+02 0.  0.
        -12    1    1    2    0    0 -0.92049407594E+00 -0.46899239741E+01  0.31525826858E+02  0.31886054245E+02  0.00000000000E+00 0.  1.
         11    1    3    3    0    0  0.14363894075E+02  0.87721760475E+01 -0.17619735486E+02  0.24366526311E+02  0.51100000000E-03 0. -1.
        -11    1    3    3    0    0 -0.12544890605E+01  0.62035378316E+01  0.64758760835E+01  0.90550867329E+01  0.51100000000E-03 0.  1.
         12    1    3    3    0    0 -0.12188910939E+02 -0.10285789905E+02 -0.20381967456E+02  0.25880332711E+02  0.00000000000E+00 0. -1.
</event>
<event>
 7    1  0.3802554E-013  0.5930195E+02  0.7816164E-02  0.1266605E+00
        -11   -1    0    0    0    0  0.00000000000E+00  0.00000000000E+00  0.45593999997E+02  0.45594000000E+02  0.51100000000E-03 0. -1.
         11   -1    0    0    0    0 -0.00000000000E+00 -0.00000000000E+00 -0.45593999997E+02  0.45594000000E+02  0.51100000000E-03 0.  1.
    9900012    2    1    2    0    0  0.30333010030E+02  0.86181597967E+01  0.47282160310E+01  0.59301949718E+02  0.50000010377E+02 0.  0.
        -12    1    1    2    0    0 -0.30333010030E+02 -0.86181597967E+01 -0.47282160310E+01  0.31886050282E+02  0.00000000000E+00 0.  1.
         11    1    3    3    0    0 -0.18763347292E+01 -0.77671221551E+00  0.22644388027E+01  0.30416438375E+01  0.51100000000E-03 0. -1.
        -11    1    3    3    0    0 -0.37160143684E+01 -0.97954881818E+01 -0.91472537129E+01  0.13908004970E+02  0.51100000000E-03 0.  1.
         12    1    3    3    0    0  0.35925359128E+02  0.19190360194E+02  0.11611030941E+02  0.42352300910E+02  0.00000000000E+00 0. -1.
</event>
<event>
 7    1  0.3802554E-013  0.5930189E+02  0.7816164E-02  0.1266605E+00
        -11   -1    0    0    0    0  0.00000000000E+00  0.00000000000E+00  0.45593999997E+02  0.45594000000E+02  0.51100000000E-03 0.  1.
         11   -1    0    0    0    0 -0.00000000000E+00 -0.00000000000E+00 -0.45593999997E+02  0.45594000000E+02  0.51100000000E-03 0. -1.
    9900012    2    1    2    0    0  0.44937722289E+01 -0.82521772266E+01 -0.30470178047E+02  0.59301887537E+02  0.49999896974E+02 0.  0.
        -12    1    1    2    0    0 -0.44937722289E+01  0.82521772266E+01  0.30470178047E+02  0.31886112463E+02  0.00000000000E+00 0.  1.
         11    1    3    3    0    0  0.48291092352E+01  0.60144079731E+01 -0.11868249041E+02  0.14154459892E+02  0.51100000000E-03 0. -1.
        -11    1    3    3    0    0  0.78072064355E+00 -0.93301382131E-01  0.11673536087E+02  0.11699986107E+02  0.51100000000E-03 0.  1.
         12    1    3    3    0    0 -0.11160576499E+01 -0.14173283817E+02 -0.30275465093E+02  0.33447441538E+02  0.00000000000E+00 0. -1.
</event>
<event>
 7    1  0.3802554E-013  0.5930195E+02  0.7816164E-02  0.1266605E+00
        -11   -1    0    0    0    0  0.00000000000E+00  0.00000000000E+00  0.45593999997E+02  0.45594000000E+02  0.51100000000E-03 0. -1.
         11   -1    0    0    0    0 -0.00000000000E+00 -0.00000000000E+00 -0.45593999997E+02  0.45594000000E+02  0.51100000000E-03 0.  1.
    9900012    2    1    2    0    0  0.16084572580E+02  0.10063700967E+02  0.25626714023E+02  0.59301952521E+02  0.50000015489E+02 0.  0.
        -12    1    1    2    0    0 -0.16084572580E+02 -0.10063700967E+02 -0.25626714023E+02  0.31886047479E+02  0.00000000000E+00 0.  1.
         11    1    3    3    0    0 -0.14669854309E+01 -0.25974502954E+00  0.26887821015E+01  0.30739328531E+01  0.51100000000E-03 0. -1.
        -11    1    3    3    0    0  0.36290332248E+01  0.79456343380E+01  0.35966800963E+02  0.37012346034E+02  0.51100000000E-03 0.  1.
        -12    1    3    3    0    0  0.13922524786E+02  0.23778116584E+01 -0.13028869041E+02  0.19215673634E+02  0.00000000000E+00 0.  1.
</event>
<event>
 7    1  0.3802554E-013  0.5930194E+02  0.7816164E-02  0.1266605E+00
        -11   -1    0    0    0    0  0.00000000000E+00  0.00000000000E+00  0.45593999997E+02  0.45594000000E+02  0.51100000000E-03 0.  1.
         11   -1    0    0    0    0 -0.00000000000E+00 -0.00000000000E+00 -0.45593999997E+02  0.45594000000E+02  0.51100000000E-03 0. -1.
    9900012    2    1    2    0    0  0.13119332981E+02 -0.23223819767E+02 -0.17471644147E+02  0.59301936404E+02  0.49999986096E+02 0.  0.
        -12    1    1    2    0    0 -0.13119332981E+02  0.23223819767E+02  0.17471644147E+02  0.31886063596E+02  0.00000000000E+00 0.  1.
         11    1    3    3    0    0 -0.44391461681E+00 -0.13133827612E+02  0.92361700037E+01  0.16062419635E+02  0.51100000000E-03 0. -1.
        -11    1    3    3    0    0  0.18501727907E+02 -0.16994850176E+02 -0.16949900473E+02  0.30305741937E+02  0.51100000000E-03 0.  1.
         12    1    3    3    0    0 -0.49384803092E+01  0.69048580211E+01 -0.97579136780E+01  0.12933774832E+02  0.00000000000E+00 0. -1.
</event>
<event>
 7    1  0.3802554E-013  0.5930195E+02  0.7816164E-02  0.1266605E+00
        -11   -1    0    0    0    0  0.00000000000E+00  0.00000000000E+00  0.45593999997E+02  0.45594000000E+02  0.51100000000E-03 0.  1.
         11   -1    0    0    0    0 -0.00000000000E+00 -0.00000000000E+00 -0.45593999997E+02  0.45594000000E+02  0.51100000000E-03 0. -1.
    9900012    2    1    2    0    0  0.69432484657E+01 -0.30603639544E+02 -0.56505493323E+01  0.59301950380E+02  0.50000011586E+02 0.  0.
        -12    1    1    2    0    0 -0.69432484657E+01  0.30603639544E+02  0.56505493323E+01  0.31886049620E+02  0.00000000000E+00 0.  1.
         11    1    3    3    0    0  0.15438511928E+02 -0.23494685500E+02 -0.44018590637E+01  0.28455654284E+02  0.51100000000E-03 0. -1.
        -11    1    3    3    0    0  0.61016095067E+01 -0.13551047760E+02 -0.86284011006E+00  0.14886404109E+02  0.51100000000E-03 0.  1.
        -12    1    3    3    0    0 -0.14596872969E+02  0.64420937159E+01 -0.38585015859E+00  0.15959891987E+02  0.00000000000E+00 0.  1.
</event>
<event>
 7    1  0.3802554E-013  0.5930197E+02  0.7816164E-02  0.1266605E+00
        -11   -1    0    0    0    0  0.00000000000E+00  0.00000000000E+00  0.45593999997E+02  0.45594000000E+02  0.51100000000E-03 0.  1.
         11   -1    0    0    0    0 -0.00000000000E+00 -0.00000000000E+00 -0.45593999997E+02  0.45594000000E+02  0.51100000000E-03 0. -1.
    9900012    2    1    2    0    0 -0.23409833487E+02 -0.11395402481E+02 -0.18407701843E+02  0.59301968752E+02  0.50000045092E+02 0.  0.
        -12    1    1    2    0    0  0.23409833487E+02  0.11395402481E+02  0.18407701843E+02  0.31886031248E+02  0.00000000000E+00 0.  1.
         11    1    3    3    0    0  0.37113491403E-01 -0.11942850072E+02  0.32298495693E+01  0.12371943007E+02  0.51100000000E-03 0.  1.
        -11    1    3    3    0    0 -0.28955556580E+02  0.90839423927E+01 -0.11155570081E+02  0.32332476093E+02  0.51100000000E-03 0. -1.
         12    1    3    3    0    0  0.55086096009E+01 -0.85364948012E+01 -0.10481981331E+02  0.14597549652E+02  0.00000000000E+00 0. -1.
</event>
<event>
 7    1  0.3802554E-013  0.5930193E+02  0.7816164E-02  0.1266605E+00
        -11   -1    0    0    0    0  0.00000000000E+00  0.00000000000E+00  0.45593999997E+02  0.45594000000E+02  0.51100000000E-03 0.  1.
         11   -1    0    0    0    0 -0.00000000000E+00 -0.00000000000E+00 -0.45593999997E+02  0.45594000000E+02  0.51100000000E-03 0. -1.
    9900012    2    1    2    0    0 -0.16648210023E+02  0.88648942911E+01 -0.25709373816E+02  0.59301934865E+02  0.49999983290E+02 0.  0.
        -12    1    1    2    0    0  0.16648210023E+02 -0.88648942911E+01  0.25709373816E+02  0.31886065135E+02  0.00000000000E+00 0.  1.
         11    1    3    3    0    0 -0.13955247868E+02  0.13900085342E+02 -0.16079136496E+02  0.25426363214E+02  0.51100000000E-03 0.  1.
        -11    1    3    3    0    0  0.55169269699E+01 -0.95566836114E+01 -0.18129142805E+02  0.21223395203E+02  0.51100000000E-03 0. -1.
         12    1    3    3    0    0 -0.82098891253E+01  0.45214925603E+01  0.84989054853E+01  0.12652176448E+02  0.00000000000E+00 0. -1.
</event>
<event>
 7    1  0.3802554E-013  0.5930195E+02  0.7816164E-02  0.1266605E+00
        -11   -1    0    0    0    0  0.00000000000E+00  0.00000000000E+00  0.45593999997E+02  0.45594000000E+02  0.51100000000E-03 0. -1.
         11   -1    0    0    0    0 -0.00000000000E+00 -0.00000000000E+00 -0.45593999997E+02  0.45594000000E+02  0.51100000000E-03 0.  1.
    9900012    2    1    2    0    0  0.13452993195E+02 -0.27434557141E+01  0.28778643174E+02  0.59301954806E+02  0.50000019658E+02 0.  0.
        -12    1    1    2    0    0 -0.13452993195E+02  0.27434557141E+01 -0.28778643174E+02  0.31886045194E+02  0.00000000000E+00 0.  1.
         11    1    3    3    0    0  0.10686386587E+01 -0.94220119497E+01  0.51325804681E+01  0.10782378230E+02  0.51100000000E-03 0. -1.
        -11    1    3    3    0    0  0.17644050015E+02 -0.31503832182E+01 -0.43003673942E+01  0.18431781665E+02  0.51100000000E-03 0.  1.
        -12    1    3    3    0    0 -0.52596954787E+01  0.98289394538E+01  0.27946430100E+02  0.30087794912E+02  0.00000000000E+00 0.  1.
</event>
<event>
 7    1  0.3802554E-013  0.5930193E+02  0.7816164E-02  0.1266605E+00
        -11   -1    0    0    0    0  0.00000000000E+00  0.00000000000E+00  0.45593999997E+02  0.45594000000E+02  0.51100000000E-03 0.  1.
         11   -1    0    0    0    0 -0.00000000000E+00 -0.00000000000E+00 -0.45593999997E+02  0.45594000000E+02  0.51100000000E-03 0. -1.
    9900012    2    1    2    0    0 -0.57682513373E+01 -0.22063601721E+02 -0.22285556917E+02  0.59301932643E+02  0.49999979237E+02 0.  0.
        -12    1    1    2    0    0  0.57682513373E+01  0.22063601721E+02  0.22285556917E+02  0.31886067357E+02  0.00000000000E+00 0.  1.
         11    1    3    3    0    0 -0.11858981730E+02 -0.87529771953E+01 -0.39939189638E+01  0.15270934693E+02  0.51100000000E-03 0. -1.
        -11    1    3    3    0    0 -0.15268355828E+02 -0.10390501924E+02 -0.76575712619E+01  0.19993089252E+02  0.51100000000E-03 0.  1.
        -12    1    3    3    0    0  0.21359086221E+02 -0.29201226013E+01 -0.10634066691E+02  0.24037908698E+02  0.00000000000E+00 0.  1.
</event>
<event>
 7    1  0.3802554E-013  0.5930195E+02  0.7816164E-02  0.1266605E+00
        -11   -1    0    0    0    0  0.00000000000E+00  0.00000000000E+00  0.45593999997E+02  0.45594000000E+02  0.51100000000E-03 0. -1.
         11   -1    0    0    0    0 -0.00000000000E+00 -0.00000000000E+00 -0.45593999997E+02  0.45594000000E+02  0.51100000000E-03 0.  1.
    9900012    2    1    2    0    0 -0.21578543561E+02  0.21514858162E+02 -0.93913371606E+01  0.59301954814E+02  0.50000019672E+02 0.  0.
        -12    1    1    2    0    0  0.21578543561E+02 -0.21514858162E+02  0.93913371606E+01  0.31886045186E+02  0.00000000000E+00 0.  1.
         11    1    3    3    0    0  0.49401667519E+01 -0.90081432534E+01  0.32679056051E+01  0.10781052811E+02  0.51100000000E-03 0. -1.
        -11    1    3    3    0    0  0.24034992456E+01  0.11312349164E+02 -0.20135262699E-02  0.11564863015E+02  0.51100000000E-03 0.  1.
        -12    1    3    3    0    0 -0.28922209559E+02  0.19210652251E+02 -0.12657229239E+02  0.36956038988E+02  0.00000000000E+00 0.  1.
</event>
<event>
 7    1  0.3802554E-013  0.5930195E+02  0.7816164E-02  0.1266605E+00
        -11   -1    0    0    0    0  0.00000000000E+00  0.00000000000E+00  0.45593999997E+02  0.45594000000E+02  0.51100000000E-03 0. -1.
         11   -1    0    0    0    0 -0.00000000000E+00 -0.00000000000E+00 -0.45593999997E+02  0.45594000000E+02  0.51100000000E-03 0.  1.
    9900012    2    1    2    0    0 -0.12834193716E+02 -0.11900257106E+02  0.26653091912E+02  0.59301953584E+02  0.50000017429E+02 0.  0.
        -12    1    1    2    0    0  0.12834193716E+02  0.11900257106E+02 -0.26653091912E+02  0.31886046416E+02  0.00000000000E+00 0.  1.
         11    1    3    3    0    0  0.69763096774E+00  0.96232970918E+01  0.93812924830E+01  0.13457458333E+02  0.51100000000E-03 0.  1.
        -11    1    3    3    0    0 -0.20328312328E+02 -0.67579500856E+01 -0.92852239286E+00  0.21442302245E+02  0.51100000000E-03 0. -1.
         12    1    3    3    0    0  0.67964876439E+01 -0.14765604112E+02  0.18200321822E+02  0.24402193006E+02  0.00000000000E+00 0. -1.
</event>
<event>
 7    1  0.3802554E-013  0.5930194E+02  0.7816164E-02  0.1266605E+00
        -11   -1    0    0    0    0  0.00000000000E+00  0.00000000000E+00  0.45593999997E+02  0.45594000000E+02  0.51100000000E-03 0.  1.
         11   -1    0    0    0    0 -0.00000000000E+00 -0.00000000000E+00 -0.45593999997E+02  0.45594000000E+02  0.51100000000E-03 0. -1.
    9900012    2    1    2    0    0  0.93918097445E+01 -0.32472224888E+01 -0.30298021675E+02  0.59301942520E+02  0.49999997251E+02 0.  0.
        -12    1    1    2    0    0 -0.93918097445E+01  0.32472224888E+01  0.30298021675E+02  0.31886057480E+02  0.00000000000E+00 0.  1.
         11    1    3    3    0    0 -0.58213098769E+01 -0.13100284580E+02 -0.61416670212E+00  0.14348599435E+02  0.51100000000E-03 0. -1.
        -11    1    3    3    0    0  0.16111945092E+02 -0.63282791449E+01 -0.12635569248E+02  0.21431273925E+02  0.51100000000E-03 0.  1.
         12    1    3    3    0    0 -0.89882547048E+00  0.16181341236E+02 -0.17048285725E+02  0.23522069160E+02  0.00000000000E+00 0. -1.
</event>
<event>
 7    1  0.3802554E-013  0.5930192E+02  0.7816164E-02  0.1266605E+00
        -11   -1    0    0    0    0  0.00000000000E+00  0.00000000000E+00  0.45593999997E+02  0.45594000000E+02  0.51100000000E-03 0. -1.
         11   -1    0    0    0    0 -0.00000000000E+00 -0.00000000000E+00 -0.45593999997E+02  0.45594000000E+02  0.51100000000E-03 0.  1.
    9900012    2    1    2    0    0  0.32795191367E+01 -0.70091156736E+01  0.30932820805E+02  0.59301916025E+02  0.49999948930E+02 0.  0.
        -12    1    1    2    0    0 -0.32795191367E+01  0.70091156736E+01 -0.30932820805E+02  0.31886083975E+02  0.00000000000E+00 0.  1.
         11    1    3    3    0    0  0.11534504934E+02  0.12465501548E+02 -0.91091386225E+00  0.17007742273E+02  0.51100000000E-03 0. -1.
        -11    1    3    3    0    0  0.12472797301E+01  0.20895919818E+01 -0.28474128786E+00  0.24501386160E+01  0.51100000000E-03 0.  1.
        -12    1    3    3    0    0 -0.95022655270E+01 -0.21564209203E+02  0.32128475955E+02  0.39844035136E+02  0.00000000000E+00 0.  1.
</event>
<event>
 7    1  0.3802554E-013  0.5930194E+02  0.7816164E-02  0.1266605E+00
        -11   -1    0    0    0    0  0.00000000000E+00  0.00000000000E+00  0.45593999997E+02  0.45594000000E+02  0.51100000000E-03 0.  1.
         11   -1    0    0    0    0 -0.00000000000E+00 -0.00000000000E+00 -0.45593999997E+02  0.45594000000E+02  0.51100000000E-03 0. -1.
    9900012    2    1    2    0    0 -0.12018160310E+02  0.13132445773E+02 -0.26454182485E+02  0.59301935957E+02  0.49999985281E+02 0.  0.
        -12    1    1    2    0    0  0.12018160310E+02 -0.13132445773E+02  0.26454182485E+02  0.31886064043E+02  0.00000000000E+00 0.  1.
         11    1    3    3    0    0  0.46173326067E+01  0.44337899109E+01  0.75028518474E+01  0.98626081480E+01  0.51100000000E-03 0. -1.
        -11    1    3    3    0    0 -0.79934645688E+01 -0.13617964168E+01  0.41366985289E+01  0.91028698922E+01  0.51100000000E-03 0.  1.
        -12    1    3    3    0    0 -0.86420283480E+01  0.10060452278E+02 -0.38093732861E+02  0.40336457917E+02  0.00000000000E+00 0.  1.
</event>
<event>
 7    1  0.3802554E-013  0.5930207E+02  0.7816164E-02  0.1266604E+00
        -11   -1    0    0    0    0  0.00000000000E+00  0.00000000000E+00  0.45593999997E+02  0.45594000000E+02  0.51100000000E-03 0. -1.
         11   -1    0    0    0    0 -0.00000000000E+00 -0.00000000000E+00 -0.45593999997E+02  0.45594000000E+02  0.51100000000E-03 0.  1.
    9900012    2    1    2    0    0  0.13725239623E+02 -0.17996137599E+02  0.22460394155E+02  0.59302070865E+02  0.50000231321E+02 0.  0.
        -12    1    1    2    0    0 -0.13725239623E+02  0.17996137599E+02 -0.22460394155E+02  0.31885929135E+02  0.00000000000E+00 0.  1.
         11    1    3    3    0    0  0.16691258105E+02 -0.20835770723E+02  0.21001717941E+02  0.33967625697E+02  0.51100000000E-03 0. -1.
        -11    1    3    3    0    0  0.79705853410E+01  0.60247987036E+01 -0.60602507673E+01  0.11685677974E+02  0.51100000000E-03 0.  1.
         12    1    3    3    0    0 -0.10936603824E+02 -0.31851655799E+01  0.75189269809E+01  0.13648767194E+02  0.00000000000E+00 0. -1.
</event>
<event>
 7    1  0.3802554E-013  0.5930193E+02  0.7816164E-02  0.1266605E+00
        -11   -1    0    0    0    0  0.00000000000E+00  0.00000000000E+00  0.45593999997E+02  0.45594000000E+02  0.51100000000E-03 0.  1.
         11   -1    0    0    0    0 -0.00000000000E+00 -0.00000000000E+00 -0.45593999997E+02  0.45594000000E+02  0.51100000000E-03 0. -1.
    9900012    2    1    2    0    0  0.28726945270E+02  0.13476043025E+02 -0.31433051028E+01  0.59301929575E+02  0.49999973642E+02 0.  0.
        -12    1    1    2    0    0 -0.28726945270E+02 -0.13476043025E+02  0.31433051028E+01  0.31886070425E+02  0.00000000000E+00 0.  1.
         11    1    3    3    0    0 -0.77652806679E+01 -0.68705805837E+01 -0.57042600260E+01  0.11833978372E+02  0.51100000000E-03 0. -1.
        -11    1    3    3    0    0  0.10438262032E+02  0.13261717249E+02 -0.77432046505E+01  0.18568459203E+02  0.51100000000E-03 0.  1.
        -12    1    3    3    0    0  0.26053963906E+02  0.70849063604E+01  0.10304159574E+02  0.28899492000E+02  0.00000000000E+00 0.  1.
</event>
<event>
 7    1  0.3802554E-013  0.5930194E+02  0.7816164E-02  0.1266605E+00
        -11   -1    0    0    0    0  0.00000000000E+00  0.00000000000E+00  0.45593999997E+02  0.45594000000E+02  0.51100000000E-03 0.  1.
         11   -1    0    0    0    0 -0.00000000000E+00 -0.00000000000E+00 -0.45593999997E+02  0.45594000000E+02  0.51100000000E-03 0. -1.
    9900012    2    1    2    0    0  0.27385872177E+02  0.13419370000E+02  0.93088712838E+01  0.59301943946E+02  0.49999999851E+02 0.  0.
        -12    1    1    2    0    0 -0.27385872177E+02 -0.13419370000E+02 -0.93088712838E+01  0.31886056054E+02  0.00000000000E+00 0.  1.
         11    1    3    3    0    0  0.32170273576E+02 -0.76820788151E+00 -0.74319952989E+01  0.33026522670E+02  0.51100000000E-03 0. -1.
        -11    1    3    3    0    0 -0.19026297560E+01  0.50293625156E+01 -0.15686749742E+01  0.56013595437E+01  0.51100000000E-03 0.  1.
        -12    1    3    3    0    0 -0.28817716424E+01  0.91582153657E+01  0.18309541557E+02  0.20674061732E+02  0.00000000000E+00 0.  1.
</event>
<event>
 7    1  0.3802554E-013  0.5930193E+02  0.7816164E-02  0.1266605E+00
        -11   -1    0    0    0    0  0.00000000000E+00  0.00000000000E+00  0.45593999997E+02  0.45594000000E+02  0.51100000000E-03 0.  1.
         11   -1    0    0    0    0 -0.00000000000E+00 -0.00000000000E+00 -0.45593999997E+02  0.45594000000E+02  0.51100000000E-03 0. -1.
    9900012    2    1    2    0    0 -0.54665769229E+01 -0.25147020978E+02  0.18827242722E+02  0.59301934143E+02  0.49999981973E+02 0.  0.
        -12    1    1    2    0    0  0.54665769229E+01  0.25147020978E+02 -0.18827242722E+02  0.31886065857E+02  0.00000000000E+00 0.  1.
         11    1    3    3    0    0 -0.16457725967E+02 -0.11681413216E+02  0.17232421209E+02  0.26538057572E+02  0.51100000000E-03 0. -1.
        -11    1    3    3    0    0 -0.10064382354E+00  0.18653093342E+01  0.11330630461E+02  0.11483583717E+02  0.51100000000E-03 0.  1.
         12    1    3    3    0    0  0.11091792868E+02 -0.15330917097E+02 -0.97358089479E+01  0.21280292853E+02  0.00000000000E+00 0. -1.
</event>
<event>
 7    1  0.3802554E-013  0.5930192E+02  0.7816164E-02  0.1266605E+00
        -11   -1    0    0    0    0  0.00000000000E+00  0.00000000000E+00  0.45593999997E+02  0.45594000000E+02  0.51100000000E-03 0.  1.
         11   -1    0    0    0    0 -0.00000000000E+00 -0.00000000000E+00 -0.45593999997E+02  0.45594000000E+02  0.51100000000E-03 0. -1.
    9900012    2    1    2    0    0  0.54936389106E+01  0.69044192797E+01 -0.30641000040E+02  0.59301922199E+02  0.49999960189E+02 0.  0.
        -12    1    1    2    0    0 -0.54936389106E+01 -0.69044192797E+01  0.30641000040E+02  0.31886077801E+02  0.00000000000E+00 0.  1.
         11    1    3    3    0    0  0.15437978005E+01  0.15990078040E+01  0.70785165937E+01  0.74192678234E+01  0.51100000000E-03 0. -1.
        -11    1    3    3    0    0  0.65884476130E+01  0.60989026723E+01  0.41724439770E+01  0.99001790265E+01  0.51100000000E-03 0.  1.
         12    1    3    3    0    0 -0.26386065029E+01 -0.79349119660E+00 -0.41891960611E+02  0.41982475349E+02  0.00000000000E+00 0. -1.
</event>
<event>
 7    1  0.3802554E-013  0.5930193E+02  0.7816164E-02  0.1266605E+00
        -11   -1    0    0    0    0  0.00000000000E+00  0.00000000000E+00  0.45593999997E+02  0.45594000000E+02  0.51100000000E-03 0.  1.
         11   -1    0    0    0    0 -0.00000000000E+00 -0.00000000000E+00 -0.45593999997E+02  0.45594000000E+02  0.51100000000E-03 0. -1.
    9900012    2    1    2    0    0 -0.10484085902E+02 -0.27016469699E+02 -0.13300964664E+02  0.59301931676E+02  0.49999977473E+02 0.  0.
        -12    1    1    2    0    0  0.10484085902E+02  0.27016469699E+02  0.13300964664E+02  0.31886068324E+02  0.00000000000E+00 0.  1.
         11    1    3    3    0    0 -0.19069577418E+01 -0.31765686594E+02 -0.92331201119E+01  0.33135265804E+02  0.51100000000E-03 0. -1.
        -11    1    3    3    0    0  0.76512450106E+01 -0.77996149390E+00  0.20566474479E+01  0.79611361708E+01  0.51100000000E-03 0.  1.
        -12    1    3    3    0    0 -0.16228373171E+02  0.55291783897E+01 -0.61244919999E+01  0.18205529701E+02  0.00000000000E+00 0.  1.
</event>
<event>
 7    1  0.3802554E-013  0.5930194E+02  0.7816164E-02  0.1266605E+00
        -11   -1    0    0    0    0  0.00000000000E+00  0.00000000000E+00  0.45593999997E+02  0.45594000000E+02  0.51100000000E-03 0.  1.
         11   -1    0    0    0    0 -0.00000000000E+00 -0.00000000000E+00 -0.45593999997E+02  0.45594000000E+02  0.51100000000E-03 0. -1.
    9900012    2    1    2    0    0 -0.17221944201E+02 -0.25584650929E+02 -0.80963554054E+01  0.59301941980E+02  0.49999996265E+02 0.  0.
        -12    1    1    2    0    0  0.17221944201E+02  0.25584650929E+02  0.80963554054E+01  0.31886058020E+02  0.00000000000E+00 0.  1.
         11    1    3    3    0    0 -0.63064269184E+01 -0.15802306611E+02  0.62568344840E+01  0.18128207102E+02  0.51100000000E-03 0. -1.
        -11    1    3    3    0    0 -0.17038228786E+02 -0.87720073237E+01  0.58517883821E+01  0.20037284751E+02  0.51100000000E-03 0.  1.
         12    1    3    3    0    0  0.61227115038E+01 -0.10103369940E+01 -0.20204978272E+02  0.21136450127E+02  0.00000000000E+00 0. -1.
</event>
<event>
 7    1  0.3802554E-013  0.5930193E+02  0.7816164E-02  0.1266605E+00
        -11   -1    0    0    0    0  0.00000000000E+00  0.00000000000E+00  0.45593999997E+02  0.45594000000E+02  0.51100000000E-03 0. -1.
         11   -1    0    0    0    0 -0.00000000000E+00 -0.00000000000E+00 -0.45593999997E+02  0.45594000000E+02  0.51100000000E-03 0.  1.
    9900012    2    1    2    0    0  0.19879980999E+02  0.24536201287E+02  0.44138888855E+01  0.59301933557E+02  0.49999980903E+02 0.  0.
        -12    1    1    2    0    0 -0.19879980999E+02 -0.24536201287E+02 -0.44138888855E+01  0.31886066443E+02  0.00000000000E+00 0.  1.
         11    1    3    3    0    0 -0.48917962243E+01  0.49046659580E+01 -0.39896676864E+01  0.79939268804E+01  0.51100000000E-03 0. -1.
        -11    1    3    3    0    0 -0.57775800708E+01 -0.46635054221E+01 -0.61598560450E+01  0.96474111062E+01  0.51100000000E-03 0.  1.
         12    1    3    3    0    0  0.30549357295E+02  0.24295040751E+02  0.14563412617E+02  0.41660595570E+02  0.00000000000E+00 0. -1.
</event>
<event>
 7    1  0.3802554E-013  0.5930194E+02  0.7816164E-02  0.1266605E+00
        -11   -1    0    0    0    0  0.00000000000E+00  0.00000000000E+00  0.45593999997E+02  0.45594000000E+02  0.51100000000E-03 0.  1.
         11   -1    0    0    0    0 -0.00000000000E+00 -0.00000000000E+00 -0.45593999997E+02  0.45594000000E+02  0.51100000000E-03 0. -1.
    9900012    2    1    2    0    0 -0.21926019421E+02  0.22918874168E+02 -0.32703841129E+01  0.59301944536E+02  0.50000000928E+02 0.  0.
        -12    1    1    2    0    0  0.21926019421E+02 -0.22918874168E+02  0.32703841129E+01  0.31886055464E+02  0.00000000000E+00 0.  1.
         11    1    3    3    0    0 -0.15078771678E+02  0.11518528158E+02 -0.67572019731E+01  0.20142135562E+02  0.51100000000E-03 0. -1.
        -11    1    3    3    0    0  0.58012507715E+01  0.13987993263E+02 -0.11765707049E+02  0.19176817480E+02  0.51100000000E-03 0.  1.
        -12    1    3    3    0    0 -0.12648498515E+02 -0.25876472523E+01  0.15252524909E+02  0.19982991495E+02  0.00000000000E+00 0.  1.
</event>
<event>
 7    1  0.3802554E-013  0.5930193E+02  0.7816164E-02  0.1266605E+00
        -11   -1    0    0    0    0  0.00000000000E+00  0.00000000000E+00  0.45593999997E+02  0.45594000000E+02  0.51100000000E-03 0.  1.
         11   -1    0    0    0    0 -0.00000000000E+00 -0.00000000000E+00 -0.45593999997E+02  0.45594000000E+02  0.51100000000E-03 0. -1.
    9900012    2    1    2    0    0 -0.29575738233E+02 -0.10699953185E+02  0.52448417666E+01  0.59301926937E+02  0.49999968831E+02 0.  0.
        -12    1    1    2    0    0  0.29575738233E+02  0.10699953185E+02 -0.52448417666E+01  0.31886073063E+02  0.00000000000E+00 0.  1.
         11    1    3    3    0    0 -0.18783747118E+01 -0.24637671868E+01 -0.10679554893E+02  0.11119862107E+02  0.51100000000E-03 0. -1.
        -11    1    3    3    0    0 -0.10125452632E+02 -0.21112754287E+02  0.10886778482E+02  0.25822376547E+02  0.51100000000E-03 0.  1.
        -12    1    3    3    0    0 -0.17571910890E+02  0.12876568289E+02  0.50376181777E+01  0.22359688283E+02  0.00000000000E+00 0.  1.
</event>
<event>
 7    1  0.3802554E-013  0.5930197E+02  0.7816164E-02  0.1266605E+00
        -11   -1    0    0    0    0  0.00000000000E+00  0.00000000000E+00  0.45593999997E+02  0.45594000000E+02  0.51100000000E-03 0.  1.
         11   -1    0    0    0    0 -0.00000000000E+00 -0.00000000000E+00 -0.45593999997E+02  0.45594000000E+02  0.51100000000E-03 0. -1.
    9900012    2    1    2    0    0  0.12115017657E+02 -0.78778307709E+01 -0.28423313588E+02  0.59301974443E+02  0.50000055470E+02 0.  0.
        -12    1    1    2    0    0 -0.12115017657E+02  0.78778307709E+01  0.28423313588E+02  0.31886025557E+02  0.00000000000E+00 0.  1.
         11    1    3    3    0    0 -0.40527281577E+01 -0.33365059342E+01 -0.21517646683E+02  0.22148724488E+02  0.51100000000E-03 0. -1.
        -11    1    3    3    0    0 -0.40262521972E+01 -0.51701401904E+01 -0.14227183862E+02  0.15663774042E+02  0.51100000000E-03 0.  1.
         12    1    3    3    0    0  0.20193998012E+02  0.62881535365E+00  0.73215169575E+01  0.21489475913E+02  0.00000000000E+00 0. -1.
</event>
<event>
 7    1  0.3802554E-013  0.5930197E+02  0.7816164E-02  0.1266605E+00
        -11   -1    0    0    0    0  0.00000000000E+00  0.00000000000E+00  0.45593999997E+02  0.45594000000E+02  0.51100000000E-03 0. -1.
         11   -1    0    0    0    0 -0.00000000000E+00 -0.00000000000E+00 -0.45593999997E+02  0.45594000000E+02  0.51100000000E-03 0.  1.
    9900012    2    1    2    0    0 -0.21465759335E+02 -0.73365350765E+01  0.22407937036E+02  0.59301965236E+02  0.50000038678E+02 0.  0.
        -12    1    1    2    0    0  0.21465759335E+02  0.73365350765E+01 -0.22407937036E+02  0.31886034764E+02  0.00000000000E+00 0.  1.
         11    1    3    3    0    0 -0.17214879516E+02 -0.16991699802E+02  0.18406020009E+02  0.30394925756E+02  0.51100000000E-03 0. -1.
        -11    1    3    3    0    0 -0.26108935179E+01 -0.75226412653E+01  0.78994645608E+01  0.11216436028E+02  0.51100000000E-03 0.  1.
        -12    1    3    3    0    0 -0.16399863012E+01  0.17177805990E+02 -0.38975475330E+01  0.17690603452E+02  0.00000000000E+00 0.  1.
</event>
<event>
 7    1  0.3802554E-013  0.5930196E+02  0.7816164E-02  0.1266605E+00
        -11   -1    0    0    0    0  0.00000000000E+00  0.00000000000E+00  0.45593999997E+02  0.45594000000E+02  0.51100000000E-03 0. -1.
         11   -1    0    0    0    0 -0.00000000000E+00 -0.00000000000E+00 -0.45593999997E+02  0.45594000000E+02  0.51100000000E-03 0.  1.
    9900012    2    1    2    0    0 -0.13370649096E+02 -0.11862582261E+01 -0.28922963143E+02  0.59301964455E+02  0.50000037255E+02 0.  0.
        -12    1    1    2    0    0  0.13370649096E+02  0.11862582261E+01  0.28922963143E+02  0.31886035545E+02  0.00000000000E+00 0.  1.
         11    1    3    3    0    0 -0.63806677058E+01  0.94263242716E+01  0.98308199756E+01  0.15040396647E+02  0.51100000000E-03 0. -1.
        -11    1    3    3    0    0 -0.36200877179E+01  0.96837987741E+00 -0.77428560051E-01  0.37481715696E+01  0.51100000000E-03 0.  1.
        -12    1    3    3    0    0 -0.33698936720E+01 -0.11580962375E+02 -0.38676354558E+02  0.40513396239E+02  0.00000000000E+00 0.  1.
</event>
<event>
 7    1  0.3802554E-013  0.5930211E+02  0.7816164E-02  0.1266604E+00
        -11   -1    0    0    0    0  0.00000000000E+00  0.00000000000E+00  0.45593999997E+02  0.45594000000E+02  0.51100000000E-03 0.  1.
         11   -1    0    0    0    0 -0.00000000000E+00 -0.00000000000E+00 -0.45593999997E+02  0.45594000000E+02  0.51100000000E-03 0. -1.
    9900012    2    1    2    0    0  0.18889007506E+02  0.25603054394E+02 -0.20974284979E+01  0.59302106486E+02  0.50000296284E+02 0.  0.
        -12    1    1    2    0    0 -0.18889007506E+02 -0.25603054394E+02  0.20974284979E+01  0.31885893514E+02  0.00000000000E+00 0.  1.
         11    1    3    3    0    0 -0.23524071468E+01  0.62173200786E+01 -0.68131964861E+01  0.95188515570E+01  0.51100000000E-03 0. -1.
        -11    1    3    3    0    0 -0.34338165871E+01  0.47139238539E+01 -0.14235914888E+02  0.15384194727E+02  0.51100000000E-03 0.  1.
         12    1    3    3    0    0  0.24675231240E+02  0.14671810462E+02  0.18951682876E+02  0.34399060202E+02  0.00000000000E+00 0. -1.
</event>
<event>
 7    1  0.3802554E-013  0.5930192E+02  0.7816164E-02  0.1266605E+00
        -11   -1    0    0    0    0  0.00000000000E+00  0.00000000000E+00  0.45593999997E+02  0.45594000000E+02  0.51100000000E-03 0. -1.
         11   -1    0    0    0    0 -0.00000000000E+00 -0.00000000000E+00 -0.45593999997E+02  0.45594000000E+02  0.51100000000E-03 0.  1.
    9900012    2    1    2    0    0 -0.16611936817E+02 -0.12218361930E+02  0.24320301580E+02  0.59301923384E+02  0.49999962350E+02 0.  0.
        -12    1    1    2    0    0  0.16611936817E+02  0.12218361930E+02 -0.24320301580E+02  0.31886076616E+02  0.00000000000E+00 0.  1.
         11    1    3    3    0    0  0.23578726364E+01 -0.14619183836E+02  0.11555477763E+02  0.18783215006E+02  0.51100000000E-03 0. -1.
        -11    1    3    3    0    0  0.62346157786E+01  0.37794852264E+01 -0.56912493297E+01  0.92490681518E+01  0.51100000000E-03 0.  1.
         12    1    3    3    0    0 -0.25204425232E+02 -0.13786633202E+01  0.18456073147E+02  0.31269640225E+02  0.00000000000E+00 0. -1.
</event>
<event>
 7    1  0.3802554E-013  0.5930173E+02  0.7816164E-02  0.1266605E+00
        -11   -1    0    0    0    0  0.00000000000E+00  0.00000000000E+00  0.45593999997E+02  0.45594000000E+02  0.51100000000E-03 0. -1.
         11   -1    0    0    0    0 -0.00000000000E+00 -0.00000000000E+00 -0.45593999997E+02  0.45594000000E+02  0.51100000000E-03 0.  1.
    9900012    2    1    2    0    0 -0.22579481809E+02  0.31454248073E+01 -0.22293661455E+02  0.59301732783E+02  0.49999614739E+02 0.  0.
        -12    1    1    2    0    0  0.22579481809E+02 -0.31454248073E+01  0.22293661455E+02  0.31886267217E+02  0.00000000000E+00 0.  1.
         11    1    3    3    0    0 -0.33279861355E+01  0.57875747265E+01  0.10265425027E+02  0.12245426256E+02  0.51100000000E-03 0. -1.
        -11    1    3    3    0    0  0.69265471363E+01 -0.31478984711E+01 -0.53884939224E+01  0.93232069069E+01  0.51100000000E-03 0.  1.
        -12    1    3    3    0    0 -0.26178042810E+02  0.50574855194E+00 -0.27170592559E+02  0.37733099621E+02  0.00000000000E+00 0.  1.
</event>
<event>
 7    1  0.3802554E-013  0.5930194E+02  0.7816164E-02  0.1266605E+00
        -11   -1    0    0    0    0  0.00000000000E+00  0.00000000000E+00  0.45593999997E+02  0.45594000000E+02  0.51100000000E-03 0.  1.
         11   -1    0    0    0    0 -0.00000000000E+00 -0.00000000000E+00 -0.45593999997E+02  0.45594000000E+02  0.51100000000E-03 0. -1.
    9900012    2    1    2    0    0  0.15124320908E+02 -0.16440754208E+02 -0.22752517690E+02  0.59301944379E+02  0.50000000640E+02 0.  0.
        -12    1    1    2    0    0 -0.15124320908E+02  0.16440754208E+02  0.22752517690E+02  0.31886055621E+02  0.00000000000E+00 0.  1.
         11    1    3    3    0    0  0.86048727227E+01 -0.71248191329E+01  0.67420056318E+01  0.13048429885E+02  0.51100000000E-03 0. -1.
        -11    1    3    3    0    0  0.71273840336E+01 -0.67733460965E+01  0.54293687601E+01  0.11231912834E+02  0.51100000000E-03 0.  1.
         12    1    3    3    0    0 -0.60793584845E+00 -0.25425889788E+01 -0.34923892082E+02  0.35021601660E+02  0.00000000000E+00 0. -1.
</event>
<event>
 7    1  0.3802554E-013  0.5930173E+02  0.7816164E-02  0.1266606E+00
        -11   -1    0    0    0    0  0.00000000000E+00  0.00000000000E+00  0.45593999997E+02  0.45594000000E+02  0.51100000000E-03 0.  1.
         11   -1    0    0    0    0 -0.00000000000E+00 -0.00000000000E+00 -0.45593999997E+02  0.45594000000E+02  0.51100000000E-03 0. -1.
    9900012    2    1    2    0    0  0.11809310889E+02 -0.24327481837E+02 -0.16895205655E+02  0.59301730693E+02  0.49999610928E+02 0.  0.
        -12    1    1    2    0    0 -0.11809310889E+02  0.24327481837E+02  0.16895205655E+02  0.31886269307E+02  0.00000000000E+00 0.  1.
         11    1    3    3    0    0 -0.92692817861E+01 -0.70160398227E+01 -0.23393053969E+00  0.11627515787E+02  0.51100000000E-03 0. -1.
        -11    1    3    3    0    0 -0.93600018843E+01 -0.83145694057E+01 -0.76803060012E+01  0.14687709155E+02  0.51100000000E-03 0.  1.
         12    1    3    3    0    0  0.30438594559E+02 -0.89968726084E+01 -0.89809691138E+01  0.32986505751E+02  0.00000000000E+00 0. -1.
</event>
<event>
 7    1  0.3802554E-013  0.5930196E+02  0.7816164E-02  0.1266605E+00
        -11   -1    0    0    0    0  0.00000000000E+00  0.00000000000E+00  0.45593999997E+02  0.45594000000E+02  0.51100000000E-03 0. -1.
         11   -1    0    0    0    0 -0.00000000000E+00 -0.00000000000E+00 -0.45593999997E+02  0.45594000000E+02  0.51100000000E-03 0.  1.
    9900012    2    1    2    0    0 -0.18871383951E+01 -0.60642018078E+01  0.31247144099E+02  0.59301955259E+02  0.50000020483E+02 0.  0.
        -12    1    1    2    0    0  0.18871383951E+01  0.60642018078E+01 -0.31247144099E+02  0.31886044741E+02  0.00000000000E+00 0.  1.
         11    1    3    3    0    0 -0.48994205987E+01  0.85588533081E+00  0.16923579272E+02  0.17639285631E+02  0.51100000000E-03 0. -1.
        -11    1    3    3    0    0 -0.63588551586E+01  0.50775317492E+01 -0.10046350063E+02  0.12928476997E+02  0.51100000000E-03 0.  1.
         12    1    3    3    0    0  0.93711373622E+01 -0.11997618888E+02  0.24369914890E+02  0.28734192632E+02  0.00000000000E+00 0. -1.
</event>
<event>
 7    1  0.3802554E-013  0.5930196E+02  0.7816164E-02  0.1266605E+00
        -11   -1    0    0    0    0  0.00000000000E+00  0.00000000000E+00  0.45593999997E+02  0.45594000000E+02  0.51100000000E-03 0. -1.
         11   -1    0    0    0    0 -0.00000000000E+00 -0.00000000000E+00 -0.45593999997E+02  0.45594000000E+02  0.51100000000E-03 0.  1.
    9900012    2    1    2    0    0  0.53889813160E+01  0.51681463930E+01  0.30999498494E+02  0.59301956601E+02  0.50000022930E+02 0.  0.
        -12    1    1    2    0    0 -0.53889813160E+01 -0.51681463930E+01 -0.30999498494E+02  0.31886043399E+02  0.00000000000E+00 0.  1.
         11    1    3    3    0    0  0.88216661985E+00 -0.75614931585E+01  0.38767993811E+01  0.85430656344E+01  0.51100000000E-03 0. -1.
        -11    1    3    3    0    0  0.21400537839E+02  0.13045648587E+02  0.21285718580E+02  0.32882423611E+02  0.51100000000E-03 0.  1.
         12    1    3    3    0    0 -0.16893723143E+02 -0.31600903555E+00  0.58369805338E+01  0.17876467355E+02  0.00000000000E+00 0. -1.
</event>
<event>
 7    1  0.3802554E-013  0.5930194E+02  0.7816164E-02  0.1266605E+00
        -11   -1    0    0    0    0  0.00000000000E+00  0.00000000000E+00  0.45593999997E+02  0.45594000000E+02  0.51100000000E-03 0.  1.
         11   -1    0    0    0    0 -0.00000000000E+00 -0.00000000000E+00 -0.45593999997E+02  0.45594000000E+02  0.51100000000E-03 0. -1.
    9900012    2    1    2    0    0  0.11884493516E+02  0.66769985187E+01 -0.28825295114E+02  0.59301935116E+02  0.49999983748E+02 0.  0.
        -12    1    1    2    0    0 -0.11884493516E+02 -0.66769985187E+01  0.28825295114E+02  0.31886064884E+02  0.00000000000E+00 0.  1.
         11    1    3    3    0    0 -0.29602502651E+01 -0.71240315549E+01  0.20994076763E+01  0.79951497847E+01  0.51100000000E-03 0. -1.
        -11    1    3    3    0    0  0.90559584673E+01  0.21276074442E+02 -0.49255572006E+01  0.23641972029E+02  0.51100000000E-03 0.  1.
         12    1    3    3    0    0  0.57887853142E+01 -0.74750443679E+01 -0.25999145590E+02  0.27664813303E+02  0.00000000000E+00 0. -1.
</event>
<event>
 7    1  0.3802554E-013  0.5930194E+02  0.7816164E-02  0.1266605E+00
        -11   -1    0    0    0    0  0.00000000000E+00  0.00000000000E+00  0.45593999997E+02  0.45594000000E+02  0.51100000000E-03 0. -1.
         11   -1    0    0    0    0 -0.00000000000E+00 -0.00000000000E+00 -0.45593999997E+02  0.45594000000E+02  0.51100000000E-03 0.  1.
    9900012    2    1    2    0    0 -0.17562898329E+02  0.26287719767E+02  0.41498431473E+01  0.59301940250E+02  0.49999993110E+02 0.  0.
        -12    1    1    2    0    0  0.17562898329E+02 -0.26287719767E+02 -0.41498431473E+01  0.31886059750E+02  0.00000000000E+00 0.  1.
         11    1    3    3    0    0 -0.15289684119E+02  0.26499608404E+02  0.22805473852E+01  0.30679057721E+02  0.51100000000E-03 0. -1.
        -11    1    3    3    0    0 -0.74877507645E+01  0.72424758441E+01  0.11403153534E+02  0.15445121516E+02  0.51100000000E-03 0.  1.
        -12    1    3    3    0    0  0.52145365539E+01 -0.74543644811E+01 -0.95338577721E+01  0.13177761013E+02  0.00000000000E+00 0.  1.
</event>
<event>
 7    1  0.3802554E-013  0.5930196E+02  0.7816164E-02  0.1266605E+00
        -11   -1    0    0    0    0  0.00000000000E+00  0.00000000000E+00  0.45593999997E+02  0.45594000000E+02  0.51100000000E-03 0.  1.
         11   -1    0    0    0    0 -0.00000000000E+00 -0.00000000000E+00 -0.45593999997E+02  0.45594000000E+02  0.51100000000E-03 0. -1.
    9900012    2    1    2    0    0 -0.31872609156E+01 -0.27645337003E+02 -0.15565868786E+02  0.59301959776E+02  0.50000028720E+02 0.  0.
        -12    1    1    2    0    0  0.31872609156E+01  0.27645337003E+02  0.15565868786E+02  0.31886040224E+02  0.00000000000E+00 0.  1.
         11    1    3    3    0    0 -0.65256122434E+01 -0.61485857961E+01 -0.10640623304E+02  0.13914438077E+02  0.51100000000E-03 0. -1.
        -11    1    3    3    0    0  0.37869704690E+01  0.81752365536E+01 -0.11878057452E+02  0.14908517268E+02  0.51100000000E-03 0.  1.
        -12    1    3    3    0    0 -0.44861914125E+00 -0.29671987760E+02  0.69528119702E+01  0.30479004431E+02  0.00000000000E+00 0.  1.
</event>
<event>
 7    1  0.3802554E-013  0.5930192E+02  0.7816164E-02  0.1266605E+00
        -11   -1    0    0    0    0  0.00000000000E+00  0.00000000000E+00  0.45593999997E+02  0.45594000000E+02  0.51100000000E-03 0.  1.
         11   -1    0    0    0    0 -0.00000000000E+00 -0.00000000000E+00 -0.45593999997E+02  0.45594000000E+02  0.51100000000E-03 0. -1.
    9900012    2    1    2    0    0 -0.31311494895E+02 -0.60257004840E+01 -0.56264946741E-01  0.59301922401E+02  0.49999960558E+02 0.  0.
        -12    1    1    2    0    0  0.31311494895E+02  0.60257004840E+01  0.56264946741E-01  0.31886077599E+02  0.00000000000E+00 0.  1.
         11    1    3    3    0    0  0.62677878112E+01 -0.26121110616E+01 -0.83225286282E+01  0.10741171783E+02  0.51100000000E-03 0. -1.
        -11    1    3    3    0    0  0.37112596371E+01  0.13530980168E+01 -0.35902410989E+01  0.53379915461E+01  0.51100000000E-03 0.  1.
        -12    1    3    3    0    0 -0.41290542344E+02 -0.47666874392E+01  0.11856504780E+02  0.43222759072E+02  0.00000000000E+00 0.  1.
</event>
<event>
 7    1  0.3802554E-013  0.5930181E+02  0.7816164E-02  0.1266605E+00
        -11   -1    0    0    0    0  0.00000000000E+00  0.00000000000E+00  0.45593999997E+02  0.45594000000E+02  0.51100000000E-03 0.  1.
         11   -1    0    0    0    0 -0.00000000000E+00 -0.00000000000E+00 -0.45593999997E+02  0.45594000000E+02  0.51100000000E-03 0. -1.
    9900012    2    1    2    0    0 -0.71749446574E+01 -0.10559550119E+02 -0.29218919910E+02  0.59301808470E+02  0.49999752775E+02 0.  0.
        -12    1    1    2    0    0  0.71749446574E+01  0.10559550119E+02  0.29218919910E+02  0.31886191530E+02  0.00000000000E+00 0.  1.
         11    1    3    3    0    0 -0.32363224631E+01 -0.13733820728E+02  0.29424036482E+01  0.14413512908E+02  0.51100000000E-03 0.  1.
        -11    1    3    3    0    0 -0.10017928657E+02 -0.10188586959E+02 -0.73728711846E+01  0.16078725962E+02  0.51100000000E-03 0. -1.
        -12    1    3    3    0    0  0.60793064626E+01  0.13362857568E+02 -0.24788452374E+02  0.28809569600E+02  0.00000000000E+00 0.  1.
</event>
<event>
 7    1  0.3802554E-013  0.5930195E+02  0.7816164E-02  0.1266605E+00
        -11   -1    0    0    0    0  0.00000000000E+00  0.00000000000E+00  0.45593999997E+02  0.45594000000E+02  0.51100000000E-03 0.  1.
         11   -1    0    0    0    0 -0.00000000000E+00 -0.00000000000E+00 -0.45593999997E+02  0.45594000000E+02  0.51100000000E-03 0. -1.
    9900012    2    1    2    0    0  0.29782688588E+02 -0.93380971759E+01  0.65200714915E+01  0.59301953982E+02  0.50000018155E+02 0.  0.
        -12    1    1    2    0    0 -0.29782688588E+02  0.93380971759E+01 -0.65200714915E+01  0.31886046018E+02  0.00000000000E+00 0.  1.
         11    1    3    3    0    0 -0.27758582667E+01  0.11023117983E+01 -0.10357480175E+02  0.10779511875E+02  0.51100000000E-03 0. -1.
        -11    1    3    3    0    0  0.66773170134E+01  0.10182681483E+02  0.67074108722E+01  0.13901903667E+02  0.51100000000E-03 0.  1.
         12    1    3    3    0    0  0.25881229841E+02 -0.20623090458E+02  0.10170140795E+02  0.34620538440E+02  0.00000000000E+00 0. -1.
</event>
<event>
 7    1  0.3802554E-013  0.5930195E+02  0.7816164E-02  0.1266605E+00
        -11   -1    0    0    0    0  0.00000000000E+00  0.00000000000E+00  0.45593999997E+02  0.45594000000E+02  0.51100000000E-03 0. -1.
         11   -1    0    0    0    0 -0.00000000000E+00 -0.00000000000E+00 -0.45593999997E+02  0.45594000000E+02  0.51100000000E-03 0.  1.
    9900012    2    1    2    0    0 -0.40629452300E+01 -0.11987577488E+02  0.29266207425E+02  0.59301946073E+02  0.50000003730E+02 0.  0.
        -12    1    1    2    0    0  0.40629452300E+01  0.11987577488E+02 -0.29266207425E+02  0.31886053927E+02  0.00000000000E+00 0.  1.
         11    1    3    3    0    0 -0.13133629402E+02 -0.19649229803E+02  0.49093443131E+01  0.24138892165E+02  0.51100000000E-03 0. -1.
        -11    1    3    3    0    0 -0.51411575574E+01 -0.18346879788E+01  0.63472254241E-01  0.54590850880E+01  0.51100000000E-03 0.  1.
         12    1    3    3    0    0  0.14211841729E+02  0.94963402936E+01  0.24293390858E+02  0.29703968820E+02  0.00000000000E+00 0. -1.
</event>
<event>
 7    1  0.3802554E-013  0.5930196E+02  0.7816164E-02  0.1266605E+00
        -11   -1    0    0    0    0  0.00000000000E+00  0.00000000000E+00  0.45593999997E+02  0.45594000000E+02  0.51100000000E-03 0. -1.
         11   -1    0    0    0    0 -0.00000000000E+00 -0.00000000000E+00 -0.45593999997E+02  0.45594000000E+02  0.51100000000E-03 0.  1.
    9900012    2    1    2    0    0 -0.13376717738E+02  0.21574149362E+02  0.19296088667E+02  0.59301960171E+02  0.50000029442E+02 0.  0.
        -12    1    1    2    0    0  0.13376717738E+02 -0.21574149362E+02 -0.19296088667E+02  0.31886039829E+02  0.00000000000E+00 0.  1.
         11    1    3    3    0    0 -0.13273922873E+00  0.26801519578E+01  0.24225293177E+02  0.24373462290E+02  0.51100000000E-03 0. -1.
        -11    1    3    3    0    0 -0.10453992176E+02 -0.38785111111E+01  0.11065648771E+01  0.11205056312E+02  0.51100000000E-03 0.  1.
        -12    1    3    3    0    0 -0.27899863328E+01  0.22772508515E+02 -0.60357693870E+01  0.23723441569E+02  0.00000000000E+00 0.  1.
</event>
<event>
 7    1  0.3802554E-013  0.5930195E+02  0.7816164E-02  0.1266605E+00
        -11   -1    0    0    0    0  0.00000000000E+00  0.00000000000E+00  0.45593999997E+02  0.45594000000E+02  0.51100000000E-03 0.  1.
         11   -1    0    0    0    0 -0.00000000000E+00 -0.00000000000E+00 -0.45593999997E+02  0.45594000000E+02  0.51100000000E-03 0. -1.
    9900012    2    1    2    0    0  0.27312973189E+02  0.82072554405E+01 -0.14260521353E+02  0.59301952651E+02  0.50000015726E+02 0.  0.
        -12    1    1    2    0    0 -0.27312973189E+02 -0.82072554405E+01  0.14260521353E+02  0.31886047349E+02  0.00000000000E+00 0.  1.
         11    1    3    3    0    0  0.23684765061E+02 -0.57707595541E+01 -0.27944435944E+01  0.24537291560E+02  0.51100000000E-03 0. -1.
        -11    1    3    3    0    0  0.16374526780E+02  0.61010453473E+01 -0.35984757408E+01  0.17840877487E+02  0.51100000000E-03 0.  1.
         12    1    3    3    0    0 -0.12746318651E+02  0.78769696473E+01 -0.78676020176E+01  0.16923783604E+02  0.00000000000E+00 0. -1.
</event>
<event>
 7    1  0.3802554E-013  0.5930185E+02  0.7816164E-02  0.1266605E+00
        -11   -1    0    0    0    0  0.00000000000E+00  0.00000000000E+00  0.45593999997E+02  0.45594000000E+02  0.51100000000E-03 0. -1.
         11   -1    0    0    0    0 -0.00000000000E+00 -0.00000000000E+00 -0.45593999997E+02  0.45594000000E+02  0.51100000000E-03 0.  1.
    9900012    2    1    2    0    0 -0.18801752792E+02  0.39643912393E+01  0.25446109342E+02  0.59301846476E+02  0.49999822088E+02 0.  0.
        -12    1    1    2    0    0  0.18801752792E+02 -0.39643912393E+01 -0.25446109342E+02  0.31886153524E+02  0.00000000000E+00 0.  1.
         11    1    3    3    0    0  0.50091635521E+01  0.60945829972E+00 -0.40638780570E+01  0.64790635153E+01  0.51100000000E-03 0.  1.
        -11    1    3    3    0    0 -0.23656811550E+02 -0.44981220407E+00  0.60579254211E+00  0.23668841302E+02  0.51100000000E-03 0. -1.
         12    1    3    3    0    0 -0.15410479452E+00  0.38047451436E+01  0.28904194857E+02  0.29153941658E+02  0.00000000000E+00 0. -1.
</event>
<event>
 7    1  0.3802554E-013  0.5930191E+02  0.7816164E-02  0.1266605E+00
        -11   -1    0    0    0    0  0.00000000000E+00  0.00000000000E+00  0.45593999997E+02  0.45594000000E+02  0.51100000000E-03 0.  1.
         11   -1    0    0    0    0 -0.00000000000E+00 -0.00000000000E+00 -0.45593999997E+02  0.45594000000E+02  0.51100000000E-03 0. -1.
    9900012    2    1    2    0    0  0.18162550015E+02  0.22700792873E+02 -0.13096506684E+02  0.59301910440E+02  0.49999938744E+02 0.  0.
        -12    1    1    2    0    0 -0.18162550015E+02 -0.22700792873E+02  0.13096506684E+02  0.31886089560E+02  0.00000000000E+00 0.  1.
         11    1    3    3    0    0  0.13957521629E+02  0.50076312151E+01 -0.11918621870E+02  0.19024781942E+02  0.51100000000E-03 0. -1.
        -11    1    3    3    0    0  0.23663692258E+01  0.22617814012E+02 -0.13802280534E+02  0.26602033046E+02  0.51100000000E-03 0.  1.
        -12    1    3    3    0    0  0.18386591602E+01 -0.49246523539E+01  0.12624395720E+02  0.13675095452E+02  0.00000000000E+00 0.  1.
</event>
<event>
 7    1  0.3802554E-013  0.5930193E+02  0.7816164E-02  0.1266605E+00
        -11   -1    0    0    0    0  0.00000000000E+00  0.00000000000E+00  0.45593999997E+02  0.45594000000E+02  0.51100000000E-03 0.  1.
         11   -1    0    0    0    0 -0.00000000000E+00 -0.00000000000E+00 -0.45593999997E+02  0.45594000000E+02  0.51100000000E-03 0. -1.
    9900012    2    1    2    0    0  0.90333910498E+01 -0.44577331512E+01 -0.30253067700E+02  0.59301927116E+02  0.49999969157E+02 0.  0.
        -12    1    1    2    0    0 -0.90333910498E+01  0.44577331512E+01  0.30253067700E+02  0.31886072884E+02  0.00000000000E+00 0.  1.
         11    1    3    3    0    0  0.87320761982E+01  0.10331609117E+01 -0.30181682841E+02  0.31436452656E+02  0.51100000000E-03 0. -1.
        -11    1    3    3    0    0  0.72654981025E+00  0.11080499076E+02 -0.15971124144E+01  0.11218560635E+02  0.51100000000E-03 0.  1.
        -12    1    3    3    0    0 -0.42523495864E+00 -0.16571393139E+02  0.15257275559E+01  0.16646913825E+02  0.00000000000E+00 0.  1.
</event>
<event>
 7    1  0.3802554E-013  0.5930192E+02  0.7816164E-02  0.1266605E+00
        -11   -1    0    0    0    0  0.00000000000E+00  0.00000000000E+00  0.45593999997E+02  0.45594000000E+02  0.51100000000E-03 0.  1.
         11   -1    0    0    0    0 -0.00000000000E+00 -0.00000000000E+00 -0.45593999997E+02  0.45594000000E+02  0.51100000000E-03 0. -1.
    9900012    2    1    2    0    0  0.18631003151E+02 -0.14937401306E+02 -0.21130119821E+02  0.59301918399E+02  0.49999953260E+02 0.  0.
        -12    1    1    2    0    0 -0.18631003151E+02  0.14937401306E+02  0.21130119821E+02  0.31886081601E+02  0.00000000000E+00 0.  1.
         11    1    3    3    0    0  0.17046023819E+01 -0.54159332546E+00  0.33304947001E+01  0.37803687412E+01  0.51100000000E-03 0. -1.
        -11    1    3    3    0    0  0.14017834784E+02  0.69629762252E+01  0.71926800145E+01  0.17225486234E+02  0.51100000000E-03 0.  1.
         12    1    3    3    0    0  0.29085659854E+01 -0.21358784205E+02 -0.31653294536E+02  0.38296063424E+02  0.00000000000E+00 0. -1.
</event>
<event>
 7    1  0.3802554E-013  0.5930195E+02  0.7816164E-02  0.1266605E+00
        -11   -1    0    0    0    0  0.00000000000E+00  0.00000000000E+00  0.45593999997E+02  0.45594000000E+02  0.51100000000E-03 0.  1.
         11   -1    0    0    0    0 -0.00000000000E+00 -0.00000000000E+00 -0.45593999997E+02  0.45594000000E+02  0.51100000000E-03 0. -1.
    9900012    2    1    2    0    0 -0.11268641034E+02 -0.28617799515E+02 -0.84118496000E+01  0.59301953937E+02  0.50000018072E+02 0.  0.
        -12    1    1    2    0    0  0.11268641034E+02  0.28617799515E+02  0.84118496000E+01  0.31886046063E+02  0.00000000000E+00 0.  1.
         11    1    3    3    0    0  0.53783391261E+00 -0.95252578934E+00  0.54176392850E+01  0.55269690048E+01  0.51100000000E-03 0. -1.
        -11    1    3    3    0    0  0.40125126741E+01  0.86064999604E+01  0.40853349544E+01  0.10337410772E+02  0.51100000000E-03 0.  1.
         12    1    3    3    0    0 -0.15818987620E+02 -0.36271773686E+02 -0.17914823839E+02  0.43437574160E+02  0.00000000000E+00 0. -1.
</event>
<event>
 7    1  0.3802554E-013  0.5930194E+02  0.7816164E-02  0.1266605E+00
        -11   -1    0    0    0    0  0.00000000000E+00  0.00000000000E+00  0.45593999997E+02  0.45594000000E+02  0.51100000000E-03 0. -1.
         11   -1    0    0    0    0 -0.00000000000E+00 -0.00000000000E+00 -0.45593999997E+02  0.45594000000E+02  0.51100000000E-03 0.  1.
    9900012    2    1    2    0    0  0.12464171792E+02  0.28925993504E+02  0.49651013088E+01  0.59301938630E+02  0.49999990156E+02 0.  0.
        -12    1    1    2    0    0 -0.12464171792E+02 -0.28925993504E+02 -0.49651013088E+01  0.31886061370E+02  0.00000000000E+00 0.  1.
         11    1    3    3    0    0 -0.58597922238E+01  0.71820576431E+01 -0.81638565630E+01  0.12351828656E+02  0.51100000000E-03 0. -1.
        -11    1    3    3    0    0 -0.70232552878E+01  0.50593731246E+01  0.14149778767E+02  0.16587332838E+02  0.51100000000E-03 0.  1.
         12    1    3    3    0    0  0.25347219304E+02  0.16684562737E+02 -0.10208208953E+01  0.30362777137E+02  0.00000000000E+00 0. -1.
</event>
<event>
 7    1  0.3802554E-013  0.5930198E+02  0.7816164E-02  0.1266605E+00
        -11   -1    0    0    0    0  0.00000000000E+00  0.00000000000E+00  0.45593999997E+02  0.45594000000E+02  0.51100000000E-03 0. -1.
         11   -1    0    0    0    0 -0.00000000000E+00 -0.00000000000E+00 -0.45593999997E+02  0.45594000000E+02  0.51100000000E-03 0.  1.
    9900012    2    1    2    0    0  0.31715478999E+02  0.28616475047E+01  0.16302673492E+01  0.59301977886E+02  0.50000061750E+02 0.  0.
        -12    1    1    2    0    0 -0.31715478999E+02 -0.28616475047E+01 -0.16302673492E+01  0.31886022114E+02  0.00000000000E+00 0.  1.
         11    1    3    3    0    0 -0.51209762046E+01  0.14717470623E+02 -0.45405874009E+01  0.16230997291E+02  0.51100000000E-03 0. -1.
        -11    1    3    3    0    0  0.55172661768E+01 -0.49779295397E+00 -0.54656384600E+01  0.77821094780E+01  0.51100000000E-03 0.  1.
        -12    1    3    3    0    0  0.31319189027E+02 -0.11358030165E+02  0.11636493210E+02  0.35288871118E+02  0.00000000000E+00 0.  1.
</event>
<event>
 7    1  0.3802554E-013  0.5930194E+02  0.7816164E-02  0.1266605E+00
        -11   -1    0    0    0    0  0.00000000000E+00  0.00000000000E+00  0.45593999997E+02  0.45594000000E+02  0.51100000000E-03 0. -1.
         11   -1    0    0    0    0 -0.00000000000E+00 -0.00000000000E+00 -0.45593999997E+02  0.45594000000E+02  0.51100000000E-03 0.  1.
    9900012    2    1    2    0    0 -0.22285286878E+02  0.21732532683E+02  0.69125654013E+01  0.59301944294E+02  0.50000000485E+02 0.  0.
        -12    1    1    2    0    0  0.22285286878E+02 -0.21732532683E+02 -0.69125654013E+01  0.31886055706E+02  0.00000000000E+00 0.  1.
         11    1    3    3    0    0  0.91573939398E-01 -0.34738839476E+00 -0.25557698554E+01  0.25808960262E+01  0.51100000000E-03 0. -1.
        -11    1    3    3    0    0  0.10654205020E+02  0.99672542250E+00 -0.84478117607E+01  0.13633454074E+02  0.51100000000E-03 0.  1.
         12    1    3    3    0    0 -0.33031065838E+02  0.21083195655E+02  0.17916147017E+02  0.43087594194E+02  0.00000000000E+00 0. -1.
</event>
<event>
 7    1  0.3802554E-013  0.5930193E+02  0.7816164E-02  0.1266605E+00
        -11   -1    0    0    0    0  0.00000000000E+00  0.00000000000E+00  0.45593999997E+02  0.45594000000E+02  0.51100000000E-03 0.  1.
         11   -1    0    0    0    0 -0.00000000000E+00 -0.00000000000E+00 -0.45593999997E+02  0.45594000000E+02  0.51100000000E-03 0. -1.
    9900012    2    1    2    0    0 -0.15811189360E+02  0.21731798787E+02  0.17159734127E+02  0.59301933093E+02  0.49999980058E+02 0.  0.
        -12    1    1    2    0    0  0.15811189360E+02 -0.21731798787E+02 -0.17159734127E+02  0.31886066907E+02  0.00000000000E+00 0.  1.
         11    1    3    3    0    0  0.34454575320E+01  0.16766659935E+02  0.11732813382E+02  0.20752131772E+02  0.51100000000E-03 0. -1.
        -11    1    3    3    0    0  0.76654074541E+01  0.70924092874E+01  0.49075541146E+01  0.11538840002E+02  0.51100000000E-03 0.  1.
         12    1    3    3    0    0 -0.26922054346E+02 -0.21272704355E+01  0.51936663095E+00  0.27010961319E+02  0.00000000000E+00 0. -1.
</event>
<event>
 7    1  0.3802554E-013  0.5930214E+02  0.7816164E-02  0.1266604E+00
        -11   -1    0    0    0    0  0.00000000000E+00  0.00000000000E+00  0.45593999997E+02  0.45594000000E+02  0.51100000000E-03 0. -1.
         11   -1    0    0    0    0 -0.00000000000E+00 -0.00000000000E+00 -0.45593999997E+02  0.45594000000E+02  0.51100000000E-03 0.  1.
    9900012    2    1    2    0    0  0.13627664372E+02 -0.21590100675E+02  0.19101375986E+02  0.59302137177E+02  0.50000352256E+02 0.  0.
        -12    1    1    2    0    0 -0.13627664372E+02  0.21590100675E+02 -0.19101375986E+02  0.31885862823E+02  0.00000000000E+00 0.  1.
         11    1    3    3    0    0  0.30717118804E+01 -0.28723980405E+02  0.18909393017E+02  0.34526332106E+02  0.51100000000E-03 0. -1.
        -11    1    3    3    0    0  0.89753229569E+01 -0.44215171896E+01  0.60830907684E+01  0.11709407756E+02  0.51100000000E-03 0.  1.
        -12    1    3    3    0    0  0.15806295348E+01  0.11555396919E+02 -0.58911077991E+01  0.13066397314E+02  0.00000000000E+00 0.  1.
</event>
<event>
 7    1  0.3802554E-013  0.5930192E+02  0.7816164E-02  0.1266605E+00
        -11   -1    0    0    0    0  0.00000000000E+00  0.00000000000E+00  0.45593999997E+02  0.45594000000E+02  0.51100000000E-03 0. -1.
         11   -1    0    0    0    0 -0.00000000000E+00 -0.00000000000E+00 -0.45593999997E+02  0.45594000000E+02  0.51100000000E-03 0.  1.
    9900012    2    1    2    0    0 -0.29548327935E+02 -0.95996274506E+01  0.71739442845E+01  0.59301921415E+02  0.49999958759E+02 0.  0.
        -12    1    1    2    0    0  0.29548327935E+02  0.95996274506E+01 -0.71739442845E+01  0.31886078585E+02  0.00000000000E+00 0.  1.
         11    1    3    3    0    0 -0.17676632424E+02 -0.10655234767E+02 -0.31083968030E+01  0.20872457755E+02  0.51100000000E-03 0. -1.
        -11    1    3    3    0    0  0.96480361613E+00 -0.10720850886E+02 -0.78213562791E+01  0.13305679391E+02  0.51100000000E-03 0.  1.
         12    1    3    3    0    0 -0.12836499128E+02  0.11776458203E+02  0.18103697367E+02  0.25123784269E+02  0.00000000000E+00 0. -1.
</event>
<event>
 7    1  0.3802554E-013  0.5930194E+02  0.7816164E-02  0.1266605E+00
        -11   -1    0    0    0    0  0.00000000000E+00  0.00000000000E+00  0.45593999997E+02  0.45594000000E+02  0.51100000000E-03 0.  1.
         11   -1    0    0    0    0 -0.00000000000E+00 -0.00000000000E+00 -0.45593999997E+02  0.45594000000E+02  0.51100000000E-03 0. -1.
    9900012    2    1    2    0    0  0.10058676364E+02  0.12099536684E+02 -0.27733460902E+02  0.59301943301E+02  0.49999998675E+02 0.  0.
        -12    1    1    2    0    0 -0.10058676364E+02 -0.12099536684E+02  0.27733460902E+02  0.31886056699E+02  0.00000000000E+00 0.  1.
         11    1    3    3    0    0  0.12585298841E+02 -0.36854199048E+01  0.30964240604E+01  0.13474416834E+02  0.51100000000E-03 0. -1.
        -11    1    3    3    0    0 -0.54459128867E+01  0.58112443035E+01  0.43986400954E+01  0.90981625878E+01  0.51100000000E-03 0.  1.
         12    1    3    3    0    0  0.29192904103E+01  0.99737122855E+01 -0.35228525058E+02  0.36729363880E+02  0.00000000000E+00 0. -1.
</event>
<event>
 7    1  0.3802554E-013  0.5930194E+02  0.7816164E-02  0.1266605E+00
        -11   -1    0    0    0    0  0.00000000000E+00  0.00000000000E+00  0.45593999997E+02  0.45594000000E+02  0.51100000000E-03 0.  1.
         11   -1    0    0    0    0 -0.00000000000E+00 -0.00000000000E+00 -0.45593999997E+02  0.45594000000E+02  0.51100000000E-03 0. -1.
    9900012    2    1    2    0    0  0.26075536528E+02  0.17880858179E+02 -0.41306462510E+01  0.59301938266E+02  0.49999989493E+02 0.  0.
        -12    1    1    2    0    0 -0.26075536528E+02 -0.17880858179E+02  0.41306462510E+01  0.31886061734E+02  0.00000000000E+00 0.  1.
         11    1    3    3    0    0  0.21293241838E+02  0.16135111192E+02 -0.22353924106E+02  0.34834492739E+02  0.51100000000E-03 0. -1.
        -11    1    3    3    0    0  0.72986742705E+01  0.71400776772E+01  0.13134603019E+02  0.16636380378E+02  0.51100000000E-03 0.  1.
        -12    1    3    3    0    0 -0.25163795806E+01 -0.53943306904E+01  0.50886748359E+01  0.78310651496E+01  0.00000000000E+00 0.  1.
</event>
<event>
 7    1  0.3802554E-013  0.5930198E+02  0.7816164E-02  0.1266605E+00
        -11   -1    0    0    0    0  0.00000000000E+00  0.00000000000E+00  0.45593999997E+02  0.45594000000E+02  0.51100000000E-03 0.  1.
         11   -1    0    0    0    0 -0.00000000000E+00 -0.00000000000E+00 -0.45593999997E+02  0.45594000000E+02  0.51100000000E-03 0. -1.
    9900012    2    1    2    0    0 -0.29409366703E+02 -0.10370295268E+02 -0.66531701981E+01  0.59301975671E+02  0.50000057710E+02 0.  0.
        -12    1    1    2    0    0  0.29409366703E+02  0.10370295268E+02  0.66531701981E+01  0.31886024329E+02  0.00000000000E+00 0.  1.
         11    1    3    3    0    0 -0.84697751058E+01  0.16394166852E+02 -0.23273236001E+01  0.18598984718E+02  0.51100000000E-03 0. -1.
        -11    1    3    3    0    0  0.40551993937E+01 -0.34837435358E+01  0.24486517204E+01  0.58802216501E+01  0.51100000000E-03 0.  1.
         12    1    3    3    0    0 -0.24994790991E+02 -0.23280718585E+02 -0.67744983184E+01  0.34822769304E+02  0.00000000000E+00 0. -1.
</event>
<event>
 7    1  0.3802554E-013  0.5930195E+02  0.7816164E-02  0.1266605E+00
        -11   -1    0    0    0    0  0.00000000000E+00  0.00000000000E+00  0.45593999997E+02  0.45594000000E+02  0.51100000000E-03 0.  1.
         11   -1    0    0    0    0 -0.00000000000E+00 -0.00000000000E+00 -0.45593999997E+02  0.45594000000E+02  0.51100000000E-03 0. -1.
    9900012    2    1    2    0    0 -0.63509745386E+01  0.16031160554E+02 -0.26821393633E+02  0.59301950656E+02  0.50000012089E+02 0.  0.
        -12    1    1    2    0    0  0.63509745386E+01 -0.16031160554E+02  0.26821393633E+02  0.31886049344E+02  0.00000000000E+00 0.  1.
         11    1    3    3    0    0 -0.74174553057E+01 -0.24929772881E+00  0.57235356395E+00  0.74436806375E+01  0.51100000000E-03 0. -1.
        -11    1    3    3    0    0  0.86487625645E+01 -0.10816460585E+02 -0.20699690457E+01  0.14002917039E+02  0.51100000000E-03 0.  1.
         12    1    3    3    0    0 -0.75822817974E+01  0.27096918868E+02 -0.25323778152E+02  0.37855352980E+02  0.00000000000E+00 0. -1.
</event>
<event>
 7    1  0.3802554E-013  0.5930192E+02  0.7816164E-02  0.1266605E+00
        -11   -1    0    0    0    0  0.00000000000E+00  0.00000000000E+00  0.45593999997E+02  0.45594000000E+02  0.51100000000E-03 0.  1.
         11   -1    0    0    0    0 -0.00000000000E+00 -0.00000000000E+00 -0.45593999997E+02  0.45594000000E+02  0.51100000000E-03 0. -1.
    9900012    2    1    2    0    0  0.47910427855E+01 -0.16301899688E+02 -0.26981769641E+02  0.59301922829E+02  0.49999961339E+02 0.  0.
        -12    1    1    2    0    0 -0.47910427855E+01  0.16301899688E+02  0.26981769641E+02  0.31886077171E+02  0.00000000000E+00 0.  1.
         11    1    3    3    0    0  0.56006932802E+01  0.70541713183E+01 -0.19446525049E+01  0.92147041099E+01  0.51100000000E-03 0. -1.
        -11    1    3    3    0    0 -0.10009754093E+02 -0.19019172769E+02  0.16222052425E+01  0.21553553301E+02  0.51100000000E-03 0.  1.
         12    1    3    3    0    0  0.92001035980E+01 -0.43368982374E+01 -0.26659322378E+02  0.28533665418E+02  0.00000000000E+00 0. -1.
</event>
<event>
 7    1  0.3802554E-013  0.5930194E+02  0.7816164E-02  0.1266605E+00
        -11   -1    0    0    0    0  0.00000000000E+00  0.00000000000E+00  0.45593999997E+02  0.45594000000E+02  0.51100000000E-03 0.  1.
         11   -1    0    0    0    0 -0.00000000000E+00 -0.00000000000E+00 -0.45593999997E+02  0.45594000000E+02  0.51100000000E-03 0. -1.
    9900012    2    1    2    0    0  0.75936036829E+01 -0.16733975632E+02 -0.26058237999E+02  0.59301944664E+02  0.50000001160E+02 0.  0.
        -12    1    1    2    0    0 -0.75936036829E+01  0.16733975632E+02  0.26058237999E+02  0.31886055336E+02  0.00000000000E+00 0.  1.
         11    1    3    3    0    0  0.68168271178E+01 -0.15850736553E+01 -0.32732325805E+02  0.33472178646E+02  0.51100000000E-03 0. -1.
        -11    1    3    3    0    0 -0.15131044652E+01 -0.12790422287E+01 -0.63587232864E+01  0.66602399536E+01  0.51100000000E-03 0.  1.
        -12    1    3    3    0    0  0.22898810302E+01 -0.13869859747E+02  0.13032811093E+02  0.19169526064E+02  0.00000000000E+00 0.  1.
</event>
<event>
 7    1  0.3802554E-013  0.5930166E+02  0.7816164E-02  0.1266606E+00
        -11   -1    0    0    0    0  0.00000000000E+00  0.00000000000E+00  0.45593999997E+02  0.45594000000E+02  0.51100000000E-03 0. -1.
         11   -1    0    0    0    0 -0.00000000000E+00 -0.00000000000E+00 -0.45593999997E+02  0.45594000000E+02  0.51100000000E-03 0.  1.
    9900012    2    1    2    0    0 -0.23976110099E+02  0.39011485392E+01 -0.20655892108E+02  0.59301659756E+02  0.49999481553E+02 0.  0.
        -12    1    1    2    0    0  0.23976110099E+02 -0.39011485392E+01  0.20655892108E+02  0.31886340244E+02  0.00000000000E+00 0.  1.
         11    1    3    3    0    0 -0.12865132457E+02 -0.11694739790E+02 -0.24325232937E+00  0.17387861969E+02  0.51100000000E-03 0. -1.
        -11    1    3    3    0    0  0.82592599302E+01  0.12764021809E+01  0.24438334988E+01  0.87072900235E+01  0.51100000000E-03 0.  1.
         12    1    3    3    0    0 -0.19370237572E+02  0.14319486148E+02 -0.22856473277E+02  0.33206507763E+02  0.00000000000E+00 0. -1.
</event>
<event>
 7    1  0.3802554E-013  0.5930192E+02  0.7816164E-02  0.1266605E+00
        -11   -1    0    0    0    0  0.00000000000E+00  0.00000000000E+00  0.45593999997E+02  0.45594000000E+02  0.51100000000E-03 0. -1.
         11   -1    0    0    0    0 -0.00000000000E+00 -0.00000000000E+00 -0.45593999997E+02  0.45594000000E+02  0.51100000000E-03 0.  1.
    9900012    2    1    2    0    0  0.28369585558E+02  0.12572019592E+02  0.73370906444E+01  0.59301922152E+02  0.49999960105E+02 0.  0.
        -12    1    1    2    0    0 -0.28369585558E+02 -0.12572019592E+02 -0.73370906444E+01  0.31886077848E+02  0.00000000000E+00 0.  1.
         11    1    3    3    0    0  0.12608866971E+02  0.34313459574E+01  0.13808105754E+02  0.19011087453E+02  0.51100000000E-03 0. -1.
        -11    1    3    3    0    0  0.26161886091E+02  0.52542183066E+01  0.13354948833E+01  0.26717684045E+02  0.51100000000E-03 0.  1.
        -12    1    3    3    0    0 -0.10401167503E+02  0.38864553278E+01 -0.78065099925E+01  0.13573150655E+02  0.00000000000E+00 0.  1.
</event>
<event>
 7    1  0.3802554E-013  0.5930196E+02  0.7816164E-02  0.1266605E+00
        -11   -1    0    0    0    0  0.00000000000E+00  0.00000000000E+00  0.45593999997E+02  0.45594000000E+02  0.51100000000E-03 0. -1.
         11   -1    0    0    0    0 -0.00000000000E+00 -0.00000000000E+00 -0.45593999997E+02  0.45594000000E+02  0.51100000000E-03 0.  1.
    9900012    2    1    2    0    0  0.19914377916E+02 -0.21271993658E+02  0.12947571637E+02  0.59301956450E+02  0.50000022655E+02 0.  0.
        -12    1    1    2    0    0 -0.19914377916E+02  0.21271993658E+02 -0.12947571637E+02  0.31886043550E+02  0.00000000000E+00 0.  1.
         11    1    3    3    0    0  0.11121267241E+02 -0.18277593328E+01  0.86909860079E+01  0.14232235498E+02  0.51100000000E-03 0. -1.
        -11    1    3    3    0    0  0.19646981966E+02 -0.23877941312E+01  0.12310159393E+02  0.23307627201E+02  0.51100000000E-03 0.  1.
        -12    1    3    3    0    0 -0.10853871291E+02 -0.17056440194E+02 -0.80535737633E+01  0.21762093752E+02  0.00000000000E+00 0.  1.
</event>
<event>
 7    1  0.3802554E-013  0.5930202E+02  0.7816164E-02  0.1266604E+00
        -11   -1    0    0    0    0  0.00000000000E+00  0.00000000000E+00  0.45593999997E+02  0.45594000000E+02  0.51100000000E-03 0.  1.
         11   -1    0    0    0    0 -0.00000000000E+00 -0.00000000000E+00 -0.45593999997E+02  0.45594000000E+02  0.51100000000E-03 0. -1.
    9900012    2    1    2    0    0  0.26794659879E+02  0.11423310413E+00 -0.17284348097E+02  0.59302022889E+02  0.50000143823E+02 0.  0.
        -12    1    1    2    0    0 -0.26794659879E+02 -0.11423310413E+00  0.17284348097E+02  0.31885977111E+02  0.00000000000E+00 0.  1.
         11    1    3    3    0    0 -0.49723885064E+01  0.36754525406E+01 -0.52564554083E+00  0.62056347244E+01  0.51100000000E-03 0. -1.
        -11    1    3    3    0    0  0.28114701011E+02  0.30159187476E+01  0.61903343263E+01  0.28945680475E+02  0.51100000000E-03 0.  1.
         12    1    3    3    0    0  0.36523473734E+01 -0.65771381840E+01 -0.22949036883E+02  0.24150707689E+02  0.00000000000E+00 0. -1.
</event>
<event>
 7    1  0.3802554E-013  0.5930193E+02  0.7816164E-02  0.1266605E+00
        -11   -1    0    0    0    0  0.00000000000E+00  0.00000000000E+00  0.45593999997E+02  0.45594000000E+02  0.51100000000E-03 0.  1.
         11   -1    0    0    0    0 -0.00000000000E+00 -0.00000000000E+00 -0.45593999997E+02  0.45594000000E+02  0.51100000000E-03 0. -1.
    9900012    2    1    2    0    0  0.12957788280E+02  0.23843734687E+02 -0.16741973862E+02  0.59301927026E+02  0.49999968992E+02 0.  0.
        -12    1    1    2    0    0 -0.12957788280E+02 -0.23843734687E+02  0.16741973862E+02  0.31886072974E+02  0.00000000000E+00 0.  1.
         11    1    3    3    0    0  0.11313544603E+02  0.74214105020E+01 -0.13190248192E+02  0.18895932709E+02  0.51100000000E-03 0. -1.
        -11    1    3    3    0    0  0.10145434996E+02  0.65415271804E+01 -0.17535816331E+02  0.21289111859E+02  0.51100000000E-03 0.  1.
        -12    1    3    3    0    0 -0.85011913194E+01  0.98807970042E+01  0.13984090660E+02  0.19116882457E+02  0.00000000000E+00 0.  1.
</event>
<event>
 7    1  0.3802554E-013  0.5930194E+02  0.7816164E-02  0.1266605E+00
        -11   -1    0    0    0    0  0.00000000000E+00  0.00000000000E+00  0.45593999997E+02  0.45594000000E+02  0.51100000000E-03 0.  1.
         11   -1    0    0    0    0 -0.00000000000E+00 -0.00000000000E+00 -0.45593999997E+02  0.45594000000E+02  0.51100000000E-03 0. -1.
    9900012    2    1    2    0    0 -0.23017499656E+02  0.37714068124E+01 -0.21741481471E+02  0.59301940094E+02  0.49999992826E+02 0.  0.
        -12    1    1    2    0    0  0.23017499656E+02 -0.37714068124E+01  0.21741481471E+02  0.31886059906E+02  0.00000000000E+00 0.  1.
         11    1    3    3    0    0  0.68200517880E+01  0.93284951845E+01 -0.10451522169E+02  0.15581021940E+02  0.51100000000E-03 0. -1.
        -11    1    3    3    0    0 -0.39022649073E+01  0.90852343907E+01  0.34725234598E+01  0.10479865208E+02  0.51100000000E-03 0.  1.
         12    1    3    3    0    0 -0.25935286537E+02 -0.14642322763E+02 -0.14762482762E+02  0.33241052946E+02  0.00000000000E+00 0. -1.
</event>
<event>
 7    1  0.3802554E-013  0.5930195E+02  0.7816164E-02  0.1266605E+00
        -11   -1    0    0    0    0  0.00000000000E+00  0.00000000000E+00  0.45593999997E+02  0.45594000000E+02  0.51100000000E-03 0.  1.
         11   -1    0    0    0    0 -0.00000000000E+00 -0.00000000000E+00 -0.45593999997E+02  0.45594000000E+02  0.51100000000E-03 0. -1.
    9900012    2    1    2    0    0  0.11445180757E+02  0.26096231730E+02  0.14307861275E+02  0.59301947134E+02  0.50000005666E+02 0.  0.
        -12    1    1    2    0    0 -0.11445180757E+02 -0.26096231730E+02 -0.14307861275E+02  0.31886052866E+02  0.00000000000E+00 0.  1.
         11    1    3    3    0    0  0.18691281851E+02  0.63244165446E+00  0.31607991410E+01  0.18967199350E+02  0.51100000000E-03 0. -1.
        -11    1    3    3    0    0  0.36135595319E+01  0.18468749635E+01  0.13631013076E+02  0.14222281019E+02  0.51100000000E-03 0.  1.
         12    1    3    3    0    0 -0.10859660626E+02  0.23616915112E+02 -0.24839509422E+01  0.26112466766E+02  0.00000000000E+00 0. -1.
</event>
<event>
 7    1  0.3802554E-013  0.5930199E+02  0.7816164E-02  0.1266605E+00
        -11   -1    0    0    0    0  0.00000000000E+00  0.00000000000E+00  0.45593999997E+02  0.45594000000E+02  0.51100000000E-03 0.  1.
         11   -1    0    0    0    0 -0.00000000000E+00 -0.00000000000E+00 -0.45593999997E+02  0.45594000000E+02  0.51100000000E-03 0. -1.
    9900012    2    1    2    0    0  0.92987231809E+01  0.10758025518E+02 -0.28539734580E+02  0.59301987146E+02  0.50000078637E+02 0.  0.
        -12    1    1    2    0    0 -0.92987231809E+01 -0.10758025518E+02  0.28539734580E+02  0.31886012854E+02  0.00000000000E+00 0.  1.
         11    1    3    3    0    0 -0.35538301918E+01  0.18192094537E+01 -0.28224166740E+02  0.28505136739E+02  0.51100000000E-03 0. -1.
        -11    1    3    3    0    0  0.10642904961E+02  0.12378423587E+02 -0.10779547368E+02  0.19562603054E+02  0.51100000000E-03 0.  1.
        -12    1    3    3    0    0  0.22096484115E+01 -0.34396075227E+01  0.10463979529E+02  0.11234247353E+02  0.00000000000E+00 0.  1.
</event>
<event>
 7    1  0.3802554E-013  0.5930195E+02  0.7816164E-02  0.1266605E+00
        -11   -1    0    0    0    0  0.00000000000E+00  0.00000000000E+00  0.45593999997E+02  0.45594000000E+02  0.51100000000E-03 0.  1.
         11   -1    0    0    0    0 -0.00000000000E+00 -0.00000000000E+00 -0.45593999997E+02  0.45594000000E+02  0.51100000000E-03 0. -1.
    9900012    2    1    2    0    0  0.19205315546E+02 -0.22575493006E+02 -0.11756843815E+02  0.59301946526E+02  0.50000004556E+02 0.  0.
        -12    1    1    2    0    0 -0.19205315546E+02  0.22575493006E+02  0.11756843815E+02  0.31886053474E+02  0.00000000000E+00 0.  1.
         11    1    3    3    0    0 -0.17574122755E+01  0.10295838209E+01 -0.46310948623E+01  0.50592075106E+01  0.51100000000E-03 0. -1.
        -11    1    3    3    0    0  0.46467182915E+01 -0.19072740141E+02 -0.23545518872E+02  0.30655388867E+02  0.51100000000E-03 0.  1.
         12    1    3    3    0    0  0.16316009530E+02 -0.45323366860E+01  0.16419769920E+02  0.23587350148E+02  0.00000000000E+00 0. -1.
</event>
<event>
 7    1  0.3802554E-013  0.5930194E+02  0.7816164E-02  0.1266605E+00
        -11   -1    0    0    0    0  0.00000000000E+00  0.00000000000E+00  0.45593999997E+02  0.45594000000E+02  0.51100000000E-03 0. -1.
         11   -1    0    0    0    0 -0.00000000000E+00 -0.00000000000E+00 -0.45593999997E+02  0.45594000000E+02  0.51100000000E-03 0.  1.
    9900012    2    1    2    0    0 -0.23790480424E+02 -0.19048832403E+02  0.93742147012E+01  0.59301939159E+02  0.49999991120E+02 0.  0.
        -12    1    1    2    0    0  0.23790480424E+02  0.19048832403E+02 -0.93742147012E+01  0.31886060841E+02  0.00000000000E+00 0.  1.
         11    1    3    3    0    0  0.12393884261E+01 -0.41035409256E+01 -0.29407681493E+01  0.51983891127E+01  0.51100000000E-03 0. -1.
        -11    1    3    3    0    0 -0.64206287919E+01  0.14693907922E+02 -0.22580884435E+01  0.16193652083E+02  0.51100000000E-03 0.  1.
        -12    1    3    3    0    0 -0.18609240058E+02 -0.29639199400E+02  0.14573071294E+02  0.37909897963E+02  0.00000000000E+00 0.  1.
</event>
<event>
 7    1  0.3802554E-013  0.5930195E+02  0.7816164E-02  0.1266605E+00
        -11   -1    0    0    0    0  0.00000000000E+00  0.00000000000E+00  0.45593999997E+02  0.45594000000E+02  0.51100000000E-03 0. -1.
         11   -1    0    0    0    0 -0.00000000000E+00 -0.00000000000E+00 -0.45593999997E+02  0.45594000000E+02  0.51100000000E-03 0.  1.
    9900012    2    1    2    0    0 -0.33686018135E+01  0.33546646548E+01  0.31529647920E+02  0.59301953662E+02  0.50000017571E+02 0.  0.
        -12    1    1    2    0    0  0.33686018135E+01 -0.33546646548E+01 -0.31529647920E+02  0.31886046338E+02  0.00000000000E+00 0.  1.
         11    1    3    3    0    0 -0.38332219567E+01 -0.12302955424E+02  0.67804801669E+01  0.14561291642E+02  0.51100000000E-03 0. -1.
        -11    1    3    3    0    0 -0.12563027539E+01  0.10474176359E+02 -0.69119193559E+01  0.12611950541E+02  0.51100000000E-03 0.  1.
         12    1    3    3    0    0  0.17209228971E+01  0.51834437194E+01  0.31661087109E+02  0.32128711479E+02  0.00000000000E+00 0. -1.
</event>
<event>
 7    1  0.3802554E-013  0.5930192E+02  0.7816164E-02  0.1266605E+00
        -11   -1    0    0    0    0  0.00000000000E+00  0.00000000000E+00  0.45593999997E+02  0.45594000000E+02  0.51100000000E-03 0.  1.
         11   -1    0    0    0    0 -0.00000000000E+00 -0.00000000000E+00 -0.45593999997E+02  0.45594000000E+02  0.51100000000E-03 0. -1.
    9900012    2    1    2    0    0  0.77998092794E+01  0.30891862171E+02 -0.12562044834E+01  0.59301918038E+02  0.49999952600E+02 0.  0.
        -12    1    1    2    0    0 -0.77998092794E+01 -0.30891862171E+02  0.12562044834E+01  0.31886081962E+02  0.00000000000E+00 0.  1.
         11    1    3    3    0    0 -0.44692004467E+01  0.53591869513E+00 -0.84076385962E+01  0.95367367850E+01  0.51100000000E-03 0. -1.
        -11    1    3    3    0    0  0.11708254832E+02 -0.46627099967E+01  0.76421372918E+01  0.14738600964E+02  0.51100000000E-03 0.  1.
         12    1    3    3    0    0  0.56075489368E+00  0.35018653473E+02 -0.49070317908E+00  0.35026580289E+02  0.00000000000E+00 0. -1.
</event>
<event>
 7    1  0.3802554E-013  0.5930194E+02  0.7816164E-02  0.1266605E+00
        -11   -1    0    0    0    0  0.00000000000E+00  0.00000000000E+00  0.45593999997E+02  0.45594000000E+02  0.51100000000E-03 0.  1.
         11   -1    0    0    0    0 -0.00000000000E+00 -0.00000000000E+00 -0.45593999997E+02  0.45594000000E+02  0.51100000000E-03 0. -1.
    9900012    2    1    2    0    0  0.18856095915E+02  0.19381408563E+02 -0.16897607965E+02  0.59301944961E+02  0.50000001701E+02 0.  0.
        -12    1    1    2    0    0 -0.18856095915E+02 -0.19381408563E+02  0.16897607965E+02  0.31886055039E+02  0.00000000000E+00 0.  1.
         11    1    3    3    0    0 -0.28162857165E+01 -0.95402594431E-01  0.14397841880E+01  0.31644186924E+01  0.51100000000E-03 0. -1.
        -11    1    3    3    0    0 -0.36997051967E+00 -0.19962620557E+01  0.12446177078E+02  0.12610680573E+02  0.51100000000E-03 0.  1.
         12    1    3    3    0    0  0.22042352151E+02  0.21473073213E+02 -0.30783569231E+02  0.43526845695E+02  0.00000000000E+00 0. -1.
</event>
<event>
 7    1  0.3802554E-013  0.5930195E+02  0.7816164E-02  0.1266605E+00
        -11   -1    0    0    0    0  0.00000000000E+00  0.00000000000E+00  0.45593999997E+02  0.45594000000E+02  0.51100000000E-03 0.  1.
         11   -1    0    0    0    0 -0.00000000000E+00 -0.00000000000E+00 -0.45593999997E+02  0.45594000000E+02  0.51100000000E-03 0. -1.
    9900012    2    1    2    0    0  0.10733158588E+01  0.12434822171E+02 -0.29341833521E+02  0.59301952836E+02  0.50000016065E+02 0.  0.
        -12    1    1    2    0    0 -0.10733158588E+01 -0.12434822171E+02  0.29341833521E+02  0.31886047164E+02  0.00000000000E+00 0.  1.
         11    1    3    3    0    0  0.12947473981E+02  0.19047523640E+02 -0.45941056798E+01  0.23485123942E+02  0.51100000000E-03 0. -1.
        -11    1    3    3    0    0 -0.50599751647E+01 -0.30469627444E+01  0.32778783868E+01  0.67551326866E+01  0.51100000000E-03 0.  1.
         12    1    3    3    0    0 -0.68141829578E+01 -0.35657387243E+01 -0.28025606228E+02  0.29061696208E+02  0.00000000000E+00 0. -1.
</event>
<event>
 7    1  0.3802554E-013  0.5930193E+02  0.7816164E-02  0.1266605E+00
        -11   -1    0    0    0    0  0.00000000000E+00  0.00000000000E+00  0.45593999997E+02  0.45594000000E+02  0.51100000000E-03 0.  1.
         11   -1    0    0    0    0 -0.00000000000E+00 -0.00000000000E+00 -0.45593999997E+02  0.45594000000E+02  0.51100000000E-03 0. -1.
    9900012    2    1    2    0    0 -0.21435907998E+02 -0.24810697734E+01 -0.23474827490E+02  0.59301931182E+02  0.49999976573E+02 0.  0.
        -12    1    1    2    0    0  0.21435907998E+02  0.24810697734E+01  0.23474827490E+02  0.31886068818E+02  0.00000000000E+00 0.  1.
         11    1    3    3    0    0  0.29929733240E+01  0.13662620182E+02 -0.18276576338E+02  0.23014306908E+02  0.51100000000E-03 0.  1.
        -11    1    3    3    0    0 -0.96830226224E+01  0.32517367267E+01 -0.61169053238E+01  0.11905933388E+02  0.51100000000E-03 0. -1.
        -12    1    3    3    0    0 -0.14745858700E+02 -0.19395426682E+02  0.91865417121E+00  0.24381690886E+02  0.00000000000E+00 0.  1.
</event>
<event>
 7    1  0.3802554E-013  0.5930194E+02  0.7816164E-02  0.1266605E+00
        -11   -1    0    0    0    0  0.00000000000E+00  0.00000000000E+00  0.45593999997E+02  0.45594000000E+02  0.51100000000E-03 0.  1.
         11   -1    0    0    0    0 -0.00000000000E+00 -0.00000000000E+00 -0.45593999997E+02  0.45594000000E+02  0.51100000000E-03 0. -1.
    9900012    2    1    2    0    0  0.21760374313E+02  0.78663452334E+01 -0.21939175496E+02  0.59301941934E+02  0.49999996181E+02 0.  0.
        -12    1    1    2    0    0 -0.21760374313E+02 -0.78663452334E+01  0.21939175496E+02  0.31886058066E+02  0.00000000000E+00 0.  1.
         11    1    3    3    0    0 -0.22237241389E+01  0.21757293282E+02 -0.89045304408E+01  0.23613881990E+02  0.51100000000E-03 0. -1.
        -11    1    3    3    0    0  0.20200412651E+02 -0.17572297875E+01 -0.10057811902E+02  0.22634135909E+02  0.51100000000E-03 0.  1.
        -12    1    3    3    0    0  0.37836858005E+01 -0.12133718262E+02 -0.29768331530E+01  0.13053924035E+02  0.00000000000E+00 0.  1.
</event>
<event>
 7    1  0.3802554E-013  0.5930194E+02  0.7816164E-02  0.1266605E+00
        -11   -1    0    0    0    0  0.00000000000E+00  0.00000000000E+00  0.45593999997E+02  0.45594000000E+02  0.51100000000E-03 0. -1.
         11   -1    0    0    0    0 -0.00000000000E+00 -0.00000000000E+00 -0.45593999997E+02  0.45594000000E+02  0.51100000000E-03 0.  1.
    9900012    2    1    2    0    0 -0.11168758176E+02 -0.16153241481E+02  0.25120758239E+02  0.59301939346E+02  0.49999991462E+02 0.  0.
        -12    1    1    2    0    0  0.11168758176E+02  0.16153241481E+02 -0.25120758239E+02  0.31886060654E+02  0.00000000000E+00 0.  1.
         11    1    3    3    0    0 -0.64716003425E+01 -0.10220119170E+02  0.12945726262E+02  0.17717908329E+02  0.51100000000E-03 0. -1.
        -11    1    3    3    0    0  0.11927983287E+02 -0.13154262451E+02 -0.29204994818E+01  0.17995575107E+02  0.51100000000E-03 0.  1.
         12    1    3    3    0    0 -0.16625141121E+02  0.72211401406E+01  0.15095531459E+02  0.23588455910E+02  0.00000000000E+00 0. -1.
</event>
<event>
 7    1  0.3802554E-013  0.5930208E+02  0.7816164E-02  0.1266604E+00
        -11   -1    0    0    0    0  0.00000000000E+00  0.00000000000E+00  0.45593999997E+02  0.45594000000E+02  0.51100000000E-03 0.  1.
         11   -1    0    0    0    0 -0.00000000000E+00 -0.00000000000E+00 -0.45593999997E+02  0.45594000000E+02  0.51100000000E-03 0. -1.
    9900012    2    1    2    0    0  0.21084522453E+02 -0.19188081114E+02 -0.14281896945E+02  0.59302076393E+02  0.50000241402E+02 0.  0.
        -12    1    1    2    0    0 -0.21084522453E+02  0.19188081114E+02  0.14281896945E+02  0.31885923607E+02  0.00000000000E+00 0.  1.
         11    1    3    3    0    0  0.11022670709E+02 -0.35824008085E+01 -0.15159914653E+02  0.19082868696E+02  0.51100000000E-03 0. -1.
        -11    1    3    3    0    0  0.14984710075E+02 -0.11705950982E+02 -0.14300747064E+02  0.23792481823E+02  0.51100000000E-03 0.  1.
        -12    1    3    3    0    0 -0.49228583307E+01 -0.38997293239E+01  0.15178764773E+02  0.16426725875E+02  0.00000000000E+00 0.  1.
</event>
<event>
 7    1  0.3802554E-013  0.5930198E+02  0.7816164E-02  0.1266605E+00
        -11   -1    0    0    0    0  0.00000000000E+00  0.00000000000E+00  0.45593999997E+02  0.45594000000E+02  0.51100000000E-03 0.  1.
         11   -1    0    0    0    0 -0.00000000000E+00 -0.00000000000E+00 -0.45593999997E+02  0.45594000000E+02  0.51100000000E-03 0. -1.
    9900012    2    1    2    0    0 -0.26949634749E+02 -0.63857399707E+01 -0.15800570587E+02  0.59301976119E+02  0.50000058526E+02 0.  0.
        -12    1    1    2    0    0  0.26949634749E+02  0.63857399707E+01  0.15800570587E+02  0.31886023881E+02  0.00000000000E+00 0.  1.
         11    1    3    3    0    0 -0.25505543853E+01 -0.45466076482E+01 -0.95949746641E+01  0.10919730209E+02  0.51100000000E-03 0. -1.
        -11    1    3    3    0    0  0.93946690317E+01 -0.94677934819E+01 -0.18374519812E+01  0.13463846021E+02  0.51100000000E-03 0.  1.
         12    1    3    3    0    0 -0.33793749395E+02  0.76286611594E+01 -0.43681439415E+01  0.34918399889E+02  0.00000000000E+00 0. -1.
</event>
<event>
 7    1  0.3802554E-013  0.5930194E+02  0.7816164E-02  0.1266605E+00
        -11   -1    0    0    0    0  0.00000000000E+00  0.00000000000E+00  0.45593999997E+02  0.45594000000E+02  0.51100000000E-03 0. -1.
         11   -1    0    0    0    0 -0.00000000000E+00 -0.00000000000E+00 -0.45593999997E+02  0.45594000000E+02  0.51100000000E-03 0.  1.
    9900012    2    1    2    0    0 -0.28747722733E+02  0.65730709236E+01  0.12127811768E+02  0.59301942828E+02  0.49999997811E+02 0.  0.
        -12    1    1    2    0    0  0.28747722733E+02 -0.65730709236E+01 -0.12127811768E+02  0.31886057172E+02  0.00000000000E+00 0.  1.
         11    1    3    3    0    0 -0.22917744106E+01  0.58356299603E+01 -0.59907607460E+00  0.62980710846E+01  0.51100000000E-03 0. -1.
        -11    1    3    3    0    0 -0.35678101277E+01  0.19696279522E+02 -0.14620705671E+01  0.20070135692E+02  0.51100000000E-03 0.  1.
         12    1    3    3    0    0 -0.22888138195E+02 -0.18958838558E+02  0.14188958410E+02  0.32933736051E+02  0.00000000000E+00 0. -1.
</event>
<event>
 7    1  0.3802554E-013  0.5930203E+02  0.7816164E-02  0.1266604E+00
        -11   -1    0    0    0    0  0.00000000000E+00  0.00000000000E+00  0.45593999997E+02  0.45594000000E+02  0.51100000000E-03 0. -1.
         11   -1    0    0    0    0 -0.00000000000E+00 -0.00000000000E+00 -0.45593999997E+02  0.45594000000E+02  0.51100000000E-03 0.  1.
    9900012    2    1    2    0    0 -0.20880828863E+02 -0.18621944084E+02  0.15294741700E+02  0.59302032253E+02  0.50000160901E+02 0.  0.
        -12    1    1    2    0    0  0.20880828863E+02  0.18621944084E+02 -0.15294741700E+02  0.31885967747E+02  0.00000000000E+00 0.  1.
         11    1    3    3    0    0 -0.28465418151E+02 -0.13513638564E+02  0.13489687441E+02  0.34276378532E+02  0.51100000000E-03 0.  1.
        -11    1    3    3    0    0  0.41154430971E+01  0.67083043972E+01  0.80152769032E+01  0.11233115501E+02  0.51100000000E-03 0. -1.
        -12    1    3    3    0    0  0.34691461908E+01 -0.11816609918E+02 -0.62102226440E+01  0.13792538219E+02  0.00000000000E+00 0.  1.
</event>
<event>
 7    1  0.3802554E-013  0.5930195E+02  0.7816164E-02  0.1266605E+00
        -11   -1    0    0    0    0  0.00000000000E+00  0.00000000000E+00  0.45593999997E+02  0.45594000000E+02  0.51100000000E-03 0. -1.
         11   -1    0    0    0    0 -0.00000000000E+00 -0.00000000000E+00 -0.45593999997E+02  0.45594000000E+02  0.51100000000E-03 0.  1.
    9900012    2    1    2    0    0 -0.11266032026E+02  0.29602507502E+02  0.36726023251E+01  0.59301953901E+02  0.50000018006E+02 0.  0.
        -12    1    1    2    0    0  0.11266032026E+02 -0.29602507502E+02 -0.36726023251E+01  0.31886046099E+02  0.00000000000E+00 0.  1.
         11    1    3    3    0    0 -0.11565792182E+02  0.11025259657E+01 -0.93809751853E+01  0.14932709332E+02  0.51100000000E-03 0. -1.
        -11    1    3    3    0    0  0.48175834718E+01  0.23410980776E+02 -0.55694536020E+01  0.24541840703E+02  0.51100000000E-03 0.  1.
        -12    1    3    3    0    0 -0.45178233154E+01  0.50890007607E+01  0.18623031112E+02  0.19827403866E+02  0.00000000000E+00 0.  1.
</event>
<event>
 7    1  0.3802554E-013  0.5930178E+02  0.7816164E-02  0.1266605E+00
        -11   -1    0    0    0    0  0.00000000000E+00  0.00000000000E+00  0.45593999997E+02  0.45594000000E+02  0.51100000000E-03 0. -1.
         11   -1    0    0    0    0 -0.00000000000E+00 -0.00000000000E+00 -0.45593999997E+02  0.45594000000E+02  0.51100000000E-03 0.  1.
    9900012    2    1    2    0    0  0.32612899815E+01 -0.31422364607E+02  0.43277936249E+01  0.59301783424E+02  0.49999707097E+02 0.  0.
        -12    1    1    2    0    0 -0.32612899815E+01  0.31422364607E+02 -0.43277936249E+01  0.31886216576E+02  0.00000000000E+00 0.  1.
         11    1    3    3    0    0 -0.11983306239E+02 -0.18577722675E+02  0.83648225201E+01  0.23636870864E+02  0.51100000000E-03 0. -1.
        -11    1    3    3    0    0  0.36467856266E+01 -0.19191627807E+02 -0.90447985129E+01  0.21527331551E+02  0.51100000000E-03 0.  1.
         12    1    3    3    0    0  0.11597810594E+02  0.63469858744E+01  0.50077696177E+01  0.14137581009E+02  0.00000000000E+00 0. -1.
</event>
<event>
 7    1  0.3802554E-013  0.5930202E+02  0.7816164E-02  0.1266604E+00
        -11   -1    0    0    0    0  0.00000000000E+00  0.00000000000E+00  0.45593999997E+02  0.45594000000E+02  0.51100000000E-03 0. -1.
         11   -1    0    0    0    0 -0.00000000000E+00 -0.00000000000E+00 -0.45593999997E+02  0.45594000000E+02  0.51100000000E-03 0.  1.
    9900012    2    1    2    0    0  0.14828281771E+01 -0.20058930656E+02  0.24741790943E+02  0.59302020361E+02  0.50000139213E+02 0.  0.
        -12    1    1    2    0    0 -0.14828281771E+01  0.20058930656E+02 -0.24741790943E+02  0.31885979639E+02  0.00000000000E+00 0.  1.
         11    1    3    3    0    0  0.34814587768E+01  0.38398726842E+01  0.22371369095E+01  0.56453484622E+01  0.51100000000E-03 0. -1.
        -11    1    3    3    0    0  0.25380729887E+01  0.11579535928E+02  0.10762806664E+02  0.16011417000E+02  0.51100000000E-03 0.  1.
        -12    1    3    3    0    0 -0.45367035884E+01 -0.35478339269E+02  0.11741847370E+02  0.37645254899E+02  0.00000000000E+00 0.  1.
</event>
<event>
 7    1  0.3802554E-013  0.5930194E+02  0.7816164E-02  0.1266605E+00
        -11   -1    0    0    0    0  0.00000000000E+00  0.00000000000E+00  0.45593999997E+02  0.45594000000E+02  0.51100000000E-03 0. -1.
         11   -1    0    0    0    0 -0.00000000000E+00 -0.00000000000E+00 -0.45593999997E+02  0.45594000000E+02  0.51100000000E-03 0.  1.
    9900012    2    1    2    0    0  0.28702293886E+02 -0.13873188970E+02  0.65876123416E+00  0.59301937012E+02  0.49999987205E+02 0.  0.
        -12    1    1    2    0    0 -0.28702293886E+02  0.13873188970E+02 -0.65876123416E+00  0.31886062988E+02  0.00000000000E+00 0.  1.
         11    1    3    3    0    0  0.12645115762E+02 -0.64082200994E+00  0.14829580856E+02  0.19499386506E+02  0.51100000000E-03 0. -1.
        -11    1    3    3    0    0  0.79034239933E+01 -0.77215198156E+01  0.92423581769E+01  0.14405108955E+02  0.51100000000E-03 0.  1.
        -12    1    3    3    0    0  0.81537541309E+01 -0.55108471444E+01 -0.23413177799E+02  0.25397441551E+02  0.00000000000E+00 0.  1.
</event>
<event>
 7    1  0.3802554E-013  0.5930202E+02  0.7816164E-02  0.1266604E+00
        -11   -1    0    0    0    0  0.00000000000E+00  0.00000000000E+00  0.45593999997E+02  0.45594000000E+02  0.51100000000E-03 0. -1.
         11   -1    0    0    0    0 -0.00000000000E+00 -0.00000000000E+00 -0.45593999997E+02  0.45594000000E+02  0.51100000000E-03 0.  1.
    9900012    2    1    2    0    0  0.25963114876E+02  0.87194668145E+00 -0.18489783687E+02  0.59302019917E+02  0.50000138403E+02 0.  0.
        -12    1    1    2    0    0 -0.25963114876E+02 -0.87194668145E+00  0.18489783687E+02  0.31885980083E+02  0.00000000000E+00 0.  1.
         11    1    3    3    0    0  0.13645865887E+02 -0.21479009425E+01 -0.34677145292E+01  0.14242477965E+02  0.51100000000E-03 0.  1.
        -11    1    3    3    0    0  0.32955383631E+01 -0.51641004463E+01  0.13073255921E+02  0.14437400291E+02  0.51100000000E-03 0. -1.
         12    1    3    3    0    0  0.90217106257E+01  0.81839480702E+01 -0.28095325078E+02  0.30622141661E+02  0.00000000000E+00 0. -1.
</event>
<event>
 7    1  0.3802554E-013  0.5930191E+02  0.7816164E-02  0.1266605E+00
        -11   -1    0    0    0    0  0.00000000000E+00  0.00000000000E+00  0.45593999997E+02  0.45594000000E+02  0.51100000000E-03 0.  1.
         11   -1    0    0    0    0 -0.00000000000E+00 -0.00000000000E+00 -0.45593999997E+02  0.45594000000E+02  0.51100000000E-03 0. -1.
    9900012    2    1    2    0    0 -0.84201544584E+01  0.19376647116E+02 -0.23882404524E+02  0.59301910551E+02  0.49999938946E+02 0.  0.
        -12    1    1    2    0    0  0.84201544584E+01 -0.19376647116E+02  0.23882404524E+02  0.31886089449E+02  0.00000000000E+00 0.  1.
         11    1    3    3    0    0 -0.93341374382E+01  0.84038533109E+01 -0.16028146708E+02  0.20363014495E+02  0.51100000000E-03 0. -1.
        -11    1    3    3    0    0 -0.90481408738E+00  0.10797749179E+02 -0.22080440123E+02  0.24595851524E+02  0.51100000000E-03 0.  1.
        -12    1    3    3    0    0  0.18187970672E+01  0.17504462552E+00  0.14226182307E+02  0.14343044532E+02  0.00000000000E+00 0.  1.
</event>
<event>
 7    1  0.3802554E-013  0.5930191E+02  0.7816164E-02  0.1266605E+00
        -11   -1    0    0    0    0  0.00000000000E+00  0.00000000000E+00  0.45593999997E+02  0.45594000000E+02  0.51100000000E-03 0.  1.
         11   -1    0    0    0    0 -0.00000000000E+00 -0.00000000000E+00 -0.45593999997E+02  0.45594000000E+02  0.51100000000E-03 0. -1.
    9900012    2    1    2    0    0 -0.26865946225E+02  0.12269601987E+02 -0.12016669290E+02  0.59301913061E+02  0.49999943524E+02 0.  0.
        -12    1    1    2    0    0  0.26865946225E+02 -0.12269601987E+02  0.12016669290E+02  0.31886086939E+02  0.00000000000E+00 0.  1.
         11    1    3    3    0    0 -0.11552474590E+02  0.97514838126E+01 -0.21328684528E+02  0.26143142306E+02  0.51100000000E-03 0. -1.
        -11    1    3    3    0    0 -0.15450726124E+02 -0.61461032876E+01 -0.41598386082E+01  0.17140705379E+02  0.51100000000E-03 0.  1.
         12    1    3    3    0    0  0.13725448955E+00  0.86642214618E+01  0.13471853846E+02  0.16018065376E+02  0.00000000000E+00 0. -1.
</event>
<event>
 7    1  0.3802554E-013  0.5930208E+02  0.7816164E-02  0.1266604E+00
        -11   -1    0    0    0    0  0.00000000000E+00  0.00000000000E+00  0.45593999997E+02  0.45594000000E+02  0.51100000000E-03 0.  1.
         11   -1    0    0    0    0 -0.00000000000E+00 -0.00000000000E+00 -0.45593999997E+02  0.45594000000E+02  0.51100000000E-03 0. -1.
    9900012    2    1    2    0    0 -0.11911581635E+02  0.28286389444E+02 -0.86432958502E+01  0.59302075708E+02  0.50000240152E+02 0.  0.
        -12    1    1    2    0    0  0.11911581635E+02 -0.28286389444E+02  0.86432958502E+01  0.31885924292E+02  0.00000000000E+00 0.  1.
         11    1    3    3    0    0 -0.15717449614E+02  0.14756221269E+02  0.45737470925E+01  0.22038680796E+02  0.51100000000E-03 0. -1.
        -11    1    3    3    0    0 -0.97591757067E+01  0.17695367494E+01  0.54889643838E+01  0.11335850257E+02  0.51100000000E-03 0.  1.
         12    1    3    3    0    0  0.13565043686E+02  0.11760631426E+02 -0.18706007327E+02  0.25927544655E+02  0.00000000000E+00 0. -1.
</event>
<event>
 7    1  0.3802554E-013  0.5930198E+02  0.7816164E-02  0.1266605E+00
        -11   -1    0    0    0    0  0.00000000000E+00  0.00000000000E+00  0.45593999997E+02  0.45594000000E+02  0.51100000000E-03 0. -1.
         11   -1    0    0    0    0 -0.00000000000E+00 -0.00000000000E+00 -0.45593999997E+02  0.45594000000E+02  0.51100000000E-03 0.  1.
    9900012    2    1    2    0    0  0.16506380115E+02 -0.67476723753E+01  0.26433434956E+02  0.59301981895E+02  0.50000069061E+02 0.  0.
        -12    1    1    2    0    0 -0.16506380115E+02  0.67476723753E+01 -0.26433434956E+02  0.31886018105E+02  0.00000000000E+00 0.  1.
         11    1    3    3    0    0  0.32208023723E+01 -0.86000367665E+00  0.20538883054E+01  0.39155627537E+01  0.51100000000E-03 0. -1.
        -11    1    3    3    0    0  0.26356158848E+02  0.91021315062E+01  0.21671177957E+02  0.35314810795E+02  0.51100000000E-03 0.  1.
        -12    1    3    3    0    0 -0.13070581106E+02 -0.14989800205E+02  0.27083686942E+01  0.20071608347E+02  0.00000000000E+00 0.  1.
</event>
<event>
 7    1  0.3802554E-013  0.5930194E+02  0.7816164E-02  0.1266605E+00
        -11   -1    0    0    0    0  0.00000000000E+00  0.00000000000E+00  0.45593999997E+02  0.45594000000E+02  0.51100000000E-03 0. -1.
         11   -1    0    0    0    0 -0.00000000000E+00 -0.00000000000E+00 -0.45593999997E+02  0.45594000000E+02  0.51100000000E-03 0.  1.
    9900012    2    1    2    0    0  0.20993767191E+02  0.14323810707E+02  0.19256448239E+02  0.59301943285E+02  0.49999998646E+02 0.  0.
        -12    1    1    2    0    0 -0.20993767191E+02 -0.14323810707E+02 -0.19256448239E+02  0.31886056715E+02  0.00000000000E+00 0.  1.
         11    1    3    3    0    0  0.14504349155E+02 -0.86370696637E+01  0.35749860603E+01  0.17255597422E+02  0.51100000000E-03 0. -1.
        -11    1    3    3    0    0 -0.21838486691E+01  0.83812083764E+01 -0.87441209809E+01  0.12307457124E+02  0.51100000000E-03 0.  1.
         12    1    3    3    0    0  0.86732667052E+01  0.14579671994E+02  0.24425583159E+02  0.29738888740E+02  0.00000000000E+00 0. -1.
</event>
<event>
 7    1  0.3802554E-013  0.5930194E+02  0.7816164E-02  0.1266605E+00
        -11   -1    0    0    0    0  0.00000000000E+00  0.00000000000E+00  0.45593999997E+02  0.45594000000E+02  0.51100000000E-03 0.  1.
         11   -1    0    0    0    0 -0.00000000000E+00 -0.00000000000E+00 -0.45593999997E+02  0.45594000000E+02  0.51100000000E-03 0. -1.
    9900012    2    1    2    0    0  0.43657413354E+01  0.88091970478E+01 -0.30332471941E+02  0.59301944991E+02  0.50000001756E+02 0.  0.
        -12    1    1    2    0    0 -0.43657413354E+01 -0.88091970478E+01  0.30332471941E+02  0.31886055009E+02  0.00000000000E+00 0.  1.
         11    1    3    3    0    0 -0.61494930907E+01  0.16037281081E+02 -0.10450515938E+02  0.20105321021E+02  0.51100000000E-03 0. -1.
        -11    1    3    3    0    0  0.72523568368E+01  0.97588379391E+01  0.85960887552E+00  0.12188950951E+02  0.51100000000E-03 0.  1.
         12    1    3    3    0    0  0.32628775892E+01 -0.16986921972E+02 -0.20741564878E+02  0.27007673018E+02  0.00000000000E+00 0. -1.
</event>
<event>
 7    1  0.3802554E-013  0.5930195E+02  0.7816164E-02  0.1266605E+00
        -11   -1    0    0    0    0  0.00000000000E+00  0.00000000000E+00  0.45593999997E+02  0.45594000000E+02  0.51100000000E-03 0. -1.
         11   -1    0    0    0    0 -0.00000000000E+00 -0.00000000000E+00 -0.45593999997E+02  0.45594000000E+02  0.51100000000E-03 0.  1.
    9900012    2    1    2    0    0 -0.21373155548E+02  0.13351855274E+02  0.19535516802E+02  0.59301949224E+02  0.50000009477E+02 0.  0.
        -12    1    1    2    0    0  0.21373155548E+02 -0.13351855274E+02 -0.19535516802E+02  0.31886050776E+02  0.00000000000E+00 0.  1.
         11    1    3    3    0    0 -0.61475577955E+01  0.39983381387E+01  0.97709543414E+00  0.73982356322E+01  0.51100000000E-03 0. -1.
        -11    1    3    3    0    0 -0.18048184658E+02 -0.93112029586E+01 -0.57684960981E+01  0.21111869114E+02  0.51100000000E-03 0.  1.
        -12    1    3    3    0    0  0.28225869047E+01  0.18664720094E+02  0.24326917466E+02  0.30791844479E+02  0.00000000000E+00 0.  1.
</event>
<event>
 7    1  0.3802554E-013  0.5930194E+02  0.7816164E-02  0.1266605E+00
        -11   -1    0    0    0    0  0.00000000000E+00  0.00000000000E+00  0.45593999997E+02  0.45594000000E+02  0.51100000000E-03 0. -1.
         11   -1    0    0    0    0 -0.00000000000E+00 -0.00000000000E+00 -0.45593999997E+02  0.45594000000E+02  0.51100000000E-03 0.  1.
    9900012    2    1    2    0    0  0.29087590783E+02  0.52026152645E+01 -0.11981892813E+02  0.59301938805E+02  0.49999990474E+02 0.  0.
        -12    1    1    2    0    0 -0.29087590783E+02 -0.52026152645E+01  0.11981892813E+02  0.31886061195E+02  0.00000000000E+00 0.  1.
         11    1    3    3    0    0  0.38513324245E+01  0.62662662790E+01 -0.86076473960E+01  0.11322122084E+02  0.51100000000E-03 0. -1.
        -11    1    3    3    0    0  0.27144903626E+02 -0.72733066661E+01 -0.17028416962E+02  0.32858998269E+02  0.51100000000E-03 0.  1.
         12    1    3    3    0    0 -0.19086452673E+01  0.62096556515E+01  0.13654171545E+02  0.15120818452E+02  0.00000000000E+00 0. -1.
</event>
<event>
 7    1  0.3802554E-013  0.5930194E+02  0.7816164E-02  0.1266605E+00
        -11   -1    0    0    0    0  0.00000000000E+00  0.00000000000E+00  0.45593999997E+02  0.45594000000E+02  0.51100000000E-03 0. -1.
         11   -1    0    0    0    0 -0.00000000000E+00 -0.00000000000E+00 -0.45593999997E+02  0.45594000000E+02  0.51100000000E-03 0.  1.
    9900012    2    1    2    0    0  0.20359925007E+02  0.12678980160E+02  0.21010418761E+02  0.59301940653E+02  0.49999993845E+02 0.  0.
        -12    1    1    2    0    0 -0.20359925007E+02 -0.12678980160E+02 -0.21010418761E+02  0.31886059347E+02  0.00000000000E+00 0.  1.
         11    1    3    3    0    0 -0.14242480671E+01  0.19483378425E+02  0.19533090887E+02  0.27625570714E+02  0.51100000000E-03 0.  1.
        -11    1    3    3    0    0  0.17495112077E+02  0.47716891978E+01  0.50508879362E+01  0.18824437139E+02  0.51100000000E-03 0. -1.
        -12    1    3    3    0    0  0.42890609977E+01 -0.11576087462E+02 -0.35735600628E+01  0.12851932800E+02  0.00000000000E+00 0.  1.
</event>
<event>
 7    1  0.3802554E-013  0.5930194E+02  0.7816164E-02  0.1266605E+00
        -11   -1    0    0    0    0  0.00000000000E+00  0.00000000000E+00  0.45593999997E+02  0.45594000000E+02  0.51100000000E-03 0.  1.
         11   -1    0    0    0    0 -0.00000000000E+00 -0.00000000000E+00 -0.45593999997E+02  0.45594000000E+02  0.51100000000E-03 0. -1.
    9900012    2    1    2    0    0  0.22477556512E+02  0.15784258199E+02 -0.16196829474E+02  0.59301942880E+02  0.49999997907E+02 0.  0.
        -12    1    1    2    0    0 -0.22477556512E+02 -0.15784258199E+02  0.16196829474E+02  0.31886057120E+02  0.00000000000E+00 0.  1.
         11    1    3    3    0    0  0.15621001006E+02 -0.12661514510E+02 -0.79213080783E+01  0.21611958358E+02  0.51100000000E-03 0. -1.
        -11    1    3    3    0    0 -0.79406275806E-01 -0.35234142959E+01 -0.28450759123E+01  0.45293720166E+01  0.51100000000E-03 0.  1.
         12    1    3    3    0    0  0.69359617815E+01  0.31969187005E+02 -0.54304454834E+01  0.33160612506E+02  0.00000000000E+00 0. -1.
</event>
<event>
 7    1  0.3802554E-013  0.5930198E+02  0.7816164E-02  0.1266605E+00
        -11   -1    0    0    0    0  0.00000000000E+00  0.00000000000E+00  0.45593999997E+02  0.45594000000E+02  0.51100000000E-03 0. -1.
         11   -1    0    0    0    0 -0.00000000000E+00 -0.00000000000E+00 -0.45593999997E+02  0.45594000000E+02  0.51100000000E-03 0.  1.
    9900012    2    1    2    0    0  0.29832732203E+01  0.30590625391E+02  0.84871771330E+01  0.59301977096E+02  0.50000060309E+02 0.  0.
        -12    1    1    2    0    0 -0.29832732203E+01 -0.30590625391E+02 -0.84871771330E+01  0.31886022904E+02  0.00000000000E+00 0.  1.
         11    1    3    3    0    0 -0.21351273276E+01  0.88375674329E+01  0.48814477544E+01  0.10319394327E+02  0.51100000000E-03 0. -1.
        -11    1    3    3    0    0  0.12721925608E+02  0.32807136973E+02  0.40650263383E+00  0.35189783634E+02  0.51100000000E-03 0.  1.
        -12    1    3    3    0    0 -0.76035250604E+01 -0.11054079015E+02  0.31992267449E+01  0.13792799135E+02  0.00000000000E+00 0.  1.
</event>
<event>
 7    1  0.3802554E-013  0.5930197E+02  0.7816164E-02  0.1266605E+00
        -11   -1    0    0    0    0  0.00000000000E+00  0.00000000000E+00  0.45593999997E+02  0.45594000000E+02  0.51100000000E-03 0.  1.
         11   -1    0    0    0    0 -0.00000000000E+00 -0.00000000000E+00 -0.45593999997E+02  0.45594000000E+02  0.51100000000E-03 0. -1.
    9900012    2    1    2    0    0 -0.31652448482E+02 -0.10681140163E+01 -0.37014179070E+01  0.59301970818E+02  0.50000048859E+02 0.  0.
        -12    1    1    2    0    0  0.31652448482E+02  0.10681140163E+01  0.37014179070E+01  0.31886029182E+02  0.00000000000E+00 0.  1.
         11    1    3    3    0    0 -0.17956760765E+02 -0.94617499025E+01  0.62950864053E+01  0.21250837195E+02  0.51100000000E-03 0. -1.
        -11    1    3    3    0    0 -0.12553791787E+02  0.18199504153E+02  0.23604332734E+01  0.22234911404E+02  0.51100000000E-03 0.  1.
         12    1    3    3    0    0 -0.11418959306E+01 -0.98058682666E+01 -0.12356937586E+02  0.15816222219E+02  0.00000000000E+00 0. -1.
</event>
<event>
 7    1  0.3802554E-013  0.5930202E+02  0.7816164E-02  0.1266604E+00
        -11   -1    0    0    0    0  0.00000000000E+00  0.00000000000E+00  0.45593999997E+02  0.45594000000E+02  0.51100000000E-03 0.  1.
         11   -1    0    0    0    0 -0.00000000000E+00 -0.00000000000E+00 -0.45593999997E+02  0.45594000000E+02  0.51100000000E-03 0. -1.
    9900012    2    1    2    0    0 -0.87789034705E+01  0.18836580488E+02 -0.24183252811E+02  0.59302021465E+02  0.50000141226E+02 0.  0.
        -12    1    1    2    0    0  0.87789034705E+01 -0.18836580488E+02  0.24183252811E+02  0.31885978535E+02  0.00000000000E+00 0.  1.
         11    1    3    3    0    0 -0.67168798926E+01  0.24047573957E+02 -0.80591925669E+01  0.26236479829E+02  0.51100000000E-03 0. -1.
        -11    1    3    3    0    0 -0.76662475419E+01 -0.36749206338E+01  0.58606255026E+01  0.10325857087E+02  0.51100000000E-03 0.  1.
        -12    1    3    3    0    0  0.56042239640E+01 -0.15360728351E+01 -0.21984685747E+02  0.22739684549E+02  0.00000000000E+00 0.  1.
</event>
<event>
 7    1  0.3802554E-013  0.5930195E+02  0.7816164E-02  0.1266605E+00
        -11   -1    0    0    0    0  0.00000000000E+00  0.00000000000E+00  0.45593999997E+02  0.45594000000E+02  0.51100000000E-03 0.  1.
         11   -1    0    0    0    0 -0.00000000000E+00 -0.00000000000E+00 -0.45593999997E+02  0.45594000000E+02  0.51100000000E-03 0. -1.
    9900012    2    1    2    0    0 -0.22619027859E+02 -0.18704340420E+02 -0.12459825426E+02  0.59301952558E+02  0.50000015557E+02 0.  0.
        -12    1    1    2    0    0  0.22619027859E+02  0.18704340420E+02  0.12459825426E+02  0.31886047442E+02  0.00000000000E+00 0.  1.
         11    1    3    3    0    0 -0.32609011972E+01 -0.98730308220E+01 -0.80107494003E+01  0.13125636002E+02  0.51100000000E-03 0. -1.
        -11    1    3    3    0    0  0.19077874697E+01 -0.14300004449E+02 -0.15852178462E+02  0.21434116323E+02  0.51100000000E-03 0.  1.
        -12    1    3    3    0    0 -0.21265914131E+02  0.54686948512E+01  0.11403102437E+02  0.24742200233E+02  0.00000000000E+00 0.  1.
</event>
<event>
 7    1  0.3802554E-013  0.5930203E+02  0.7816164E-02  0.1266604E+00
        -11   -1    0    0    0    0  0.00000000000E+00  0.00000000000E+00  0.45593999997E+02  0.45594000000E+02  0.51100000000E-03 0.  1.
         11   -1    0    0    0    0 -0.00000000000E+00 -0.00000000000E+00 -0.45593999997E+02  0.45594000000E+02  0.51100000000E-03 0. -1.
    9900012    2    1    2    0    0  0.26612738785E+02  0.11755742746E+02  0.13049122259E+02  0.59302032164E+02  0.50000160738E+02 0.  0.
        -12    1    1    2    0    0 -0.26612738785E+02 -0.11755742746E+02 -0.13049122259E+02  0.31885967836E+02  0.00000000000E+00 0.  1.
         11    1    3    3    0    0  0.13346248030E+02  0.22922709190E+01 -0.14457247647E+02  0.19808807441E+02  0.51100000000E-03 0. -1.
        -11    1    3    3    0    0  0.38722206261E+01 -0.71524198889E+01  0.35813756763E+01  0.88869260625E+01  0.51100000000E-03 0.  1.
        -12    1    3    3    0    0  0.93942701287E+01  0.16615891716E+02  0.23924994230E+02  0.30606298660E+02  0.00000000000E+00 0.  1.
</event>
<event>
 7    1  0.3802554E-013  0.5930196E+02  0.7816164E-02  0.1266605E+00
        -11   -1    0    0    0    0  0.00000000000E+00  0.00000000000E+00  0.45593999997E+02  0.45594000000E+02  0.51100000000E-03 0.  1.
         11   -1    0    0    0    0 -0.00000000000E+00 -0.00000000000E+00 -0.45593999997E+02  0.45594000000E+02  0.51100000000E-03 0. -1.
    9900012    2    1    2    0    0 -0.11716141897E+01  0.93060855162E+01 -0.30475299276E+02  0.59301956447E+02  0.50000022651E+02 0.  0.
        -12    1    1    2    0    0  0.11716141897E+01 -0.93060855162E+01  0.30475299276E+02  0.31886043553E+02  0.00000000000E+00 0.  1.
         11    1    3    3    0    0 -0.37328644027E+01  0.21161908439E+02 -0.25280586103E+02  0.33179341153E+02  0.51100000000E-03 0. -1.
        -11    1    3    3    0    0 -0.94787374904E+01 -0.23396156870E+01 -0.45263654207E+01  0.10761424170E+02  0.51100000000E-03 0.  1.
        -12    1    3    3    0    0  0.12039987703E+02 -0.95162072354E+01 -0.66834775315E+00  0.15361191125E+02  0.00000000000E+00 0.  1.
</event>
<event>
 7    1  0.3802554E-013  0.5930207E+02  0.7816164E-02  0.1266604E+00
        -11   -1    0    0    0    0  0.00000000000E+00  0.00000000000E+00  0.45593999997E+02  0.45594000000E+02  0.51100000000E-03 0.  1.
         11   -1    0    0    0    0 -0.00000000000E+00 -0.00000000000E+00 -0.45593999997E+02  0.45594000000E+02  0.51100000000E-03 0. -1.
    9900012    2    1    2    0    0 -0.48609452145E+01  0.29846513149E+02 -0.10112829798E+02  0.59302071096E+02  0.50000231741E+02 0.  0.
        -12    1    1    2    0    0  0.48609452145E+01 -0.29846513149E+02  0.10112829798E+02  0.31885928904E+02  0.00000000000E+00 0.  1.
         11    1    3    3    0    0 -0.97654808804E+01 -0.36594117922E+01  0.15885416472E+01  0.10548904034E+02  0.51100000000E-03 0. -1.
        -11    1    3    3    0    0  0.26595447695E+00 -0.67496528075E+01 -0.88614170430E+00  0.68127668526E+01  0.51100000000E-03 0.  1.
        -12    1    3    3    0    0  0.46385811890E+01  0.40255577749E+02 -0.10815229741E+02  0.41940400209E+02  0.00000000000E+00 0.  1.
</event>
<event>
 7    1  0.3802554E-013  0.5930197E+02  0.7816164E-02  0.1266605E+00
        -11   -1    0    0    0    0  0.00000000000E+00  0.00000000000E+00  0.45593999997E+02  0.45594000000E+02  0.51100000000E-03 0.  1.
         11   -1    0    0    0    0 -0.00000000000E+00 -0.00000000000E+00 -0.45593999997E+02  0.45594000000E+02  0.51100000000E-03 0. -1.
    9900012    2    1    2    0    0 -0.16708884871E+02 -0.11184940450E+02 -0.24747311242E+02  0.59301966377E+02  0.50000040760E+02 0.  0.
        -12    1    1    2    0    0  0.16708884871E+02  0.11184940450E+02  0.24747311242E+02  0.31886033623E+02  0.00000000000E+00 0.  1.
         11    1    3    3    0    0 -0.10951423471E+02  0.75926150352E+01  0.99487023389E+00  0.13363055271E+02  0.51100000000E-03 0.  1.
        -11    1    3    3    0    0 -0.11371823685E+02 -0.22914194703E+02 -0.78852716336E+01  0.26768567422E+02  0.51100000000E-03 0. -1.
         12    1    3    3    0    0  0.56143622857E+01  0.41366392181E+01 -0.17856909842E+02  0.19170343685E+02  0.00000000000E+00 0. -1.
</event>
<event>
 7    1  0.3802554E-013  0.5930200E+02  0.7816164E-02  0.1266605E+00
        -11   -1    0    0    0    0  0.00000000000E+00  0.00000000000E+00  0.45593999997E+02  0.45594000000E+02  0.51100000000E-03 0.  1.
         11   -1    0    0    0    0 -0.00000000000E+00 -0.00000000000E+00 -0.45593999997E+02  0.45594000000E+02  0.51100000000E-03 0. -1.
    9900012    2    1    2    0    0 -0.96573237440E+01 -0.27040055813E+02  0.13866809733E+02  0.59302000997E+02  0.50000103897E+02 0.  0.
        -12    1    1    2    0    0  0.96573237440E+01  0.27040055813E+02 -0.13866809733E+02  0.31885999003E+02  0.00000000000E+00 0.  1.
         11    1    3    3    0    0 -0.14523680421E+02 -0.12150812269E+02  0.17784182047E+02  0.25978003447E+02  0.51100000000E-03 0. -1.
        -11    1    3    3    0    0  0.52138347573E+01  0.20187373112E+01  0.99769426769E+01  0.11436728494E+02  0.51100000000E-03 0.  1.
         12    1    3    3    0    0 -0.34747807996E+00 -0.16907980856E+02 -0.13894314991E+02  0.21887269055E+02  0.00000000000E+00 0. -1.
</event>
<event>
 7    1  0.3802554E-013  0.5930194E+02  0.7816164E-02  0.1266605E+00
        -11   -1    0    0    0    0  0.00000000000E+00  0.00000000000E+00  0.45593999997E+02  0.45594000000E+02  0.51100000000E-03 0.  1.
         11   -1    0    0    0    0 -0.00000000000E+00 -0.00000000000E+00 -0.45593999997E+02  0.45594000000E+02  0.51100000000E-03 0. -1.
    9900012    2    1    2    0    0 -0.35867222732E+01 -0.40072881204E+01 -0.31429252190E+02  0.59301939912E+02  0.49999992494E+02 0.  0.
        -12    1    1    2    0    0  0.35867222732E+01  0.40072881204E+01  0.31429252190E+02  0.31886060088E+02  0.00000000000E+00 0.  1.
         11    1    3    3    0    0 -0.66745914342E+01 -0.18159340347E+01 -0.11986124912E+02  0.13838893666E+02  0.51100000000E-03 0. -1.
        -11    1    3    3    0    0 -0.14993526801E+02  0.57839157097E+01 -0.20045110215E+02  0.25691749078E+02  0.51100000000E-03 0.  1.
        -12    1    3    3    0    0  0.18081395962E+02 -0.79752697953E+01  0.60198293740E+00  0.19771297168E+02  0.00000000000E+00 0.  1.
</event>
<event>
 7    1  0.3802554E-013  0.5930195E+02  0.7816164E-02  0.1266605E+00
        -11   -1    0    0    0    0  0.00000000000E+00  0.00000000000E+00  0.45593999997E+02  0.45594000000E+02  0.51100000000E-03 0.  1.
         11   -1    0    0    0    0 -0.00000000000E+00 -0.00000000000E+00 -0.45593999997E+02  0.45594000000E+02  0.51100000000E-03 0. -1.
    9900012    2    1    2    0    0  0.55216790661E+01 -0.26358308736E+02 -0.17072507670E+02  0.59301954506E+02  0.50000019110E+02 0.  0.
        -12    1    1    2    0    0 -0.55216790661E+01  0.26358308736E+02  0.17072507670E+02  0.31886045494E+02  0.00000000000E+00 0.  1.
         11    1    3    3    0    0 -0.57299070879E+01 -0.27593929933E+02  0.32972802478E+01  0.28374792716E+02  0.51100000000E-03 0. -1.
        -11    1    3    3    0    0  0.10622719173E+02  0.23276523561E+01 -0.36308043777E+00  0.10880806762E+02  0.51100000000E-03 0.  1.
        -12    1    3    3    0    0  0.62886698061E+00 -0.10920311590E+01 -0.20006707480E+02  0.20046355028E+02  0.00000000000E+00 0.  1.
</event>
<event>
 7    1  0.3802554E-013  0.5930195E+02  0.7816164E-02  0.1266605E+00
        -11   -1    0    0    0    0  0.00000000000E+00  0.00000000000E+00  0.45593999997E+02  0.45594000000E+02  0.51100000000E-03 0.  1.
         11   -1    0    0    0    0 -0.00000000000E+00 -0.00000000000E+00 -0.45593999997E+02  0.45594000000E+02  0.51100000000E-03 0. -1.
    9900012    2    1    2    0    0  0.27444338147E+02 -0.12800559076E+02  0.99836925972E+01  0.59301950905E+02  0.50000012543E+02 0.  0.
        -12    1    1    2    0    0 -0.27444338147E+02  0.12800559076E+02 -0.99836925972E+01  0.31886049095E+02  0.00000000000E+00 0.  1.
         11    1    3    3    0    0 -0.75910081828E+01 -0.44294352356E+01 -0.12831737556E+01  0.88819950960E+01  0.51100000000E-03 0. -1.
        -11    1    3    3    0    0  0.35185659922E+02 -0.14315087866E+02  0.17484441639E+02  0.41816959532E+02  0.51100000000E-03 0.  1.
         12    1    3    3    0    0 -0.15031359224E+00  0.59439640258E+01 -0.62175752861E+01  0.86029962777E+01  0.00000000000E+00 0. -1.
</event>
<event>
 7    1  0.3802554E-013  0.5930201E+02  0.7816164E-02  0.1266605E+00
        -11   -1    0    0    0    0  0.00000000000E+00  0.00000000000E+00  0.45593999997E+02  0.45594000000E+02  0.51100000000E-03 0.  1.
         11   -1    0    0    0    0 -0.00000000000E+00 -0.00000000000E+00 -0.45593999997E+02  0.45594000000E+02  0.51100000000E-03 0. -1.
    9900012    2    1    2    0    0 -0.30781418487E+02  0.66922404707E+01 -0.49431458284E+01  0.59302007820E+02  0.50000116342E+02 0.  0.
        -12    1    1    2    0    0  0.30781418487E+02 -0.66922404707E+01  0.49431458284E+01  0.31885992180E+02  0.00000000000E+00 0.  1.
         11    1    3    3    0    0 -0.10510446814E+02  0.10615444925E+02  0.24863633352E+01  0.15143948167E+02  0.51100000000E-03 0. -1.
        -11    1    3    3    0    0 -0.15460296691E+02  0.16011422511E+02 -0.79778109688E+01  0.23643855285E+02  0.51100000000E-03 0.  1.
        -12    1    3    3    0    0 -0.48106749823E+01 -0.19934626965E+02  0.54830180517E+00  0.20514204369E+02  0.00000000000E+00 0.  1.
</event>
<event>
 7    1  0.3802554E-013  0.5930197E+02  0.7816164E-02  0.1266605E+00
        -11   -1    0    0    0    0  0.00000000000E+00  0.00000000000E+00  0.45593999997E+02  0.45594000000E+02  0.51100000000E-03 0.  1.
         11   -1    0    0    0    0 -0.00000000000E+00 -0.00000000000E+00 -0.45593999997E+02  0.45594000000E+02  0.51100000000E-03 0. -1.
    9900012    2    1    2    0    0 -0.15737923706E+00 -0.43241685636E+01 -0.31591073071E+02  0.59301967011E+02  0.50000041916E+02 0.  0.
        -12    1    1    2    0    0  0.15737923706E+00  0.43241685636E+01  0.31591073071E+02  0.31886032989E+02  0.00000000000E+00 0.  1.
         11    1    3    3    0    0  0.41613901585E+01  0.39718094557E+00 -0.20996943570E+02  0.21409029878E+02  0.51100000000E-03 0. -1.
        -11    1    3    3    0    0 -0.20754284494E+01 -0.14557212714E+02 -0.19509029655E+02  0.24429942357E+02  0.51100000000E-03 0.  1.
        -12    1    3    3    0    0 -0.22433409462E+01  0.98358632053E+01  0.89149001537E+01  0.13462994776E+02  0.00000000000E+00 0.  1.
</event>
<event>
 7    1  0.3802554E-013  0.5930191E+02  0.7816164E-02  0.1266605E+00
        -11   -1    0    0    0    0  0.00000000000E+00  0.00000000000E+00  0.45593999997E+02  0.45594000000E+02  0.51100000000E-03 0. -1.
         11   -1    0    0    0    0 -0.00000000000E+00 -0.00000000000E+00 -0.45593999997E+02  0.45594000000E+02  0.51100000000E-03 0.  1.
    9900012    2    1    2    0    0  0.12795359803E+02 -0.25293467934E+02  0.14602804101E+02  0.59301911494E+02  0.49999940666E+02 0.  0.
        -12    1    1    2    0    0 -0.12795359803E+02  0.25293467934E+02 -0.14602804101E+02  0.31886088506E+02  0.00000000000E+00 0.  1.
         11    1    3    3    0    0  0.44113691773E+01 -0.50478921350E+00  0.16701024751E+02  0.17281181041E+02  0.51100000000E-03 0. -1.
        -11    1    3    3    0    0  0.20913276303E+02 -0.17218894750E+02  0.78449398336E+00  0.27101123467E+02  0.51100000000E-03 0.  1.
         12    1    3    3    0    0 -0.12529285677E+02 -0.75697839711E+01 -0.28827146340E+01  0.14919606985E+02  0.00000000000E+00 0. -1.
</event>
<event>
 7    1  0.3802554E-013  0.5930177E+02  0.7816164E-02  0.1266605E+00
        -11   -1    0    0    0    0  0.00000000000E+00  0.00000000000E+00  0.45593999997E+02  0.45594000000E+02  0.51100000000E-03 0.  1.
         11   -1    0    0    0    0 -0.00000000000E+00 -0.00000000000E+00 -0.45593999997E+02  0.45594000000E+02  0.51100000000E-03 0. -1.
    9900012    2    1    2    0    0 -0.24986350102E+02  0.83771600709E+01 -0.17950968258E+02  0.59301768431E+02  0.49999679753E+02 0.  0.
        -12    1    1    2    0    0  0.24986350102E+02 -0.83771600709E+01  0.17950968258E+02  0.31886231569E+02  0.00000000000E+00 0.  1.
         11    1    3    3    0    0 -0.10406717291E+02  0.37428001282E+01 -0.10678908821E+01  0.11110747445E+02  0.51100000000E-03 0. -1.
        -11    1    3    3    0    0  0.95118718510E+00  0.21734868538E+02 -0.55098422242E+01  0.22442540609E+02  0.51100000000E-03 0.  1.
        -12    1    3    3    0    0 -0.15530819995E+02 -0.17100508595E+02 -0.11373235152E+02  0.25748480377E+02  0.00000000000E+00 0.  1.
</event>
<event>
 7    1  0.3802554E-013  0.5930204E+02  0.7816164E-02  0.1266604E+00
        -11   -1    0    0    0    0  0.00000000000E+00  0.00000000000E+00  0.45593999997E+02  0.45594000000E+02  0.51100000000E-03 0.  1.
         11   -1    0    0    0    0 -0.00000000000E+00 -0.00000000000E+00 -0.45593999997E+02  0.45594000000E+02  0.51100000000E-03 0. -1.
    9900012    2    1    2    0    0  0.12503970136E+02  0.28786216451E+02  0.56319413324E+01  0.59302042434E+02  0.50000179470E+02 0.  0.
        -12    1    1    2    0    0 -0.12503970136E+02 -0.28786216451E+02 -0.56319413324E+01  0.31885957566E+02  0.00000000000E+00 0.  1.
         11    1    3    3    0    0 -0.11696947934E+00  0.88072391473E-01 -0.11268851616E+02  0.11269802820E+02  0.51100000000E-03 0. -1.
        -11    1    3    3    0    0 -0.10488077028E+02  0.14243223884E+02  0.60456898034E+01  0.18692767366E+02  0.51100000000E-03 0.  1.
         12    1    3    3    0    0  0.23109016643E+02  0.14454920176E+02  0.10855103145E+02  0.29339472248E+02  0.00000000000E+00 0. -1.
</event>
<event>
 7    1  0.3802554E-013  0.5930196E+02  0.7816164E-02  0.1266605E+00
        -11   -1    0    0    0    0  0.00000000000E+00  0.00000000000E+00  0.45593999997E+02  0.45594000000E+02  0.51100000000E-03 0.  1.
         11   -1    0    0    0    0 -0.00000000000E+00 -0.00000000000E+00 -0.45593999997E+02  0.45594000000E+02  0.51100000000E-03 0. -1.
    9900012    2    1    2    0    0 -0.30670028719E+02 -0.32194915124E+01 -0.81057901765E+01  0.59301958828E+02  0.50000026992E+02 0.  0.
        -12    1    1    2    0    0  0.30670028719E+02  0.32194915124E+01  0.81057901765E+01  0.31886041172E+02  0.00000000000E+00 0.  1.
         11    1    3    3    0    0 -0.12967307166E+02  0.31917471563E+01 -0.13600540003E+02  0.19060771067E+02  0.51100000000E-03 0. -1.
        -11    1    3    3    0    0 -0.24144268729E+02  0.54619767720E+01  0.89083573306E+01  0.26308510663E+02  0.51100000000E-03 0.  1.
         12    1    3    3    0    0  0.64415471758E+01 -0.11873215441E+02 -0.34136075046E+01  0.13932677098E+02  0.00000000000E+00 0. -1.
</event>
<event>
 7    1  0.3802554E-013  0.5930195E+02  0.7816164E-02  0.1266605E+00
        -11   -1    0    0    0    0  0.00000000000E+00  0.00000000000E+00  0.45593999997E+02  0.45594000000E+02  0.51100000000E-03 0.  1.
         11   -1    0    0    0    0 -0.00000000000E+00 -0.00000000000E+00 -0.45593999997E+02  0.45594000000E+02  0.51100000000E-03 0. -1.
    9900012    2    1    2    0    0  0.13190966385E+02  0.15869655075E+02 -0.24307872795E+02  0.59301949348E+02  0.50000009703E+02 0.  0.
        -12    1    1    2    0    0 -0.13190966385E+02 -0.15869655075E+02  0.24307872795E+02  0.31886050652E+02  0.00000000000E+00 0.  1.
         11    1    3    3    0    0 -0.59113950081E+01  0.17426688989E+02 -0.73017552647E+01  0.19797719825E+02  0.51100000000E-03 0. -1.
        -11    1    3    3    0    0  0.23757833835E+02  0.77874593331E+01 -0.13930784757E+02  0.28620725980E+02  0.51100000000E-03 0.  1.
        -12    1    3    3    0    0 -0.46554724420E+01 -0.93444932474E+01 -0.30753327730E+01  0.10883503543E+02  0.00000000000E+00 0.  1.
</event>
<event>
 7    1  0.3802554E-013  0.5930206E+02  0.7816164E-02  0.1266604E+00
        -11   -1    0    0    0    0  0.00000000000E+00  0.00000000000E+00  0.45593999997E+02  0.45594000000E+02  0.51100000000E-03 0.  1.
         11   -1    0    0    0    0 -0.00000000000E+00 -0.00000000000E+00 -0.45593999997E+02  0.45594000000E+02  0.51100000000E-03 0. -1.
    9900012    2    1    2    0    0  0.28314882725E+02 -0.32408325072E+01 -0.14299564081E+02  0.59302060905E+02  0.50000213155E+02 0.  0.
        -12    1    1    2    0    0 -0.28314882725E+02  0.32408325072E+01  0.14299564081E+02  0.31885939095E+02  0.00000000000E+00 0.  1.
         11    1    3    3    0    0 -0.25290926499E+01  0.24636290829E+00 -0.99492410099E+01  0.10268612431E+02  0.51100000000E-03 0. -1.
        -11    1    3    3    0    0 -0.61168483672E+01 -0.38565294378E+01 -0.92570109525E+01  0.11746527371E+02  0.51100000000E-03 0.  1.
        -12    1    3    3    0    0  0.36960823742E+02  0.36933402234E+00  0.49066878816E+01  0.37286921103E+02  0.00000000000E+00 0.  1.
</event>
<event>
 7    1  0.3802554E-013  0.5930191E+02  0.7816164E-02  0.1266605E+00
        -11   -1    0    0    0    0  0.00000000000E+00  0.00000000000E+00  0.45593999997E+02  0.45594000000E+02  0.51100000000E-03 0. -1.
         11   -1    0    0    0    0 -0.00000000000E+00 -0.00000000000E+00 -0.45593999997E+02  0.45594000000E+02  0.51100000000E-03 0.  1.
    9900012    2    1    2    0    0  0.26424760711E+02 -0.80103217110E+01 -0.15946452817E+02  0.59301912282E+02  0.49999942103E+02 0.  0.
        -12    1    1    2    0    0 -0.26424760711E+02  0.80103217110E+01  0.15946452817E+02  0.31886087718E+02  0.00000000000E+00 0.  1.
         11    1    3    3    0    0  0.26281351967E+02 -0.29320911373E+01  0.48656084471E+01  0.26888301647E+02  0.51100000000E-03 0. -1.
        -11    1    3    3    0    0  0.45791659280E+01 -0.12865517311E+02 -0.18786600471E+02  0.23225560355E+02  0.51100000000E-03 0.  1.
         12    1    3    3    0    0 -0.44357571839E+01  0.77872867373E+01 -0.20254607928E+01  0.91880502799E+01  0.00000000000E+00 0. -1.
</event>
<event>
 7    1  0.3802554E-013  0.5930193E+02  0.7816164E-02  0.1266605E+00
        -11   -1    0    0    0    0  0.00000000000E+00  0.00000000000E+00  0.45593999997E+02  0.45594000000E+02  0.51100000000E-03 0.  1.
         11   -1    0    0    0    0 -0.00000000000E+00 -0.00000000000E+00 -0.45593999997E+02  0.45594000000E+02  0.51100000000E-03 0. -1.
    9900012    2    1    2    0    0 -0.30345024799E+02  0.93227440723E+01 -0.29979223388E+01  0.59301927406E+02  0.49999969686E+02 0.  0.
        -12    1    1    2    0    0  0.30345024799E+02 -0.93227440723E+01  0.29979223388E+01  0.31886072594E+02  0.00000000000E+00 0.  1.
         11    1    3    3    0    0  0.89965246840E+01  0.11171774911E+02 -0.49741555139E+00  0.14352471339E+02  0.51100000000E-03 0.  1.
        -11    1    3    3    0    0  0.13734896311E+01 -0.59941885654E+00  0.34702283478E+01  0.37799817168E+01  0.51100000000E-03 0. -1.
         12    1    3    3    0    0 -0.40715039114E+02 -0.12496119825E+01 -0.59707351352E+01  0.41169474350E+02  0.00000000000E+00 0. -1.
</event>
<event>
 7    1  0.3802554E-013  0.5930193E+02  0.7816164E-02  0.1266605E+00
        -11   -1    0    0    0    0  0.00000000000E+00  0.00000000000E+00  0.45593999997E+02  0.45594000000E+02  0.51100000000E-03 0. -1.
         11   -1    0    0    0    0 -0.00000000000E+00 -0.00000000000E+00 -0.45593999997E+02  0.45594000000E+02  0.51100000000E-03 0.  1.
    9900012    2    1    2    0    0 -0.10601947357E+02 -0.28738888826E+02 -0.88541891423E+01  0.59301926487E+02  0.49999968009E+02 0.  0.
        -12    1    1    2    0    0  0.10601947357E+02  0.28738888826E+02  0.88541891423E+01  0.31886073513E+02  0.00000000000E+00 0.  1.
         11    1    3    3    0    0  0.77825150155E+01 -0.79903330902E+00 -0.14826206773E+02  0.16763722788E+02  0.51100000000E-03 0. -1.
        -11    1    3    3    0    0  0.59378973968E+01 -0.38839586513E+01 -0.20806080929E+01  0.73940983627E+01  0.51100000000E-03 0.  1.
         12    1    3    3    0    0 -0.24322359769E+02 -0.24055896866E+02  0.80526257234E+01  0.35144105335E+02  0.00000000000E+00 0. -1.
</event>
<event>
 7    1  0.3802554E-013  0.5930195E+02  0.7816164E-02  0.1266605E+00
        -11   -1    0    0    0    0  0.00000000000E+00  0.00000000000E+00  0.45593999997E+02  0.45594000000E+02  0.51100000000E-03 0.  1.
         11   -1    0    0    0    0 -0.00000000000E+00 -0.00000000000E+00 -0.45593999997E+02  0.45594000000E+02  0.51100000000E-03 0. -1.
    9900012    2    1    2    0    0  0.26158191033E+01 -0.18425354286E+02 -0.25891771719E+02  0.59301952379E+02  0.50000015230E+02 0.  0.
        -12    1    1    2    0    0 -0.26158191033E+01  0.18425354286E+02  0.25891771719E+02  0.31886047621E+02  0.00000000000E+00 0.  1.
         11    1    3    3    0    0 -0.26972224030E+01 -0.83615976120E+01 -0.16924770665E+02  0.19069325778E+02  0.51100000000E-03 0. -1.
        -11    1    3    3    0    0 -0.50601966876E+01 -0.19732066816E+02 -0.14507328380E+02  0.25008451138E+02  0.51100000000E-03 0.  1.
        -12    1    3    3    0    0  0.10373238194E+02  0.96683101419E+01  0.55403273257E+01  0.15224175462E+02  0.00000000000E+00 0.  1.
</event>
<event>
 7    1  0.3802554E-013  0.5930193E+02  0.7816164E-02  0.1266605E+00
        -11   -1    0    0    0    0  0.00000000000E+00  0.00000000000E+00  0.45593999997E+02  0.45594000000E+02  0.51100000000E-03 0.  1.
         11   -1    0    0    0    0 -0.00000000000E+00 -0.00000000000E+00 -0.45593999997E+02  0.45594000000E+02  0.51100000000E-03 0. -1.
    9900012    2    1    2    0    0  0.19307488138E+02  0.18001405902E+02 -0.17885517198E+02  0.59301930344E+02  0.49999975044E+02 0.  0.
        -12    1    1    2    0    0 -0.19307488138E+02 -0.18001405902E+02  0.17885517198E+02  0.31886069656E+02  0.00000000000E+00 0.  1.
         11    1    3    3    0    0 -0.50170247267E+01  0.10777173090E+02 -0.12794975316E+02  0.17465090625E+02  0.51100000000E-03 0. -1.
        -11    1    3    3    0    0  0.12783613140E+02  0.15845551650E+02  0.84717656411E+01  0.22051600517E+02  0.51100000000E-03 0.  1.
        -12    1    3    3    0    0  0.11540899725E+02 -0.86213188381E+01 -0.13562307523E+02  0.19785239203E+02  0.00000000000E+00 0.  1.
</event>
<event>
 7    1  0.3802554E-013  0.5930195E+02  0.7816164E-02  0.1266605E+00
        -11   -1    0    0    0    0  0.00000000000E+00  0.00000000000E+00  0.45593999997E+02  0.45594000000E+02  0.51100000000E-03 0.  1.
         11   -1    0    0    0    0 -0.00000000000E+00 -0.00000000000E+00 -0.45593999997E+02  0.45594000000E+02  0.51100000000E-03 0. -1.
    9900012    2    1    2    0    0  0.22482385099E+02 -0.22254733114E+02 -0.39986680760E+01  0.59301950824E+02  0.50000012394E+02 0.  0.
        -12    1    1    2    0    0 -0.22482385099E+02  0.22254733114E+02  0.39986680760E+01  0.31886049176E+02  0.00000000000E+00 0.  1.
         11    1    3    3    0    0  0.12185132461E+02 -0.46633638611E+01 -0.71357428591E+01  0.14870885717E+02  0.51100000000E-03 0. -1.
        -11    1    3    3    0    0 -0.63261772657E+01  0.27945614686E+01 -0.12169415975E+02  0.13997313244E+02  0.51100000000E-03 0.  1.
         12    1    3    3    0    0  0.16623429903E+02 -0.20385930721E+02  0.15306490758E+02  0.30433751863E+02  0.00000000000E+00 0. -1.
</event>
<event>
 7    1  0.3802554E-013  0.5930194E+02  0.7816164E-02  0.1266605E+00
        -11   -1    0    0    0    0  0.00000000000E+00  0.00000000000E+00  0.45593999997E+02  0.45594000000E+02  0.51100000000E-03 0. -1.
         11   -1    0    0    0    0 -0.00000000000E+00 -0.00000000000E+00 -0.45593999997E+02  0.45594000000E+02  0.51100000000E-03 0.  1.
    9900012    2    1    2    0    0  0.52181386787E+01  0.10708813414E+02  0.29577236026E+02  0.59301944318E+02  0.50000000529E+02 0.  0.
        -12    1    1    2    0    0 -0.52181386787E+01 -0.10708813414E+02 -0.29577236026E+02  0.31886055682E+02  0.00000000000E+00 0.  1.
         11    1    3    3    0    0  0.62608271453E+01 -0.67265234297E+01  0.28734198957E+02  0.30167834923E+02  0.51100000000E-03 0. -1.
        -11    1    3    3    0    0  0.75482450910E+01 -0.16024340202E+00 -0.45617290487E+01  0.88210574239E+01  0.51100000000E-03 0.  1.
         12    1    3    3    0    0 -0.85909335576E+01  0.17595580246E+02  0.54047661185E+01  0.20313051971E+02  0.00000000000E+00 0. -1.
</event>
<event>
 7    1  0.3802554E-013  0.5930196E+02  0.7816164E-02  0.1266605E+00
        -11   -1    0    0    0    0  0.00000000000E+00  0.00000000000E+00  0.45593999997E+02  0.45594000000E+02  0.51100000000E-03 0.  1.
         11   -1    0    0    0    0 -0.00000000000E+00 -0.00000000000E+00 -0.45593999997E+02  0.45594000000E+02  0.51100000000E-03 0. -1.
    9900012    2    1    2    0    0  0.79004263289E+01  0.30577447861E+02 -0.43957675322E+01  0.59301955623E+02  0.50000021146E+02 0.  0.
        -12    1    1    2    0    0 -0.79004263289E+01 -0.30577447861E+02  0.43957675322E+01  0.31886044377E+02  0.00000000000E+00 0.  1.
         11    1    3    3    0    0 -0.56862269768E+01  0.18163871360E+02 -0.26964073605E+01  0.19223163448E+02  0.51100000000E-03 0. -1.
        -11    1    3    3    0    0 -0.26910725334E+01  0.20985739294E+02  0.22048918917E+01  0.21272157239E+02  0.51100000000E-03 0.  1.
        -12    1    3    3    0    0  0.16277725839E+02 -0.85721627931E+01 -0.39042520634E+01  0.18806634936E+02  0.00000000000E+00 0.  1.
</event>
<event>
 7    1  0.3802554E-013  0.5930195E+02  0.7816164E-02  0.1266605E+00
        -11   -1    0    0    0    0  0.00000000000E+00  0.00000000000E+00  0.45593999997E+02  0.45594000000E+02  0.51100000000E-03 0.  1.
         11   -1    0    0    0    0 -0.00000000000E+00 -0.00000000000E+00 -0.45593999997E+02  0.45594000000E+02  0.51100000000E-03 0. -1.
    9900012    2    1    2    0    0  0.31148437493E+02 -0.96428549941E+00 -0.67501794985E+01  0.59301954023E+02  0.50000018228E+02 0.  0.
        -12    1    1    2    0    0 -0.31148437493E+02  0.96428549941E+00  0.67501794985E+01  0.31886045977E+02  0.00000000000E+00 0.  1.
         11    1    3    3    0    0  0.15732283577E+02  0.12576094991E+02 -0.20669797985E+02  0.28860066888E+02  0.51100000000E-03 0. -1.
        -11    1    3    3    0    0  0.16706396037E+02 -0.41460693260E+01  0.64922328629E+01  0.18396810789E+02  0.51100000000E-03 0.  1.
        -12    1    3    3    0    0 -0.12902421208E+01 -0.93943111641E+01  0.74273856235E+01  0.12045076346E+02  0.00000000000E+00 0.  1.
</event>
<event>
 7    1  0.3802554E-013  0.5930198E+02  0.7816164E-02  0.1266605E+00
        -11   -1    0    0    0    0  0.00000000000E+00  0.00000000000E+00  0.45593999997E+02  0.45594000000E+02  0.51100000000E-03 0.  1.
         11   -1    0    0    0    0 -0.00000000000E+00 -0.00000000000E+00 -0.45593999997E+02  0.45594000000E+02  0.51100000000E-03 0. -1.
    9900012    2    1    2    0    0 -0.25318014743E+02 -0.17917125699E+01 -0.19300423389E+02  0.59301977240E+02  0.50000060571E+02 0.  0.
        -12    1    1    2    0    0  0.25318014743E+02  0.17917125699E+01  0.19300423389E+02  0.31886022760E+02  0.00000000000E+00 0.  1.
         11    1    3    3    0    0  0.34885761920E+01  0.80296125068E+01 -0.26042118806E+01  0.91338250824E+01  0.51100000000E-03 0. -1.
        -11    1    3    3    0    0 -0.13483352338E+02 -0.57872934275E+01 -0.27375620513E+02  0.31059912335E+02  0.51100000000E-03 0.  1.
         12    1    3    3    0    0 -0.15323238597E+02 -0.40340316492E+01  0.10679409004E+02  0.19108239823E+02  0.00000000000E+00 0. -1.
</event>
<event>
 7    1  0.3802554E-013  0.5930174E+02  0.7816164E-02  0.1266605E+00
        -11   -1    0    0    0    0  0.00000000000E+00  0.00000000000E+00  0.45593999997E+02  0.45594000000E+02  0.51100000000E-03 0. -1.
         11   -1    0    0    0    0 -0.00000000000E+00 -0.00000000000E+00 -0.45593999997E+02  0.45594000000E+02  0.51100000000E-03 0.  1.
    9900012    2    1    2    0    0  0.18647253345E+02  0.19440759893E+02  0.17060775674E+02  0.59301744825E+02  0.49999636700E+02 0.  0.
        -12    1    1    2    0    0 -0.18647253345E+02 -0.19440759893E+02 -0.17060775674E+02  0.31886255175E+02  0.00000000000E+00 0.  1.
         11    1    3    3    0    0 -0.75529089977E+01 -0.20967325826E+01  0.53348066432E+01  0.94817131380E+01  0.51100000000E-03 0.  1.
        -11    1    3    3    0    0  0.22166365658E+02  0.27068620337E+02 -0.14017000303E+01  0.35014607475E+02  0.51100000000E-03 0. -1.
         12    1    3    3    0    0  0.40337966852E+01 -0.55311278612E+01  0.13127669061E+02  0.14805424212E+02  0.00000000000E+00 0. -1.
</event>
<event>
 7    1  0.3802554E-013  0.5930180E+02  0.7816164E-02  0.1266605E+00
        -11   -1    0    0    0    0  0.00000000000E+00  0.00000000000E+00  0.45593999997E+02  0.45594000000E+02  0.51100000000E-03 0.  1.
         11   -1    0    0    0    0 -0.00000000000E+00 -0.00000000000E+00 -0.45593999997E+02  0.45594000000E+02  0.51100000000E-03 0. -1.
    9900012    2    1    2    0    0  0.24052707503E+02  0.12133850319E+02 -0.17057744583E+02  0.59301800601E+02  0.49999738424E+02 0.  0.
        -12    1    1    2    0    0 -0.24052707503E+02 -0.12133850319E+02  0.17057744583E+02  0.31886199399E+02  0.00000000000E+00 0.  1.
         11    1    3    3    0    0  0.29468605932E+01 -0.78421186637E+01  0.38839158644E+01  0.92340465233E+01  0.51100000000E-03 0. -1.
        -11    1    3    3    0    0  0.58359375694E+01 -0.10067878825E+02 -0.36956414520E+01  0.12209755008E+02  0.51100000000E-03 0.  1.
         12    1    3    3    0    0  0.15269909341E+02  0.30043847808E+02 -0.17246018996E+02  0.37857999070E+02  0.00000000000E+00 0. -1.
</event>
<event>
 7    1  0.3802554E-013  0.5930199E+02  0.7816164E-02  0.1266605E+00
        -11   -1    0    0    0    0  0.00000000000E+00  0.00000000000E+00  0.45593999997E+02  0.45594000000E+02  0.51100000000E-03 0.  1.
         11   -1    0    0    0    0 -0.00000000000E+00 -0.00000000000E+00 -0.45593999997E+02  0.45594000000E+02  0.51100000000E-03 0. -1.
    9900012    2    1    2    0    0  0.31051294434E+02 -0.60995338735E+01 -0.39154068045E+01  0.59301990373E+02  0.50000084523E+02 0.  0.
        -12    1    1    2    0    0 -0.31051294434E+02  0.60995338735E+01  0.39154068045E+01  0.31886009627E+02  0.00000000000E+00 0.  1.
         11    1    3    3    0    0  0.18804056029E+02 -0.11105283604E+02 -0.20445160751E+02  0.29915287822E+02  0.51100000000E-03 0. -1.
        -11    1    3    3    0    0  0.16141665402E+02 -0.16476171609E+01  0.87514559308E+01  0.18435183358E+02  0.51100000000E-03 0.  1.
        -12    1    3    3    0    0 -0.38944269978E+01  0.66533668913E+01  0.77782980152E+01  0.10951519193E+02  0.00000000000E+00 0.  1.
</event>
<event>
 7    1  0.3802554E-013  0.5930194E+02  0.7816164E-02  0.1266605E+00
        -11   -1    0    0    0    0  0.00000000000E+00  0.00000000000E+00  0.45593999997E+02  0.45594000000E+02  0.51100000000E-03 0. -1.
         11   -1    0    0    0    0 -0.00000000000E+00 -0.00000000000E+00 -0.45593999997E+02  0.45594000000E+02  0.51100000000E-03 0.  1.
    9900012    2    1    2    0    0  0.19422631000E+02 -0.15476769579E+01  0.25240574655E+02  0.59301944931E+02  0.50000001648E+02 0.  0.
        -12    1    1    2    0    0 -0.19422631000E+02  0.15476769579E+01 -0.25240574655E+02  0.31886055069E+02  0.00000000000E+00 0.  1.
         11    1    3    3    0    0 -0.27523293669E+01 -0.73094829140E+01  0.62923152866E+01  0.10029810035E+02  0.51100000000E-03 0. -1.
        -11    1    3    3    0    0  0.75139799208E+01 -0.14834355690E+02 -0.15830854990E+01  0.16704016371E+02  0.51100000000E-03 0.  1.
         12    1    3    3    0    0  0.14660980446E+02  0.20596161646E+02  0.20531344867E+02  0.32568118525E+02  0.00000000000E+00 0. -1.
</event>
<event>
 7    1  0.3802554E-013  0.5930194E+02  0.7816164E-02  0.1266605E+00
        -11   -1    0    0    0    0  0.00000000000E+00  0.00000000000E+00  0.45593999997E+02  0.45594000000E+02  0.51100000000E-03 0.  1.
         11   -1    0    0    0    0 -0.00000000000E+00 -0.00000000000E+00 -0.45593999997E+02  0.45594000000E+02  0.51100000000E-03 0. -1.
    9900012    2    1    2    0    0 -0.85553815537E+01  0.80006219420E+01 -0.29656638763E+02  0.59301941483E+02  0.49999995359E+02 0.  0.
        -12    1    1    2    0    0  0.85553815537E+01 -0.80006219420E+01  0.29656638763E+02  0.31886058517E+02  0.00000000000E+00 0.  1.
         11    1    3    3    0    0  0.11122673727E+02  0.12932773868E+02 -0.25249045657E+02  0.30471048843E+02  0.51100000000E-03 0. -1.
        -11    1    3    3    0    0  0.26723870945E+01  0.36609394727E+01 -0.37226314401E+00  0.45478248334E+01  0.51100000000E-03 0.  1.
        -12    1    3    3    0    0 -0.22350442376E+02 -0.85930913992E+01 -0.40353299628E+01  0.24283067806E+02  0.00000000000E+00 0.  1.
</event>
<event>
 7    1  0.3802554E-013  0.5930195E+02  0.7816164E-02  0.1266605E+00
        -11   -1    0    0    0    0  0.00000000000E+00  0.00000000000E+00  0.45593999997E+02  0.45594000000E+02  0.51100000000E-03 0. -1.
         11   -1    0    0    0    0 -0.00000000000E+00 -0.00000000000E+00 -0.45593999997E+02  0.45594000000E+02  0.51100000000E-03 0.  1.
    9900012    2    1    2    0    0  0.39006140195E+00 -0.29236550495E+02 -0.12719760343E+02  0.59301947627E+02  0.50000006564E+02 0.  0.
        -12    1    1    2    0    0 -0.39006140195E+00  0.29236550495E+02  0.12719760343E+02  0.31886052373E+02  0.00000000000E+00 0.  1.
         11    1    3    3    0    0  0.98914575145E+01 -0.21862400420E+01  0.26341821236E+00  0.10133605809E+02  0.51100000000E-03 0. -1.
        -11    1    3    3    0    0  0.13225588145E+02 -0.51590644143E+01  0.18215793064E+01  0.14312591619E+02  0.51100000000E-03 0.  1.
         12    1    3    3    0    0 -0.22726984257E+02 -0.21891246039E+02 -0.14804757862E+02  0.34855750199E+02  0.00000000000E+00 0. -1.
</event>
<event>
 7    1  0.3802554E-013  0.5930195E+02  0.7816164E-02  0.1266605E+00
        -11   -1    0    0    0    0  0.00000000000E+00  0.00000000000E+00  0.45593999997E+02  0.45594000000E+02  0.51100000000E-03 0.  1.
         11   -1    0    0    0    0 -0.00000000000E+00 -0.00000000000E+00 -0.45593999997E+02  0.45594000000E+02  0.51100000000E-03 0. -1.
    9900012    2    1    2    0    0  0.29938697337E+02  0.63713319869E+01 -0.89331348098E+01  0.59301947139E+02  0.50000005675E+02 0.  0.
        -12    1    1    2    0    0 -0.29938697337E+02 -0.63713319869E+01  0.89331348098E+01  0.31886052861E+02  0.00000000000E+00 0.  1.
         11    1    3    3    0    0  0.86635310508E+01 -0.45378081121E+01 -0.13807580333E+02  0.16920335329E+02  0.51100000000E-03 0. -1.
        -11    1    3    3    0    0  0.25746231438E+02 -0.43788629066E+01  0.19657733673E+01  0.26189828919E+02  0.51100000000E-03 0.  1.
         12    1    3    3    0    0 -0.44710651522E+01  0.15288003006E+02  0.29086721559E+01  0.16191782892E+02  0.00000000000E+00 0. -1.
</event>
<event>
 7    1  0.3802554E-013  0.5930195E+02  0.7816164E-02  0.1266605E+00
        -11   -1    0    0    0    0  0.00000000000E+00  0.00000000000E+00  0.45593999997E+02  0.45594000000E+02  0.51100000000E-03 0. -1.
         11   -1    0    0    0    0 -0.00000000000E+00 -0.00000000000E+00 -0.45593999997E+02  0.45594000000E+02  0.51100000000E-03 0.  1.
    9900012    2    1    2    0    0  0.11821204032E+02 -0.29540618747E+02 -0.20811996214E+01  0.59301946425E+02  0.50000004373E+02 0.  0.
        -12    1    1    2    0    0 -0.11821204032E+02  0.29540618747E+02  0.20811996214E+01  0.31886053575E+02  0.00000000000E+00 0.  1.
         11    1    3    3    0    0  0.22106293547E+02 -0.14546837373E+02 -0.81189321055E+00  0.26475608828E+02  0.51100000000E-03 0. -1.
        -11    1    3    3    0    0 -0.73814570883E+00 -0.21330252038E+02 -0.89972973206E+00  0.21361976148E+02  0.51100000000E-03 0.  1.
        -12    1    3    3    0    0 -0.95469438063E+01  0.63364706647E+01 -0.36957667874E+00  0.11464361450E+02  0.00000000000E+00 0.  1.
</event>
<event>
 7    1  0.3802554E-013  0.5930195E+02  0.7816164E-02  0.1266605E+00
        -11   -1    0    0    0    0  0.00000000000E+00  0.00000000000E+00  0.45593999997E+02  0.45594000000E+02  0.51100000000E-03 0.  1.
         11   -1    0    0    0    0 -0.00000000000E+00 -0.00000000000E+00 -0.45593999997E+02  0.45594000000E+02  0.51100000000E-03 0. -1.
    9900012    2    1    2    0    0 -0.10264205378E+02 -0.22536466198E+02 -0.20086658924E+02  0.59301951523E+02  0.50000013670E+02 0.  0.
        -12    1    1    2    0    0  0.10264205378E+02  0.22536466198E+02  0.20086658924E+02  0.31886048477E+02  0.00000000000E+00 0.  1.
         11    1    3    3    0    0 -0.41359786725E+01  0.39567477204E+01  0.11275749565E+01  0.58338321578E+01  0.51100000000E-03 0. -1.
        -11    1    3    3    0    0 -0.13709531499E+02  0.65380859322E+01 -0.66862982133E+01  0.16595312761E+02  0.51100000000E-03 0.  1.
        -12    1    3    3    0    0  0.75813047935E+01 -0.33031299850E+02 -0.14527935668E+02  0.36872806605E+02  0.00000000000E+00 0.  1.
</event>
<event>
 7    1  0.3802554E-013  0.5930194E+02  0.7816164E-02  0.1266605E+00
        -11   -1    0    0    0    0  0.00000000000E+00  0.00000000000E+00  0.45593999997E+02  0.45594000000E+02  0.51100000000E-03 0.  1.
         11   -1    0    0    0    0 -0.00000000000E+00 -0.00000000000E+00 -0.45593999997E+02  0.45594000000E+02  0.51100000000E-03 0. -1.
    9900012    2    1    2    0    0 -0.61215737003E+01  0.31228568821E+02  0.20059554247E+01  0.59301936707E+02  0.49999986649E+02 0.  0.
        -12    1    1    2    0    0  0.61215737003E+01 -0.31228568821E+02 -0.20059554247E+01  0.31886063293E+02  0.00000000000E+00 0.  1.
         11    1    3    3    0    0  0.46445659361E+01 -0.42501186496E+01 -0.77991332586E+01  0.10023072439E+02  0.51100000000E-03 0. -1.
        -11    1    3    3    0    0  0.43549763413E+01  0.31737019404E+02  0.10428755231E+02  0.33689214231E+02  0.51100000000E-03 0.  1.
         12    1    3    3    0    0 -0.15121115978E+02  0.37416680666E+01 -0.62366654742E+00  0.15589650038E+02  0.00000000000E+00 0. -1.
</event>
<event>
 7    1  0.3802554E-013  0.5930193E+02  0.7816164E-02  0.1266605E+00
        -11   -1    0    0    0    0  0.00000000000E+00  0.00000000000E+00  0.45593999997E+02  0.45594000000E+02  0.51100000000E-03 0. -1.
         11   -1    0    0    0    0 -0.00000000000E+00 -0.00000000000E+00 -0.45593999997E+02  0.45594000000E+02  0.51100000000E-03 0.  1.
    9900012    2    1    2    0    0  0.15386353863E+02  0.27604094230E+02 -0.42421529002E+01  0.59301925223E+02  0.49999965705E+02 0.  0.
        -12    1    1    2    0    0 -0.15386353863E+02 -0.27604094230E+02  0.42421529002E+01  0.31886074777E+02  0.00000000000E+00 0.  1.
         11    1    3    3    0    0 -0.82867429621E+01 -0.38376227932E+01  0.34711929358E+00  0.91388155517E+01  0.51100000000E-03 0. -1.
        -11    1    3    3    0    0 -0.59279289357E+01  0.88223931490E+01 -0.71679008278E+01  0.12820053232E+02  0.51100000000E-03 0.  1.
         12    1    3    3    0    0  0.29601025761E+02  0.22619323874E+02  0.25786286341E+01  0.37343056439E+02  0.00000000000E+00 0. -1.
</event>
<event>
 7    1  0.3802554E-013  0.5930186E+02  0.7816164E-02  0.1266605E+00
        -11   -1    0    0    0    0  0.00000000000E+00  0.00000000000E+00  0.45593999997E+02  0.45594000000E+02  0.51100000000E-03 0. -1.
         11   -1    0    0    0    0 -0.00000000000E+00 -0.00000000000E+00 -0.45593999997E+02  0.45594000000E+02  0.51100000000E-03 0.  1.
    9900012    2    1    2    0    0  0.10079966558E+02 -0.28125333113E+02 -0.11139393467E+02  0.59301856060E+02  0.49999839568E+02 0.  0.
        -12    1    1    2    0    0 -0.10079966558E+02  0.28125333113E+02  0.11139393467E+02  0.31886143940E+02  0.00000000000E+00 0.  1.
         11    1    3    3    0    0 -0.31336531952E+01 -0.25085033643E+02 -0.33064424464E+01  0.25495318337E+02  0.51100000000E-03 0. -1.
        -11    1    3    3    0    0 -0.87602467767E+01  0.29226712992E+01  0.11980508034E+01  0.93123174935E+01  0.51100000000E-03 0.  1.
         12    1    3    3    0    0  0.21973866530E+02 -0.59629707698E+01 -0.90310018241E+01  0.24494220229E+02  0.00000000000E+00 0. -1.
</event>
<event>
 7    1  0.3802554E-013  0.5930195E+02  0.7816164E-02  0.1266605E+00
        -11   -1    0    0    0    0  0.00000000000E+00  0.00000000000E+00  0.45593999997E+02  0.45594000000E+02  0.51100000000E-03 0.  1.
         11   -1    0    0    0    0 -0.00000000000E+00 -0.00000000000E+00 -0.45593999997E+02  0.45594000000E+02  0.51100000000E-03 0. -1.
    9900012    2    1    2    0    0  0.17876139950E+02 -0.93703822338E+01 -0.24685212201E+02  0.59301950635E+02  0.50000012050E+02 0.  0.
        -12    1    1    2    0    0 -0.17876139950E+02  0.93703822338E+01  0.24685212201E+02  0.31886049365E+02  0.00000000000E+00 0.  1.
         11    1    3    3    0    0  0.16493625514E+02 -0.11760359811E+01 -0.16374124227E+02  0.23270897871E+02  0.51100000000E-03 0. -1.
        -11    1    3    3    0    0  0.16462829321E+01  0.10719671709E+02  0.59235153487E+01  0.12357574333E+02  0.51100000000E-03 0.  1.
        -12    1    3    3    0    0 -0.26376849627E+00 -0.18914017962E+02 -0.14234603322E+02  0.23673478431E+02  0.00000000000E+00 0.  1.
</event>
<event>
 7    1  0.3802554E-013  0.5930194E+02  0.7816164E-02  0.1266605E+00
        -11   -1    0    0    0    0  0.00000000000E+00  0.00000000000E+00  0.45593999997E+02  0.45594000000E+02  0.51100000000E-03 0.  1.
         11   -1    0    0    0    0 -0.00000000000E+00 -0.00000000000E+00 -0.45593999997E+02  0.45594000000E+02  0.51100000000E-03 0. -1.
    9900012    2    1    2    0    0 -0.16775624744E+01  0.21246421389E+02 -0.23717007789E+02  0.59301935706E+02  0.49999984823E+02 0.  0.
        -12    1    1    2    0    0  0.16775624744E+01 -0.21246421389E+02  0.23717007789E+02  0.31886064294E+02  0.00000000000E+00 0.  1.
         11    1    3    3    0    0  0.15896764139E+02  0.11705132194E+02 -0.13158364925E+02  0.23724666437E+02  0.51100000000E-03 0. -1.
        -11    1    3    3    0    0 -0.29252201191E+00  0.11741063951E+02  0.44728366245E+01  0.12567594024E+02  0.51100000000E-03 0.  1.
        -12    1    3    3    0    0 -0.17281804601E+02 -0.21997747557E+01 -0.15031479488E+02  0.23009675245E+02  0.00000000000E+00 0.  1.
</event>
<event>
 7    1  0.3802554E-013  0.5930193E+02  0.7816164E-02  0.1266605E+00
        -11   -1    0    0    0    0  0.00000000000E+00  0.00000000000E+00  0.45593999997E+02  0.45594000000E+02  0.51100000000E-03 0.  1.
         11   -1    0    0    0    0 -0.00000000000E+00 -0.00000000000E+00 -0.45593999997E+02  0.45594000000E+02  0.51100000000E-03 0. -1.
    9900012    2    1    2    0    0  0.40544239639E+01 -0.27005720663E+02 -0.16461293336E+02  0.59301929679E+02  0.49999973831E+02 0.  0.
        -12    1    1    2    0    0 -0.40544239639E+01  0.27005720663E+02  0.16461293336E+02  0.31886070321E+02  0.00000000000E+00 0.  1.
         11    1    3    3    0    0  0.49300847131E+01 -0.29559440453E+02 -0.24575405693E+02  0.38755861756E+02  0.51100000000E-03 0. -1.
        -11    1    3    3    0    0  0.15617043275E+01  0.84196385940E+01 -0.18201712832E+01  0.87545564263E+01  0.51100000000E-03 0.  1.
        -12    1    3    3    0    0 -0.24373650767E+01 -0.58659188043E+01  0.99342836403E+01  0.11791511497E+02  0.00000000000E+00 0.  1.
</event>
<event>
 7    1  0.3802554E-013  0.5930196E+02  0.7816164E-02  0.1266605E+00
        -11   -1    0    0    0    0  0.00000000000E+00  0.00000000000E+00  0.45593999997E+02  0.45594000000E+02  0.51100000000E-03 0. -1.
         11   -1    0    0    0    0 -0.00000000000E+00 -0.00000000000E+00 -0.45593999997E+02  0.45594000000E+02  0.51100000000E-03 0.  1.
    9900012    2    1    2    0    0  0.64418910360E+01  0.29006927056E+02 -0.11568047249E+02  0.59301960821E+02  0.50000030627E+02 0.  0.
        -12    1    1    2    0    0 -0.64418910360E+01 -0.29006927056E+02  0.11568047249E+02  0.31886039179E+02  0.00000000000E+00 0.  1.
         11    1    3    3    0    0 -0.12547873575E+01  0.15731582290E+01  0.14100431961E+02  0.14243296664E+02  0.51100000000E-03 0. -1.
        -11    1    3    3    0    0  0.42162048849E+01 -0.30036528159E+01 -0.13661129814E+00  0.51785110580E+01  0.51100000000E-03 0.  1.
         12    1    3    3    0    0  0.34804735086E+01  0.30437421643E+02 -0.25531867911E+02  0.39880153099E+02  0.00000000000E+00 0. -1.
</event>
<event>
 7    1  0.3802554E-013  0.5930194E+02  0.7816164E-02  0.1266605E+00
        -11   -1    0    0    0    0  0.00000000000E+00  0.00000000000E+00  0.45593999997E+02  0.45594000000E+02  0.51100000000E-03 0.  1.
         11   -1    0    0    0    0 -0.00000000000E+00 -0.00000000000E+00 -0.45593999997E+02  0.45594000000E+02  0.51100000000E-03 0. -1.
    9900012    2    1    2    0    0 -0.12344143924E+02  0.23430955001E+02 -0.17757624339E+02  0.59301940920E+02  0.49999994333E+02 0.  0.
        -12    1    1    2    0    0  0.12344143924E+02 -0.23430955001E+02  0.17757624339E+02  0.31886059080E+02  0.00000000000E+00 0.  1.
         11    1    3    3    0    0  0.30590012804E+01  0.17026403927E+01 -0.58801481234E+01  0.68434359319E+01  0.51100000000E-03 0. -1.
        -11    1    3    3    0    0 -0.11485248320E+02  0.35174629747E+02 -0.99847274908E+01  0.38325713172E+02  0.51100000000E-03 0.  1.
         12    1    3    3    0    0 -0.39178968840E+01 -0.13446315139E+02 -0.18927487247E+01  0.14132791817E+02  0.00000000000E+00 0. -1.
</event>
<event>
 7    1  0.3802554E-013  0.5930192E+02  0.7816164E-02  0.1266605E+00
        -11   -1    0    0    0    0  0.00000000000E+00  0.00000000000E+00  0.45593999997E+02  0.45594000000E+02  0.51100000000E-03 0. -1.
         11   -1    0    0    0    0 -0.00000000000E+00 -0.00000000000E+00 -0.45593999997E+02  0.45594000000E+02  0.51100000000E-03 0.  1.
    9900012    2    1    2    0    0 -0.18718598836E+00 -0.24492138272E+02  0.20416227740E+02  0.59301917913E+02  0.49999952373E+02 0.  0.
        -12    1    1    2    0    0  0.18718598836E+00  0.24492138272E+02 -0.20416227740E+02  0.31886082087E+02  0.00000000000E+00 0.  1.
         11    1    3    3    0    0 -0.11671385566E+01 -0.22435171972E+02  0.33710859992E+02  0.40510754565E+02  0.51100000000E-03 0. -1.
        -11    1    3    3    0    0  0.69368816682E+01 -0.17376553422E+01 -0.86969736139E+01  0.11259534789E+02  0.51100000000E-03 0.  1.
        -12    1    3    3    0    0 -0.59569291000E+01 -0.31931095791E+00 -0.45976586381E+01  0.75316285585E+01  0.00000000000E+00 0.  1.
</event>
<event>
 7    1  0.3802554E-013  0.5930213E+02  0.7816164E-02  0.1266604E+00
        -11   -1    0    0    0    0  0.00000000000E+00  0.00000000000E+00  0.45593999997E+02  0.45594000000E+02  0.51100000000E-03 0. -1.
         11   -1    0    0    0    0 -0.00000000000E+00 -0.00000000000E+00 -0.45593999997E+02  0.45594000000E+02  0.51100000000E-03 0.  1.
    9900012    2    1    2    0    0  0.13475688658E+02 -0.28881723120E+02 -0.98016075087E+00  0.59302128046E+02  0.50000335604E+02 0.  0.
        -12    1    1    2    0    0 -0.13475688658E+02  0.28881723120E+02  0.98016075087E+00  0.31885871954E+02  0.00000000000E+00 0.  1.
         11    1    3    3    0    0  0.16549497675E+02 -0.14402893327E+02 -0.12260797123E+01  0.21973449460E+02  0.51100000000E-03 0. -1.
        -11    1    3    3    0    0 -0.10527491556E+02 -0.11237792941E+02 -0.14075042195E+02  0.20861996110E+02  0.51100000000E-03 0.  1.
         12    1    3    3    0    0  0.74536825398E+01 -0.32410368522E+01  0.14320961157E+02  0.16466682475E+02  0.00000000000E+00 0. -1.
</event>
<event>
 7    1  0.3802554E-013  0.5930195E+02  0.7816164E-02  0.1266605E+00
        -11   -1    0    0    0    0  0.00000000000E+00  0.00000000000E+00  0.45593999997E+02  0.45594000000E+02  0.51100000000E-03 0.  1.
         11   -1    0    0    0    0 -0.00000000000E+00 -0.00000000000E+00 -0.45593999997E+02  0.45594000000E+02  0.51100000000E-03 0. -1.
    9900012    2    1    2    0    0 -0.37376892449E+01  0.30936700087E+02  0.67579855575E+01  0.59301951295E+02  0.50000013255E+02 0.  0.
        -12    1    1    2    0    0  0.37376892449E+01 -0.30936700087E+02 -0.67579855575E+01  0.31886048705E+02  0.00000000000E+00 0.  1.
         11    1    3    3    0    0  0.70749324443E+01  0.18619791625E+02 -0.10451749572E+02  0.22494229896E+02  0.51100000000E-03 0. -1.
        -11    1    3    3    0    0 -0.27919524816E+01  0.66301121618E+01 -0.73915279764E+01  0.10314459367E+02  0.51100000000E-03 0.  1.
        -12    1    3    3    0    0 -0.80206692076E+01  0.56867963005E+01  0.24601263106E+02  0.26493262032E+02  0.00000000000E+00 0.  1.
</event>
<event>
 7    1  0.3802554E-013  0.5930194E+02  0.7816164E-02  0.1266605E+00
        -11   -1    0    0    0    0  0.00000000000E+00  0.00000000000E+00  0.45593999997E+02  0.45594000000E+02  0.51100000000E-03 0.  1.
         11   -1    0    0    0    0 -0.00000000000E+00 -0.00000000000E+00 -0.45593999997E+02  0.45594000000E+02  0.51100000000E-03 0. -1.
    9900012    2    1    2    0    0  0.58480631677E+01 -0.31013657230E+02 -0.45469070029E+01  0.59301935005E+02  0.49999983544E+02 0.  0.
        -12    1    1    2    0    0 -0.58480631677E+01  0.31013657230E+02  0.45469070029E+01  0.31886064995E+02  0.00000000000E+00 0.  1.
         11    1    3    3    0    0  0.50271634620E+01 -0.40205461381E+01  0.15034197072E+02  0.16354334153E+02  0.51100000000E-03 0.  1.
        -11    1    3    3    0    0  0.11831298688E+02 -0.15929819730E+02 -0.18776439405E+02  0.27318372248E+02  0.51100000000E-03 0. -1.
         12    1    3    3    0    0 -0.11010398983E+02 -0.11063291362E+02 -0.80466466971E+00  0.15629228604E+02  0.00000000000E+00 0. -1.
</event>
<event>
 7    1  0.3802554E-013  0.5930193E+02  0.7816164E-02  0.1266605E+00
        -11   -1    0    0    0    0  0.00000000000E+00  0.00000000000E+00  0.45593999997E+02  0.45594000000E+02  0.51100000000E-03 0.  1.
         11   -1    0    0    0    0 -0.00000000000E+00 -0.00000000000E+00 -0.45593999997E+02  0.45594000000E+02  0.51100000000E-03 0. -1.
    9900012    2    1    2    0    0 -0.16320712801E+02 -0.26731259827E+02  0.59829125889E+01  0.59301934684E+02  0.49999982960E+02 0.  0.
        -12    1    1    2    0    0  0.16320712801E+02  0.26731259827E+02 -0.59829125889E+01  0.31886065316E+02  0.00000000000E+00 0.  1.
         11    1    3    3    0    0 -0.42831541653E+01 -0.19463857838E+02 -0.72196429112E+01  0.21196943543E+02  0.51100000000E-03 0. -1.
        -11    1    3    3    0    0  0.44163309033E+01 -0.16161168993E+02  0.86509361190E+01  0.18855398640E+02  0.51100000000E-03 0.  1.
         12    1    3    3    0    0 -0.16453889539E+02  0.88937670039E+01  0.45516193811E+01  0.19249592501E+02  0.00000000000E+00 0. -1.
</event>
<event>
 7    1  0.3802554E-013  0.5930195E+02  0.7816164E-02  0.1266605E+00
        -11   -1    0    0    0    0  0.00000000000E+00  0.00000000000E+00  0.45593999997E+02  0.45594000000E+02  0.51100000000E-03 0.  1.
         11   -1    0    0    0    0 -0.00000000000E+00 -0.00000000000E+00 -0.45593999997E+02  0.45594000000E+02  0.51100000000E-03 0. -1.
    9900012    2    1    2    0    0 -0.26202518287E+02 -0.18025155159E+02 -0.22895392907E+01  0.59301950178E+02  0.50000011217E+02 0.  0.
        -12    1    1    2    0    0  0.26202518287E+02  0.18025155159E+02  0.22895392907E+01  0.31886049822E+02  0.00000000000E+00 0.  1.
         11    1    3    3    0    0 -0.14589781543E+02 -0.25223402933E+02  0.13915820446E+02  0.32291358595E+02  0.51100000000E-03 0. -1.
        -11    1    3    3    0    0 -0.90082471596E+00  0.97036675023E+01 -0.38788880830E+01  0.10488966641E+02  0.51100000000E-03 0.  1.
        -12    1    3    3    0    0 -0.10711912028E+02 -0.25054197288E+01 -0.12326471654E+02  0.16521624943E+02  0.00000000000E+00 0.  1.
</event>
<event>
 7    1  0.3802554E-013  0.5930194E+02  0.7816164E-02  0.1266605E+00
        -11   -1    0    0    0    0  0.00000000000E+00  0.00000000000E+00  0.45593999997E+02  0.45594000000E+02  0.51100000000E-03 0.  1.
         11   -1    0    0    0    0 -0.00000000000E+00 -0.00000000000E+00 -0.45593999997E+02  0.45594000000E+02  0.51100000000E-03 0. -1.
    9900012    2    1    2    0    0  0.12828630565E+02 -0.27340656005E+02  0.10229167476E+02  0.59301935642E+02  0.49999984707E+02 0.  0.
        -12    1    1    2    0    0 -0.12828630565E+02  0.27340656005E+02 -0.10229167476E+02  0.31886064358E+02  0.00000000000E+00 0.  1.
         11    1    3    3    0    0 -0.37015328357E+01 -0.11288457450E+02  0.32162110996E+01  0.12307503038E+02  0.51100000000E-03 0. -1.
        -11    1    3    3    0    0 -0.78757654134E+01  0.36364972621E+01  0.12444863372E+02  0.15169918187E+02  0.51100000000E-03 0.  1.
        -12    1    3    3    0    0  0.24405928814E+02 -0.19688695818E+02 -0.54319069956E+01  0.31824514417E+02  0.00000000000E+00 0.  1.
</event>
<event>
 7    1  0.3802554E-013  0.5930202E+02  0.7816164E-02  0.1266604E+00
        -11   -1    0    0    0    0  0.00000000000E+00  0.00000000000E+00  0.45593999997E+02  0.45594000000E+02  0.51100000000E-03 0. -1.
         11   -1    0    0    0    0 -0.00000000000E+00 -0.00000000000E+00 -0.45593999997E+02  0.45594000000E+02  0.51100000000E-03 0.  1.
    9900012    2    1    2    0    0 -0.31357918274E+02  0.56606838062E+01 -0.11632564714E+01  0.59302022749E+02  0.50000143568E+02 0.  0.
        -12    1    1    2    0    0  0.31357918274E+02 -0.56606838062E+01  0.11632564714E+01  0.31885977251E+02  0.00000000000E+00 0.  1.
         11    1    3    3    0    0 -0.29300237190E+01 -0.17810448892E+01 -0.35774403973E+01  0.49553244040E+01  0.51100000000E-03 0.  1.
        -11    1    3    3    0    0  0.93300097956E+01  0.12506023252E+02 -0.29363776549E+01  0.15876775943E+02  0.51100000000E-03 0. -1.
         12    1    3    3    0    0 -0.37757904351E+02 -0.50642945565E+01  0.53505615808E+01  0.38469922401E+02  0.00000000000E+00 0. -1.
</event>
<event>
 7    1  0.3802554E-013  0.5930193E+02  0.7816164E-02  0.1266605E+00
        -11   -1    0    0    0    0  0.00000000000E+00  0.00000000000E+00  0.45593999997E+02  0.45594000000E+02  0.51100000000E-03 0.  1.
         11   -1    0    0    0    0 -0.00000000000E+00 -0.00000000000E+00 -0.45593999997E+02  0.45594000000E+02  0.51100000000E-03 0. -1.
    9900012    2    1    2    0    0 -0.68125147275E+01  0.26124143356E+02 -0.16965855892E+02  0.59301929544E+02  0.49999973585E+02 0.  0.
        -12    1    1    2    0    0  0.68125147275E+01 -0.26124143356E+02  0.16965855892E+02  0.31886070456E+02  0.00000000000E+00 0.  1.
         11    1    3    3    0    0 -0.45543837517E+01  0.11776044497E+02  0.23644630327E+00  0.12628283433E+02  0.51100000000E-03 0.  1.
        -11    1    3    3    0    0 -0.59788994961E+01  0.10737529850E+02 -0.30240490376E+02  0.32642442385E+02  0.51100000000E-03 0. -1.
         12    1    3    3    0    0  0.37207685203E+01  0.36105690089E+01  0.13038188181E+02  0.14031203726E+02  0.00000000000E+00 0. -1.
</event>
<event>
 7    1  0.3802554E-013  0.5930194E+02  0.7816164E-02  0.1266605E+00
        -11   -1    0    0    0    0  0.00000000000E+00  0.00000000000E+00  0.45593999997E+02  0.45594000000E+02  0.51100000000E-03 0. -1.
         11   -1    0    0    0    0 -0.00000000000E+00 -0.00000000000E+00 -0.45593999997E+02  0.45594000000E+02  0.51100000000E-03 0.  1.
    9900012    2    1    2    0    0 -0.18249580277E+02 -0.62147764961E-01 -0.26147077477E+02  0.59301941868E+02  0.49999996061E+02 0.  0.
        -12    1    1    2    0    0  0.18249580277E+02  0.62147764961E-01  0.26147077477E+02  0.31886058132E+02  0.00000000000E+00 0.  1.
         11    1    3    3    0    0 -0.74782429566E+01 -0.10511619171E+02 -0.16706793279E+02  0.21107704689E+02  0.51100000000E-03 0. -1.
        -11    1    3    3    0    0 -0.25699743176E+00 -0.16606478719E+01  0.11609821832E+02  0.11730803991E+02  0.51100000000E-03 0.  1.
         12    1    3    3    0    0 -0.10514339889E+02  0.12110119278E+02 -0.21050106030E+02  0.26463433188E+02  0.00000000000E+00 0. -1.
</event>
<event>
 7    1  0.3802554E-013  0.5930197E+02  0.7816164E-02  0.1266605E+00
        -11   -1    0    0    0    0  0.00000000000E+00  0.00000000000E+00  0.45593999997E+02  0.45594000000E+02  0.51100000000E-03 0.  1.
         11   -1    0    0    0    0 -0.00000000000E+00 -0.00000000000E+00 -0.45593999997E+02  0.45594000000E+02  0.51100000000E-03 0. -1.
    9900012    2    1    2    0    0  0.46495193263E+01 -0.22625567354E+02 -0.21981460956E+02  0.59301969300E+02  0.50000046091E+02 0.  0.
        -12    1    1    2    0    0 -0.46495193263E+01  0.22625567354E+02  0.21981460956E+02  0.31886030700E+02  0.00000000000E+00 0.  1.
         11    1    3    3    0    0  0.97380228881E+01  0.57429842650E+01 -0.12648203872E+02  0.16964316063E+02  0.51100000000E-03 0. -1.
        -11    1    3    3    0    0  0.82275177828E+01 -0.12706945185E+02  0.64153870816E+01  0.16441280257E+02  0.51100000000E-03 0.  1.
        -12    1    3    3    0    0 -0.13316021345E+02 -0.15661606433E+02 -0.15748644165E+02  0.25896372981E+02  0.00000000000E+00 0.  1.
</event>
<event>
 7    1  0.3802554E-013  0.5930195E+02  0.7816164E-02  0.1266605E+00
        -11   -1    0    0    0    0  0.00000000000E+00  0.00000000000E+00  0.45593999997E+02  0.45594000000E+02  0.51100000000E-03 0.  1.
         11   -1    0    0    0    0 -0.00000000000E+00 -0.00000000000E+00 -0.45593999997E+02  0.45594000000E+02  0.51100000000E-03 0. -1.
    9900012    2    1    2    0    0 -0.14304621849E+02  0.54363000186E+01 -0.27973998475E+02  0.59301950467E+02  0.50000011744E+02 0.  0.
        -12    1    1    2    0    0  0.14304621849E+02 -0.54363000186E+01  0.27973998475E+02  0.31886049533E+02  0.00000000000E+00 0.  1.
         11    1    3    3    0    0  0.34393015090E+01  0.20200764870E+01 -0.87855936687E+01  0.96486351499E+01  0.51100000000E-03 0. -1.
        -11    1    3    3    0    0 -0.55752234552E+01  0.88295550059E+01 -0.30463228763E+02  0.32203298978E+02  0.51100000000E-03 0.  1.
        -12    1    3    3    0    0 -0.12168699903E+02 -0.54133314744E+01  0.11274823957E+02  0.17450016339E+02  0.00000000000E+00 0.  1.
</event>
<event>
 7    1  0.3802554E-013  0.5930195E+02  0.7816164E-02  0.1266605E+00
        -11   -1    0    0    0    0  0.00000000000E+00  0.00000000000E+00  0.45593999997E+02  0.45594000000E+02  0.51100000000E-03 0. -1.
         11   -1    0    0    0    0 -0.00000000000E+00 -0.00000000000E+00 -0.45593999997E+02  0.45594000000E+02  0.51100000000E-03 0.  1.
    9900012    2    1    2    0    0 -0.57068939766E+01 -0.65614978468E+01  0.30677328315E+02  0.59301947165E+02  0.50000005722E+02 0.  0.
        -12    1    1    2    0    0  0.57068939766E+01  0.65614978468E+01 -0.30677328315E+02  0.31886052835E+02  0.00000000000E+00 0.  1.
         11    1    3    3    0    0 -0.84099291184E+01  0.23470780235E+01  0.13332668013E+02  0.15937243163E+02  0.51100000000E-03 0. -1.
        -11    1    3    3    0    0 -0.14966720843E+02  0.40435298451E+01  0.14580776105E+02  0.21282666621E+02  0.51100000000E-03 0.  1.
         12    1    3    3    0    0  0.17669755985E+02 -0.12952105715E+02  0.27638841965E+01  0.22082037381E+02  0.00000000000E+00 0. -1.
</event>
<event>
 7    1  0.3802554E-013  0.5930194E+02  0.7816164E-02  0.1266605E+00
        -11   -1    0    0    0    0  0.00000000000E+00  0.00000000000E+00  0.45593999997E+02  0.45594000000E+02  0.51100000000E-03 0. -1.
         11   -1    0    0    0    0 -0.00000000000E+00 -0.00000000000E+00 -0.45593999997E+02  0.45594000000E+02  0.51100000000E-03 0.  1.
    9900012    2    1    2    0    0  0.21291207282E+02  0.17262371855E+02 -0.16291580192E+02  0.59301943882E+02  0.49999999734E+02 0.  0.
        -12    1    1    2    0    0 -0.21291207282E+02 -0.17262371855E+02  0.16291580192E+02  0.31886056118E+02  0.00000000000E+00 0.  1.
         11    1    3    3    0    0  0.11721708970E+02  0.19603753753E+02  0.38025951960E+01  0.23155244608E+02  0.51100000000E-03 0.  1.
        -11    1    3    3    0    0  0.10571835338E+02 -0.12104103637E+02 -0.28733887606E+01  0.16325727870E+02  0.51100000000E-03 0. -1.
         12    1    3    3    0    0 -0.10023370256E+01  0.97627217392E+01 -0.17220786628E+02  0.19820971403E+02  0.00000000000E+00 0. -1.
</event>
<event>
 7    1  0.3802554E-013  0.5930194E+02  0.7816164E-02  0.1266605E+00
        -11   -1    0    0    0    0  0.00000000000E+00  0.00000000000E+00  0.45593999997E+02  0.45594000000E+02  0.51100000000E-03 0. -1.
         11   -1    0    0    0    0 -0.00000000000E+00 -0.00000000000E+00 -0.45593999997E+02  0.45594000000E+02  0.51100000000E-03 0.  1.
    9900012    2    1    2    0    0  0.27077253085E+02  0.33358372992E+01 -0.16505014875E+02  0.59301937823E+02  0.49999988685E+02 0.  0.
        -12    1    1    2    0    0 -0.27077253085E+02 -0.33358372992E+01  0.16505014875E+02  0.31886062177E+02  0.00000000000E+00 0.  1.
         11    1    3    3    0    0  0.63263180862E+01  0.59765199264E+01  0.96985734626E+01  0.13030864071E+02  0.51100000000E-03 0. -1.
        -11    1    3    3    0    0  0.20695262871E+02  0.10377330846E+02 -0.23473992396E+02  0.32969853200E+02  0.51100000000E-03 0.  1.
         12    1    3    3    0    0  0.55672127737E-01 -0.13018013473E+02 -0.27295959424E+01  0.13301220553E+02  0.00000000000E+00 0. -1.
</event>
<event>
 7    1  0.3802554E-013  0.5930194E+02  0.7816164E-02  0.1266605E+00
        -11   -1    0    0    0    0  0.00000000000E+00  0.00000000000E+00  0.45593999997E+02  0.45594000000E+02  0.51100000000E-03 0. -1.
         11   -1    0    0    0    0 -0.00000000000E+00 -0.00000000000E+00 -0.45593999997E+02  0.45594000000E+02  0.51100000000E-03 0.  1.
    9900012    2    1    2    0    0 -0.94670706121E+01 -0.12309074616E+02  0.27849268915E+02  0.59301944694E+02  0.50000001216E+02 0.  0.
        -12    1    1    2    0    0  0.94670706121E+01  0.12309074616E+02 -0.27849268915E+02  0.31886055306E+02  0.00000000000E+00 0.  1.
         11    1    3    3    0    0  0.37393420032E+01 -0.28038909838E+01  0.23319917358E+02  0.23783671481E+02  0.51100000000E-03 0. -1.
        -11    1    3    3    0    0 -0.11800377038E+02  0.91084392978E+01  0.73826902616E+01  0.16634803289E+02  0.51100000000E-03 0.  1.
        -12    1    3    3    0    0 -0.14060355769E+01 -0.18613622930E+02 -0.28533387053E+01  0.18883469925E+02  0.00000000000E+00 0.  1.
</event>
<event>
 7    1  0.3802554E-013  0.5930201E+02  0.7816164E-02  0.1266605E+00
        -11   -1    0    0    0    0  0.00000000000E+00  0.00000000000E+00  0.45593999997E+02  0.45594000000E+02  0.51100000000E-03 0.  1.
         11   -1    0    0    0    0 -0.00000000000E+00 -0.00000000000E+00 -0.45593999997E+02  0.45594000000E+02  0.51100000000E-03 0. -1.
    9900012    2    1    2    0    0  0.58940832910E+00  0.29916885412E+02 -0.11015857542E+02  0.59302006957E+02  0.50000114767E+02 0.  0.
        -12    1    1    2    0    0 -0.58940832910E+00 -0.29916885412E+02  0.11015857542E+02  0.31885993043E+02  0.00000000000E+00 0.  1.
         11    1    3    3    0    0  0.64169505414E+01  0.20173470405E+02 -0.39168105143E+01  0.21528761397E+02  0.51100000000E-03 0. -1.
        -11    1    3    3    0    0  0.47661608376E+01  0.19556460369E+02  0.27185795769E+01  0.20311624910E+02  0.51100000000E-03 0.  1.
         12    1    3    3    0    0 -0.10593703050E+02 -0.98130453614E+01 -0.98176266047E+01  0.17461620650E+02  0.00000000000E+00 0. -1.
</event>
<event>
 7    1  0.3802554E-013  0.5930196E+02  0.7816164E-02  0.1266605E+00
        -11   -1    0    0    0    0  0.00000000000E+00  0.00000000000E+00  0.45593999997E+02  0.45594000000E+02  0.51100000000E-03 0.  1.
         11   -1    0    0    0    0 -0.00000000000E+00 -0.00000000000E+00 -0.45593999997E+02  0.45594000000E+02  0.51100000000E-03 0. -1.
    9900012    2    1    2    0    0  0.10972011165E+02  0.17048961294E+01 -0.29890266917E+02  0.59301956718E+02  0.50000023144E+02 0.  0.
        -12    1    1    2    0    0 -0.10972011165E+02 -0.17048961294E+01  0.29890266917E+02  0.31886043282E+02  0.00000000000E+00 0.  1.
         11    1    3    3    0    0 -0.52157287572E+01 -0.10369662975E+00 -0.13935379098E+02  0.14879830992E+02  0.51100000000E-03 0. -1.
        -11    1    3    3    0    0  0.16177231357E+02  0.76051990147E+01 -0.26747734677E+02  0.32171154425E+02  0.51100000000E-03 0.  1.
        -12    1    3    3    0    0  0.10508565390E-01 -0.57966062555E+01  0.10792846859E+02  0.12250971301E+02  0.00000000000E+00 0.  1.
</event>
<event>
 7    1  0.3802554E-013  0.5930195E+02  0.7816164E-02  0.1266605E+00
        -11   -1    0    0    0    0  0.00000000000E+00  0.00000000000E+00  0.45593999997E+02  0.45594000000E+02  0.51100000000E-03 0. -1.
         11   -1    0    0    0    0 -0.00000000000E+00 -0.00000000000E+00 -0.45593999997E+02  0.45594000000E+02  0.51100000000E-03 0.  1.
    9900012    2    1    2    0    0 -0.25941278703E+02 -0.38324369841E+01  0.18140636858E+02  0.59301949451E+02  0.50000009891E+02 0.  0.
        -12    1    1    2    0    0  0.25941278703E+02  0.38324369841E+01 -0.18140636858E+02  0.31886050549E+02  0.00000000000E+00 0.  1.
         11    1    3    3    0    0 -0.16896426546E+01  0.13775396285E+02  0.90939319680E+00  0.13908394277E+02  0.51100000000E-03 0. -1.
        -11    1    3    3    0    0 -0.58037010050E+01  0.82681787855E+01  0.56204481754E+01  0.11560067636E+02  0.51100000000E-03 0.  1.
         12    1    3    3    0    0 -0.18447935044E+02 -0.25876012055E+02  0.11610795485E+02  0.33833487539E+02  0.00000000000E+00 0. -1.
</event>
<event>
 7    1  0.3802554E-013  0.5930191E+02  0.7816164E-02  0.1266605E+00
        -11   -1    0    0    0    0  0.00000000000E+00  0.00000000000E+00  0.45593999997E+02  0.45594000000E+02  0.51100000000E-03 0.  1.
         11   -1    0    0    0    0 -0.00000000000E+00 -0.00000000000E+00 -0.45593999997E+02  0.45594000000E+02  0.51100000000E-03 0. -1.
    9900012    2    1    2    0    0  0.15364638882E+02  0.10301813302E+02 -0.25971579889E+02  0.59301914520E+02  0.49999946185E+02 0.  0.
        -12    1    1    2    0    0 -0.15364638882E+02 -0.10301813302E+02  0.25971579889E+02  0.31886085480E+02  0.00000000000E+00 0.  1.
         11    1    3    3    0    0  0.64738712507E+01 -0.44038362485E+01 -0.22349004625E+00  0.78329260648E+01  0.51100000000E-03 0. -1.
        -11    1    3    3    0    0 -0.37317937583E+00 -0.13479492008E+02 -0.23583597645E+01  0.13689332661E+02  0.51100000000E-03 0.  1.
         12    1    3    3    0    0  0.92639470070E+01  0.28185141558E+02 -0.23389730079E+02  0.37779655795E+02  0.00000000000E+00 0. -1.
</event>
<event>
 7    1  0.3802554E-013  0.5930195E+02  0.7816164E-02  0.1266605E+00
        -11   -1    0    0    0    0  0.00000000000E+00  0.00000000000E+00  0.45593999997E+02  0.45594000000E+02  0.51100000000E-03 0.  1.
         11   -1    0    0    0    0 -0.00000000000E+00 -0.00000000000E+00 -0.45593999997E+02  0.45594000000E+02  0.51100000000E-03 0. -1.
    9900012    2    1    2    0    0 -0.80685668662E+01 -0.14895736140E+02 -0.27013618339E+02  0.59301948156E+02  0.50000007530E+02 0.  0.
        -12    1    1    2    0    0  0.80685668662E+01  0.14895736140E+02  0.27013618339E+02  0.31886051844E+02  0.00000000000E+00 0.  1.
         11    1    3    3    0    0 -0.21756626441E+01 -0.15365035378E+02 -0.12335144997E+02  0.19823562305E+02  0.51100000000E-03 0. -1.
        -11    1    3    3    0    0 -0.19761373609E+02 -0.43176313170E+01 -0.24429604187E+01  0.20374540067E+02  0.51100000000E-03 0.  1.
         12    1    3    3    0    0  0.13868469386E+02  0.47869305547E+01 -0.12235512922E+02  0.19103845784E+02  0.00000000000E+00 0. -1.
</event>
<event>
 7    1  0.3802554E-013  0.5930194E+02  0.7816164E-02  0.1266605E+00
        -11   -1    0    0    0    0  0.00000000000E+00  0.00000000000E+00  0.45593999997E+02  0.45594000000E+02  0.51100000000E-03 0.  1.
         11   -1    0    0    0    0 -0.00000000000E+00 -0.00000000000E+00 -0.45593999997E+02  0.45594000000E+02  0.51100000000E-03 0. -1.
    9900012    2    1    2    0    0 -0.44614855849E+00  0.25812004841E+02 -0.18715299772E+02  0.59301935834E+02  0.49999985056E+02 0.  0.
        -12    1    1    2    0    0  0.44614855849E+00 -0.25812004841E+02  0.18715299772E+02  0.31886064166E+02  0.00000000000E+00 0.  1.
         11    1    3    3    0    0  0.66816574279E+01  0.39234718594E+01 -0.10430257756E+02  0.12993400423E+02  0.51100000000E-03 0. -1.
        -11    1    3    3    0    0  0.11629670657E+01  0.31849297484E+02 -0.20755773210E+01  0.31938037888E+02  0.51100000000E-03 0.  1.
        -12    1    3    3    0    0 -0.82907730521E+01 -0.99607645026E+01 -0.62094646949E+01  0.14370497524E+02  0.00000000000E+00 0.  1.
</event>
<event>
 7    1  0.3802554E-013  0.5930194E+02  0.7816164E-02  0.1266605E+00
        -11   -1    0    0    0    0  0.00000000000E+00  0.00000000000E+00  0.45593999997E+02  0.45594000000E+02  0.51100000000E-03 0.  1.
         11   -1    0    0    0    0 -0.00000000000E+00 -0.00000000000E+00 -0.45593999997E+02  0.45594000000E+02  0.51100000000E-03 0. -1.
    9900012    2    1    2    0    0 -0.95117440565E+01  0.32147222141E+01 -0.30264056618E+02  0.59301939772E+02  0.49999992239E+02 0.  0.
        -12    1    1    2    0    0  0.95117440565E+01 -0.32147222141E+01  0.30264056618E+02  0.31886060228E+02  0.00000000000E+00 0.  1.
         11    1    3    3    0    0 -0.10456714910E+02  0.18430212125E+02 -0.23455214066E+02  0.31609534524E+02  0.51100000000E-03 0. -1.
        -11    1    3    3    0    0 -0.83812305713E+01 -0.28590000291E+01 -0.83034402515E+01  0.12139440981E+02  0.51100000000E-03 0.  1.
        -12    1    3    3    0    0  0.93262014246E+01 -0.12356489882E+02  0.14945976997E+01  0.15552964267E+02  0.00000000000E+00 0.  1.
</event>
<event>
 7    1  0.3802554E-013  0.5930194E+02  0.7816164E-02  0.1266605E+00
        -11   -1    0    0    0    0  0.00000000000E+00  0.00000000000E+00  0.45593999997E+02  0.45594000000E+02  0.51100000000E-03 0.  1.
         11   -1    0    0    0    0 -0.00000000000E+00 -0.00000000000E+00 -0.45593999997E+02  0.45594000000E+02  0.51100000000E-03 0. -1.
    9900012    2    1    2    0    0  0.24268182885E+02 -0.11779501867E+02 -0.17000563207E+02  0.59301944833E+02  0.50000001468E+02 0.  0.
        -12    1    1    2    0    0 -0.24268182885E+02  0.11779501867E+02  0.17000563207E+02  0.31886055167E+02  0.00000000000E+00 0.  1.
         11    1    3    3    0    0  0.12316061346E+02 -0.11929562522E+01 -0.78627803739E+01  0.14660553440E+02  0.51100000000E-03 0. -1.
        -11    1    3    3    0    0 -0.69533855415E+00  0.12206762400E+02 -0.13497938688E+02  0.18212163328E+02  0.51100000000E-03 0.  1.
         12    1    3    3    0    0  0.12647460093E+02 -0.22793308014E+02  0.43601558552E+01  0.26429228065E+02  0.00000000000E+00 0. -1.
</event>
<event>
 7    1  0.3802554E-013  0.5930194E+02  0.7816164E-02  0.1266605E+00
        -11   -1    0    0    0    0  0.00000000000E+00  0.00000000000E+00  0.45593999997E+02  0.45594000000E+02  0.51100000000E-03 0. -1.
         11   -1    0    0    0    0 -0.00000000000E+00 -0.00000000000E+00 -0.45593999997E+02  0.45594000000E+02  0.51100000000E-03 0.  1.
    9900012    2    1    2    0    0 -0.13302399437E+02  0.21403875679E+02  0.19535637658E+02  0.59301939353E+02  0.49999991475E+02 0.  0.
        -12    1    1    2    0    0  0.13302399437E+02 -0.21403875679E+02 -0.19535637658E+02  0.31886060647E+02  0.00000000000E+00 0.  1.
         11    1    3    3    0    0 -0.95998684211E+01 -0.10345452954E+02  0.52313350026E+01  0.15051668900E+02  0.51100000000E-03 0. -1.
        -11    1    3    3    0    0 -0.67975726551E+01 -0.98245882148E+00 -0.25223724165E+01  0.73167330282E+01  0.51100000000E-03 0.  1.
         12    1    3    3    0    0  0.30950416396E+01  0.32731787454E+02  0.16826675072E+02  0.36933537424E+02  0.00000000000E+00 0. -1.
</event>
<event>
 7    1  0.3802554E-013  0.5930194E+02  0.7816164E-02  0.1266605E+00
        -11   -1    0    0    0    0  0.00000000000E+00  0.00000000000E+00  0.45593999997E+02  0.45594000000E+02  0.51100000000E-03 0.  1.
         11   -1    0    0    0    0 -0.00000000000E+00 -0.00000000000E+00 -0.45593999997E+02  0.45594000000E+02  0.51100000000E-03 0. -1.
    9900012    2    1    2    0    0  0.65860492008E+01  0.17450554885E+02 -0.25861612472E+02  0.59301938633E+02  0.49999990161E+02 0.  0.
        -12    1    1    2    0    0 -0.65860492008E+01 -0.17450554885E+02  0.25861612472E+02  0.31886061367E+02  0.00000000000E+00 0.  1.
         11    1    3    3    0    0  0.10473187406E+02  0.14818515409E+02 -0.24779748419E+02  0.30713384466E+02  0.51100000000E-03 0. -1.
        -11    1    3    3    0    0  0.71643742938E+01 -0.95635230313E+01 -0.19505071859E+01  0.12107588956E+02  0.51100000000E-03 0.  1.
        -12    1    3    3    0    0 -0.11051512499E+02  0.12195562507E+02  0.86864313251E+00  0.16480965211E+02  0.00000000000E+00 0.  1.
</event>
<event>
 7    1  0.3802554E-013  0.5930194E+02  0.7816164E-02  0.1266605E+00
        -11   -1    0    0    0    0  0.00000000000E+00  0.00000000000E+00  0.45593999997E+02  0.45594000000E+02  0.51100000000E-03 0.  1.
         11   -1    0    0    0    0 -0.00000000000E+00 -0.00000000000E+00 -0.45593999997E+02  0.45594000000E+02  0.51100000000E-03 0. -1.
    9900012    2    1    2    0    0 -0.14270094100E+01 -0.23760143472E+02 -0.21216507645E+02  0.59301937679E+02  0.49999988422E+02 0.  0.
        -12    1    1    2    0    0  0.14270094100E+01  0.23760143472E+02  0.21216507645E+02  0.31886062321E+02  0.00000000000E+00 0.  1.
         11    1    3    3    0    0  0.65741826755E+01 -0.15645335133E+02 -0.20508376479E+02  0.26619351896E+02  0.51100000000E-03 0. -1.
        -11    1    3    3    0    0  0.11781017586E+02 -0.20946934586E+01 -0.94757108133E+00  0.12003249862E+02  0.51100000000E-03 0.  1.
        -12    1    3    3    0    0 -0.19782209671E+02 -0.60201148805E+01  0.23943991551E+00  0.20679335921E+02  0.00000000000E+00 0.  1.
</event>
<event>
 7    1  0.3802554E-013  0.5930194E+02  0.7816164E-02  0.1266605E+00
        -11   -1    0    0    0    0  0.00000000000E+00  0.00000000000E+00  0.45593999997E+02  0.45594000000E+02  0.51100000000E-03 0.  1.
         11   -1    0    0    0    0 -0.00000000000E+00 -0.00000000000E+00 -0.45593999997E+02  0.45594000000E+02  0.51100000000E-03 0. -1.
    9900012    2    1    2    0    0 -0.81061338775E+01  0.12637177003E+02 -0.28130286432E+02  0.59301942486E+02  0.49999997189E+02 0.  0.
        -12    1    1    2    0    0  0.81061338775E+01 -0.12637177003E+02  0.28130286432E+02  0.31886057514E+02  0.00000000000E+00 0.  1.
         11    1    3    3    0    0 -0.54915161639E+00  0.36264490887E+01  0.68450038707E+01  0.77657439271E+01  0.51100000000E-03 0. -1.
        -11    1    3    3    0    0 -0.51904849678E+01  0.12398708942E+02  0.26370020943E+01  0.13697550800E+02  0.51100000000E-03 0.  1.
         12    1    3    3    0    0 -0.23664972933E+01 -0.33879810274E+01 -0.37612292397E+02  0.37838647759E+02  0.00000000000E+00 0. -1.
</event>
<event>
 7    1  0.3802554E-013  0.5930190E+02  0.7816164E-02  0.1266605E+00
        -11   -1    0    0    0    0  0.00000000000E+00  0.00000000000E+00  0.45593999997E+02  0.45594000000E+02  0.51100000000E-03 0. -1.
         11   -1    0    0    0    0 -0.00000000000E+00 -0.00000000000E+00 -0.45593999997E+02  0.45594000000E+02  0.51100000000E-03 0.  1.
    9900012    2    1    2    0    0  0.29722840174E+02  0.11146207995E+02 -0.30063155418E+01  0.59301904067E+02  0.49999927121E+02 0.  0.
        -12    1    1    2    0    0 -0.29722840174E+02 -0.11146207995E+02  0.30063155418E+01  0.31886095933E+02  0.00000000000E+00 0.  1.
         11    1    3    3    0    0 -0.65470102989E+00 -0.11442624553E+02  0.17172988370E+01  0.11589279773E+02  0.51100000000E-03 0. -1.
        -11    1    3    3    0    0  0.92323371278E+00 -0.54874125205E+01  0.29581830114E+01  0.63019761701E+01  0.51100000000E-03 0.  1.
         12    1    3    3    0    0  0.29454307491E+02  0.28076245069E+02 -0.76817973902E+01  0.41410648124E+02  0.00000000000E+00 0. -1.
</event>
<event>
 7    1  0.3802554E-013  0.5930194E+02  0.7816164E-02  0.1266605E+00
        -11   -1    0    0    0    0  0.00000000000E+00  0.00000000000E+00  0.45593999997E+02  0.45594000000E+02  0.51100000000E-03 0. -1.
         11   -1    0    0    0    0 -0.00000000000E+00 -0.00000000000E+00 -0.45593999997E+02  0.45594000000E+02  0.51100000000E-03 0.  1.
    9900012    2    1    2    0    0  0.26452512424E+02  0.13911875123E+02  0.11110582524E+02  0.59301941495E+02  0.49999995381E+02 0.  0.
        -12    1    1    2    0    0 -0.26452512424E+02 -0.13911875123E+02 -0.11110582524E+02  0.31886058505E+02  0.00000000000E+00 0.  1.
         11    1    3    3    0    0 -0.21076005254E+01  0.20920103053E+01  0.15855289227E+01  0.33663614360E+01  0.51100000000E-03 0. -1.
        -11    1    3    3    0    0  0.82030127099E+01  0.27781403256E+02  0.22033143714E+01  0.29050824065E+02  0.51100000000E-03 0.  1.
         12    1    3    3    0    0  0.20357100240E+02 -0.15961538439E+02  0.73217392295E+01  0.26884755994E+02  0.00000000000E+00 0. -1.
</event>
<event>
 7    1  0.3916467E-013  0.5930186E+02  0.7816164E-02  0.1266605E+00
        -11   -1    0    0    0    0  0.00000000000E+00  0.00000000000E+00  0.45593999997E+02  0.45594000000E+02  0.51100000000E-03 0.  1.
         11   -1    0    0    0    0 -0.00000000000E+00 -0.00000000000E+00 -0.45593999997E+02  0.45594000000E+02  0.51100000000E-03 0. -1.
    9900012    2    1    2    0    0 -0.11961686067E+02  0.28452730992E+02 -0.80053823723E+01  0.59301859101E+02  0.49999845114E+02 0.  0.
        -12    1    1    2    0    0  0.11961686067E+02 -0.28452730992E+02  0.80053823723E+01  0.31886140899E+02  0.00000000000E+00 0.  1.
         11    1    3    3    0    0 -0.15819282925E+02  0.17269614868E+02 -0.19975442031E+02  0.30781611305E+02  0.51100000000E-03 0. -1.
        -11    1    3    3    0    0 -0.71113525071E+01  0.11302060671E+01 -0.26383693930E+01  0.76687478475E+01  0.51100000000E-03 0.  1.
        -12    1    3    3    0    0  0.10968949364E+02  0.10052910057E+02  0.14608429051E+02  0.20851499949E+02  0.00000000000E+00 0.  1.
</event>
<event>
 7    1  0.3802554E-013  0.5930199E+02  0.7816164E-02  0.1266605E+00
        -11   -1    0    0    0    0  0.00000000000E+00  0.00000000000E+00  0.45593999997E+02  0.45594000000E+02  0.51100000000E-03 0.  1.
         11   -1    0    0    0    0 -0.00000000000E+00 -0.00000000000E+00 -0.45593999997E+02  0.45594000000E+02  0.51100000000E-03 0. -1.
    9900012    2    1    2    0    0 -0.26268310026E+02 -0.11256231634E+02 -0.14141816627E+02  0.59301986770E+02  0.50000077952E+02 0.  0.
        -12    1    1    2    0    0  0.26268310026E+02  0.11256231634E+02  0.14141816627E+02  0.31886013230E+02  0.00000000000E+00 0.  1.
         11    1    3    3    0    0 -0.12414657102E+02 -0.64603932985E+00 -0.12325141148E+02  0.17505718562E+02  0.51100000000E-03 0. -1.
        -11    1    3    3    0    0  0.87591766837E+01  0.13118253030E+01  0.10234632557E+02  0.13534835264E+02  0.51100000000E-03 0.  1.
         12    1    3    3    0    0 -0.22612829607E+02 -0.11922017607E+02 -0.12051308035E+02  0.28261432943E+02  0.00000000000E+00 0. -1.
</event>
<event>
 7    1  0.3802554E-013  0.5930194E+02  0.7816164E-02  0.1266605E+00
        -11   -1    0    0    0    0  0.00000000000E+00  0.00000000000E+00  0.45593999997E+02  0.45594000000E+02  0.51100000000E-03 0.  1.
         11   -1    0    0    0    0 -0.00000000000E+00 -0.00000000000E+00 -0.45593999997E+02  0.45594000000E+02  0.51100000000E-03 0. -1.
    9900012    2    1    2    0    0 -0.11876213948E+02  0.29226274730E+02 -0.46369546074E+01  0.59301938149E+02  0.49999989279E+02 0.  0.
        -12    1    1    2    0    0  0.11876213948E+02 -0.29226274730E+02  0.46369546074E+01  0.31886061851E+02  0.00000000000E+00 0.  1.
         11    1    3    3    0    0 -0.13100698930E+02  0.16027577711E+02 -0.10348732767E+02  0.23143202671E+02  0.51100000000E-03 0. -1.
        -11    1    3    3    0    0 -0.80250421945E+01  0.11948389964E+02 -0.10248858603E+02  0.17669307510E+02  0.51100000000E-03 0.  1.
        -12    1    3    3    0    0  0.92495271762E+01  0.12503070547E+01  0.15960636762E+02  0.18489427968E+02  0.00000000000E+00 0.  1.
</event>
<event>
 7    1  0.3802554E-013  0.5930195E+02  0.7816164E-02  0.1266605E+00
        -11   -1    0    0    0    0  0.00000000000E+00  0.00000000000E+00  0.45593999997E+02  0.45594000000E+02  0.51100000000E-03 0. -1.
         11   -1    0    0    0    0 -0.00000000000E+00 -0.00000000000E+00 -0.45593999997E+02  0.45594000000E+02  0.51100000000E-03 0.  1.
    9900012    2    1    2    0    0  0.64431634129E+01 -0.26526411508E+02  0.16478936990E+02  0.59301949342E+02  0.50000009692E+02 0.  0.
        -12    1    1    2    0    0 -0.64431634129E+01  0.26526411508E+02 -0.16478936990E+02  0.31886050658E+02  0.00000000000E+00 0.  1.
         11    1    3    3    0    0  0.49456707460E+01 -0.70856260819E+01  0.97128800848E+01  0.13000222917E+02  0.51100000000E-03 0. -1.
        -11    1    3    3    0    0  0.85959027311E+01 -0.92693854832E+01  0.22776067327E+02  0.26049189894E+02  0.51100000000E-03 0.  1.
        -12    1    3    3    0    0 -0.70984100642E+01 -0.10171399943E+02 -0.16010010422E+02  0.20252536531E+02  0.00000000000E+00 0.  1.
</event>
<event>
 7    1  0.3802554E-013  0.5930194E+02  0.7816164E-02  0.1266605E+00
        -11   -1    0    0    0    0  0.00000000000E+00  0.00000000000E+00  0.45593999997E+02  0.45594000000E+02  0.51100000000E-03 0.  1.
         11   -1    0    0    0    0 -0.00000000000E+00 -0.00000000000E+00 -0.45593999997E+02  0.45594000000E+02  0.51100000000E-03 0. -1.
    9900012    2    1    2    0    0  0.80243896361E+01 -0.13158100278E+02 -0.27914052438E+02  0.59301941048E+02  0.49999994566E+02 0.  0.
        -12    1    1    2    0    0 -0.80243896361E+01  0.13158100278E+02  0.27914052438E+02  0.31886058952E+02  0.00000000000E+00 0.  1.
         11    1    3    3    0    0  0.68317512118E+01 -0.16992078074E+01  0.63569380967E+00  0.70685386519E+01  0.51100000000E-03 0. -1.
        -11    1    3    3    0    0  0.21129673371E+02 -0.10795083174E+02 -0.16924031685E+02  0.29144806849E+02  0.51100000000E-03 0.  1.
         12    1    3    3    0    0 -0.19937034947E+02 -0.66380929658E+00 -0.11625714563E+02  0.23088595547E+02  0.00000000000E+00 0. -1.
</event>
<event>
 7    1  0.3802554E-013  0.5930196E+02  0.7816164E-02  0.1266605E+00
        -11   -1    0    0    0    0  0.00000000000E+00  0.00000000000E+00  0.45593999997E+02  0.45594000000E+02  0.51100000000E-03 0.  1.
         11   -1    0    0    0    0 -0.00000000000E+00 -0.00000000000E+00 -0.45593999997E+02  0.45594000000E+02  0.51100000000E-03 0. -1.
    9900012    2    1    2    0    0 -0.20115191187E+01  0.24621251049E+02 -0.20161032850E+02  0.59301961394E+02  0.50000031672E+02 0.  0.
        -12    1    1    2    0    0  0.20115191187E+01 -0.24621251049E+02  0.20161032850E+02  0.31886038606E+02  0.00000000000E+00 0.  1.
         11    1    3    3    0    0  0.17963112245E+00  0.11100163997E+02 -0.16223735999E+01  0.11219536731E+02  0.51100000000E-03 0. -1.
        -11    1    3    3    0    0 -0.11646113859E+02  0.58105582061E+01  0.10411079745E+02  0.16666887424E+02  0.51100000000E-03 0.  1.
         12    1    3    3    0    0  0.94549636181E+01  0.77105288462E+01 -0.28949738996E+02  0.31415537239E+02  0.00000000000E+00 0. -1.
</event>
<event>
 7    1  0.3802554E-013  0.5930194E+02  0.7816164E-02  0.1266605E+00
        -11   -1    0    0    0    0  0.00000000000E+00  0.00000000000E+00  0.45593999997E+02  0.45594000000E+02  0.51100000000E-03 0.  1.
         11   -1    0    0    0    0 -0.00000000000E+00 -0.00000000000E+00 -0.45593999997E+02  0.45594000000E+02  0.51100000000E-03 0. -1.
    9900012    2    1    2    0    0 -0.16691115470E+01  0.25207420328E+02 -0.19455608507E+02  0.59301942305E+02  0.49999996858E+02 0.  0.
        -12    1    1    2    0    0  0.16691115470E+01 -0.25207420328E+02  0.19455608507E+02  0.31886057695E+02  0.00000000000E+00 0.  1.
         11    1    3    3    0    0 -0.10002817824E+02  0.12622323735E+02 -0.12824190610E+02  0.20587357431E+02  0.51100000000E-03 0. -1.
        -11    1    3    3    0    0 -0.93499794666E+01  0.18028213692E+01 -0.13827014798E+02  0.16788645550E+02  0.51100000000E-03 0.  1.
        -12    1    3    3    0    0  0.17683685744E+02  0.10782275224E+02  0.71955969009E+01  0.21925939324E+02  0.00000000000E+00 0.  1.
</event>
<event>
 7    1  0.3802554E-013  0.5930195E+02  0.7816164E-02  0.1266605E+00
        -11   -1    0    0    0    0  0.00000000000E+00  0.00000000000E+00  0.45593999997E+02  0.45594000000E+02  0.51100000000E-03 0.  1.
         11   -1    0    0    0    0 -0.00000000000E+00 -0.00000000000E+00 -0.45593999997E+02  0.45594000000E+02  0.51100000000E-03 0. -1.
    9900012    2    1    2    0    0  0.15092988140E+02 -0.27543619916E+02 -0.55019184873E+01  0.59301946684E+02  0.50000004844E+02 0.  0.
        -12    1    1    2    0    0 -0.15092988140E+02  0.27543619916E+02  0.55019184873E+01  0.31886053316E+02  0.00000000000E+00 0.  1.
         11    1    3    3    0    0 -0.47017544668E+01 -0.20190116450E+02 -0.12078363030E+02  0.23992376936E+02  0.51100000000E-03 0. -1.
        -11    1    3    3    0    0 -0.52837808376E+01  0.40001452011E+01  0.38043357925E+01  0.76414967547E+01  0.51100000000E-03 0.  1.
         12    1    3    3    0    0  0.25078523444E+02 -0.11353648667E+02  0.27721087499E+01  0.27668072993E+02  0.00000000000E+00 0. -1.
</event>
<event>
 7    1  0.3802554E-013  0.5930202E+02  0.7816164E-02  0.1266604E+00
        -11   -1    0    0    0    0  0.00000000000E+00  0.00000000000E+00  0.45593999997E+02  0.45594000000E+02  0.51100000000E-03 0.  1.
         11   -1    0    0    0    0 -0.00000000000E+00 -0.00000000000E+00 -0.45593999997E+02  0.45594000000E+02  0.51100000000E-03 0. -1.
    9900012    2    1    2    0    0  0.16766456109E+02 -0.22319320598E+02  0.15409399638E+02  0.59302020015E+02  0.50000138582E+02 0.  0.
        -12    1    1    2    0    0 -0.16766456109E+02  0.22319320598E+02 -0.15409399638E+02  0.31885979985E+02  0.00000000000E+00 0.  1.
         11    1    3    3    0    0 -0.29132036285E+01  0.45981551702E+01 -0.74021780112E+01  0.91881459458E+01  0.51100000000E-03 0. -1.
        -11    1    3    3    0    0  0.10086523577E+02 -0.46257120229E+00 -0.43582083108E+01  0.10997541086E+02  0.51100000000E-03 0.  1.
        -12    1    3    3    0    0  0.95931361606E+01 -0.26454904566E+02  0.27169785960E+02  0.39116332983E+02  0.00000000000E+00 0.  1.
</event>
<event>
 7    1  0.3802554E-013  0.5930194E+02  0.7816164E-02  0.1266605E+00
        -11   -1    0    0    0    0  0.00000000000E+00  0.00000000000E+00  0.45593999997E+02  0.45594000000E+02  0.51100000000E-03 0.  1.
         11   -1    0    0    0    0 -0.00000000000E+00 -0.00000000000E+00 -0.45593999997E+02  0.45594000000E+02  0.51100000000E-03 0. -1.
    9900012    2    1    2    0    0 -0.15970163320E+02 -0.22433175444E+02 -0.16075675632E+02  0.59301939974E+02  0.49999992606E+02 0.  0.
        -12    1    1    2    0    0  0.15970163320E+02  0.22433175444E+02  0.16075675632E+02  0.31886060026E+02  0.00000000000E+00 0.  1.
         11    1    3    3    0    0 -0.14140843980E+02 -0.20203213216E+02 -0.11906568900E+02  0.27384296156E+02  0.51100000000E-03 0. -1.
        -11    1    3    3    0    0 -0.97823698720E+01 -0.11514448034E+02 -0.10256070568E+02  0.18261003740E+02  0.51100000000E-03 0.  1.
        -12    1    3    3    0    0  0.79530505319E+01  0.92844858069E+01  0.60869638358E+01  0.13656640077E+02  0.00000000000E+00 0.  1.
</event>
<event>
 7    1  0.3802554E-013  0.5930195E+02  0.7816164E-02  0.1266605E+00
        -11   -1    0    0    0    0  0.00000000000E+00  0.00000000000E+00  0.45593999997E+02  0.45594000000E+02  0.51100000000E-03 0.  1.
         11   -1    0    0    0    0 -0.00000000000E+00 -0.00000000000E+00 -0.45593999997E+02  0.45594000000E+02  0.51100000000E-03 0. -1.
    9900012    2    1    2    0    0 -0.72577340033E+01 -0.26242390452E+02 -0.16594659839E+02  0.59301945138E+02  0.50000002025E+02 0.  0.
        -12    1    1    2    0    0  0.72577340033E+01  0.26242390452E+02  0.16594659839E+02  0.31886054862E+02  0.00000000000E+00 0.  1.
         11    1    3    3    0    0 -0.34556111995E+01 -0.37155977797E+02 -0.93805431058E+01  0.38477298815E+02  0.51100000000E-03 0. -1.
        -11    1    3    3    0    0 -0.28349788254E+01 -0.37708690689E+01 -0.26797738082E+01  0.54256563105E+01  0.51100000000E-03 0.  1.
        -12    1    3    3    0    0 -0.96714397836E+00  0.14684456415E+02 -0.45343429248E+01  0.15398990013E+02  0.00000000000E+00 0.  1.
</event>
<event>
 7    1  0.3802554E-013  0.5930193E+02  0.7816164E-02  0.1266605E+00
        -11   -1    0    0    0    0  0.00000000000E+00  0.00000000000E+00  0.45593999997E+02  0.45594000000E+02  0.51100000000E-03 0. -1.
         11   -1    0    0    0    0 -0.00000000000E+00 -0.00000000000E+00 -0.45593999997E+02  0.45594000000E+02  0.51100000000E-03 0.  1.
    9900012    2    1    2    0    0  0.44000007415E+00 -0.28057766888E+02  0.15142309279E+02  0.59301930736E+02  0.49999975759E+02 0.  0.
        -12    1    1    2    0    0 -0.44000007415E+00  0.28057766888E+02 -0.15142309279E+02  0.31886069264E+02  0.00000000000E+00 0.  1.
         11    1    3    3    0    0  0.73596594262E+01 -0.28995033501E+02  0.13849171232E+02  0.32964770570E+02  0.51100000000E-03 0. -1.
        -11    1    3    3    0    0  0.56063290118E+01 -0.81206395317E+01  0.39931794243E+01  0.10645242767E+02  0.51100000000E-03 0.  1.
        -12    1    3    3    0    0 -0.12525988364E+02  0.90579061449E+01 -0.27000413776E+01  0.15691917399E+02  0.00000000000E+00 0.  1.
</event>
<event>
 7    1  0.3802554E-013  0.5930196E+02  0.7816164E-02  0.1266605E+00
        -11   -1    0    0    0    0  0.00000000000E+00  0.00000000000E+00  0.45593999997E+02  0.45594000000E+02  0.51100000000E-03 0. -1.
         11   -1    0    0    0    0 -0.00000000000E+00 -0.00000000000E+00 -0.45593999997E+02  0.45594000000E+02  0.51100000000E-03 0.  1.
    9900012    2    1    2    0    0  0.17240096083E+02  0.40311718693E+00  0.26820444438E+02  0.59301958285E+02  0.50000026001E+02 0.  0.
        -12    1    1    2    0    0 -0.17240096083E+02 -0.40311718693E+00 -0.26820444438E+02  0.31886041715E+02  0.00000000000E+00 0.  1.
         11    1    3    3    0    0  0.16975509298E+02 -0.38001055806E+01  0.73027362153E+01  0.18866337080E+02  0.51100000000E-03 0. -1.
        -11    1    3    3    0    0 -0.17504245264E+01  0.69898081019E+01 -0.91026220835E+01  0.11609441519E+02  0.51100000000E-03 0.  1.
         12    1    3    3    0    0  0.20150113118E+01 -0.27865853344E+01  0.28620330306E+02  0.28826179685E+02  0.00000000000E+00 0. -1.
</event>
<event>
 7    1  0.3802554E-013  0.5930196E+02  0.7816164E-02  0.1266605E+00
        -11   -1    0    0    0    0  0.00000000000E+00  0.00000000000E+00  0.45593999997E+02  0.45594000000E+02  0.51100000000E-03 0.  1.
         11   -1    0    0    0    0 -0.00000000000E+00 -0.00000000000E+00 -0.45593999997E+02  0.45594000000E+02  0.51100000000E-03 0. -1.
    9900012    2    1    2    0    0  0.27132180148E+02  0.78256945025E+01 -0.14809550981E+02  0.59301960824E+02  0.50000030633E+02 0.  0.
        -12    1    1    2    0    0 -0.27132180148E+02 -0.78256945025E+01  0.14809550981E+02  0.31886039176E+02  0.00000000000E+00 0.  1.
         11    1    3    3    0    0  0.18577765256E+02 -0.72725381544E+01  0.45323628679E+00  0.19955665775E+02  0.51100000000E-03 0. -1.
        -11    1    3    3    0    0  0.15186042209E+02 -0.32869443534E+01 -0.18622857418E+01  0.15648897393E+02  0.51100000000E-03 0.  1.
         12    1    3    3    0    0 -0.66316273170E+01  0.18385177010E+02 -0.13400501526E+02  0.23697397657E+02  0.00000000000E+00 0. -1.
</event>
<event>
 7    1  0.3802554E-013  0.5930195E+02  0.7816164E-02  0.1266605E+00
        -11   -1    0    0    0    0  0.00000000000E+00  0.00000000000E+00  0.45593999997E+02  0.45594000000E+02  0.51100000000E-03 0. -1.
         11   -1    0    0    0    0 -0.00000000000E+00 -0.00000000000E+00 -0.45593999997E+02  0.45594000000E+02  0.51100000000E-03 0.  1.
    9900012    2    1    2    0    0 -0.31829947953E+02  0.11722887034E+01  0.14833707815E+01  0.59301949188E+02  0.50000009412E+02 0.  0.
        -12    1    1    2    0    0  0.31829947953E+02 -0.11722887034E+01 -0.14833707815E+01  0.31886050812E+02  0.00000000000E+00 0.  1.
         11    1    3    3    0    0 -0.18411800258E+02  0.57024902692E+01 -0.16863134180E+01  0.19348292876E+02  0.51100000000E-03 0. -1.
        -11    1    3    3    0    0 -0.48252473281E+01 -0.17345943665E+02 -0.91617601845E+01  0.20201550023E+02  0.51100000000E-03 0.  1.
         12    1    3    3    0    0 -0.85929003670E+01  0.12815742099E+02  0.12331444384E+02  0.19752106289E+02  0.00000000000E+00 0. -1.
</event>
<event>
 7    1  0.3802554E-013  0.5930194E+02  0.7816164E-02  0.1266605E+00
        -11   -1    0    0    0    0  0.00000000000E+00  0.00000000000E+00  0.45593999997E+02  0.45594000000E+02  0.51100000000E-03 0. -1.
         11   -1    0    0    0    0 -0.00000000000E+00 -0.00000000000E+00 -0.45593999997E+02  0.45594000000E+02  0.51100000000E-03 0.  1.
    9900012    2    1    2    0    0 -0.20021647183E+02  0.43823914200E+01  0.24426404619E+02  0.59301937949E+02  0.49999988915E+02 0.  0.
        -12    1    1    2    0    0  0.20021647183E+02 -0.43823914200E+01 -0.24426404619E+02  0.31886062051E+02  0.00000000000E+00 0.  1.
         11    1    3    3    0    0 -0.10349190694E+02 -0.39964457656E+01  0.42617314000E+00  0.11102204763E+02  0.51100000000E-03 0. -1.
        -11    1    3    3    0    0  0.25333948059E+01  0.21553073900E+02  0.54400094908E+01  0.22372902970E+02  0.51100000000E-03 0.  1.
         12    1    3    3    0    0 -0.12205851295E+02 -0.13174236714E+02  0.18560221988E+02  0.25826830217E+02  0.00000000000E+00 0. -1.
</event>
<event>
 7    1  0.3802554E-013  0.5930200E+02  0.7816164E-02  0.1266605E+00
        -11   -1    0    0    0    0  0.00000000000E+00  0.00000000000E+00  0.45593999997E+02  0.45594000000E+02  0.51100000000E-03 0. -1.
         11   -1    0    0    0    0 -0.00000000000E+00 -0.00000000000E+00 -0.45593999997E+02  0.45594000000E+02  0.51100000000E-03 0.  1.
    9900012    2    1    2    0    0 -0.19772629591E+01  0.95643527737E+01  0.30353430210E+02  0.59301997768E+02  0.50000098010E+02 0.  0.
        -12    1    1    2    0    0  0.19772629591E+01 -0.95643527737E+01 -0.30353430210E+02  0.31886002232E+02  0.00000000000E+00 0.  1.
         11    1    3    3    0    0 -0.77177687170E+01  0.68489256796E-01  0.19047804954E+02  0.20552068474E+02  0.51100000000E-03 0. -1.
        -11    1    3    3    0    0 -0.34071142451E+01  0.19898705722E+02  0.14091491128E+02  0.24619850515E+02  0.51100000000E-03 0.  1.
        -12    1    3    3    0    0  0.91476200031E+01 -0.10402842205E+02 -0.27858658719E+01  0.14130078780E+02  0.00000000000E+00 0.  1.
</event>
<event>
 7    1  0.3802554E-013  0.5930194E+02  0.7816164E-02  0.1266605E+00
        -11   -1    0    0    0    0  0.00000000000E+00  0.00000000000E+00  0.45593999997E+02  0.45594000000E+02  0.51100000000E-03 0.  1.
         11   -1    0    0    0    0 -0.00000000000E+00 -0.00000000000E+00 -0.45593999997E+02  0.45594000000E+02  0.51100000000E-03 0. -1.
    9900012    2    1    2    0    0  0.14888624704E+01 -0.31839727267E+02 -0.85765997352E+00  0.59301944670E+02  0.50000001171E+02 0.  0.
        -12    1    1    2    0    0 -0.14888624704E+01  0.31839727267E+02  0.85765997352E+00  0.31886055330E+02  0.00000000000E+00 0.  1.
         11    1    3    3    0    0  0.31171000514E+01 -0.23891470410E+01  0.53382770543E+01  0.66273326824E+01  0.51100000000E-03 0. -1.
        -11    1    3    3    0    0  0.15953446301E+02 -0.77457870264E+00  0.57557623025E+01  0.16977668303E+02  0.51100000000E-03 0.  1.
         12    1    3    3    0    0 -0.17581683882E+02 -0.28676001523E+02 -0.11951699330E+02  0.35696943684E+02  0.00000000000E+00 0. -1.
</event>
<event>
 7    1  0.3802554E-013  0.5930198E+02  0.7816164E-02  0.1266605E+00
        -11   -1    0    0    0    0  0.00000000000E+00  0.00000000000E+00  0.45593999997E+02  0.45594000000E+02  0.51100000000E-03 0.  1.
         11   -1    0    0    0    0 -0.00000000000E+00 -0.00000000000E+00 -0.45593999997E+02  0.45594000000E+02  0.51100000000E-03 0. -1.
    9900012    2    1    2    0    0  0.82340960554E+01  0.26942728330E+01 -0.30686464862E+02  0.59301975323E+02  0.50000057076E+02 0.  0.
        -12    1    1    2    0    0 -0.82340960554E+01 -0.26942728330E+01  0.30686464862E+02  0.31886024677E+02  0.00000000000E+00 0.  1.
         11    1    3    3    0    0  0.19414968605E+01  0.13227670206E+02 -0.15025469810E+02  0.20112319916E+02  0.51100000000E-03 0. -1.
        -11    1    3    3    0    0  0.69311159935E+01  0.56690859781E+01 -0.20414715307E+02  0.22292140006E+02  0.51100000000E-03 0.  1.
         12    1    3    3    0    0 -0.63851679862E+00 -0.16202483352E+02  0.47537202546E+01  0.16897515401E+02  0.00000000000E+00 0. -1.
</event>
<event>
 7    1  0.3802554E-013  0.5930196E+02  0.7816164E-02  0.1266605E+00
        -11   -1    0    0    0    0  0.00000000000E+00  0.00000000000E+00  0.45593999997E+02  0.45594000000E+02  0.51100000000E-03 0.  1.
         11   -1    0    0    0    0 -0.00000000000E+00 -0.00000000000E+00 -0.45593999997E+02  0.45594000000E+02  0.51100000000E-03 0. -1.
    9900012    2    1    2    0    0  0.28657700182E+02 -0.62490095700E+00 -0.13966573215E+02  0.59301961546E+02  0.50000031950E+02 0.  0.
        -12    1    1    2    0    0 -0.28657700182E+02  0.62490095700E+00  0.13966573215E+02  0.31886038454E+02  0.00000000000E+00 0.  1.
         11    1    3    3    0    0  0.21178220869E+02  0.19213562388E+00 -0.86166465581E+01  0.22864832242E+02  0.51100000000E-03 0. -1.
        -11    1    3    3    0    0  0.16016028688E+02  0.12168082341E+02 -0.56564831057E+01  0.20894286401E+02  0.51100000000E-03 0.  1.
        -12    1    3    3    0    0 -0.85365493760E+01 -0.12985118922E+02  0.30655644906E+00  0.15542842904E+02  0.00000000000E+00 0.  1.
</event>
<event>
 7    1  0.3802554E-013  0.5930194E+02  0.7816164E-02  0.1266605E+00
        -11   -1    0    0    0    0  0.00000000000E+00  0.00000000000E+00  0.45593999997E+02  0.45594000000E+02  0.51100000000E-03 0.  1.
         11   -1    0    0    0    0 -0.00000000000E+00 -0.00000000000E+00 -0.45593999997E+02  0.45594000000E+02  0.51100000000E-03 0. -1.
    9900012    2    1    2    0    0  0.70145374302E+01 -0.31727564861E+01 -0.30942702859E+02  0.59301937538E+02  0.49999988165E+02 0.  0.
        -12    1    1    2    0    0 -0.70145374302E+01  0.31727564861E+01  0.30942702859E+02  0.31886062462E+02  0.00000000000E+00 0.  1.
         11    1    3    3    0    0 -0.83236876606E+01  0.36538008586E+01  0.61464561851E+01  0.10973283961E+02  0.51100000000E-03 0. -1.
        -11    1    3    3    0    0 -0.11742416254E+01 -0.36037986039E+01  0.30119831690E+01  0.48413067083E+01  0.51100000000E-03 0.  1.
         12    1    3    3    0    0  0.16512466716E+02 -0.32227587408E+01 -0.40101142213E+02  0.43487346870E+02  0.00000000000E+00 0. -1.
</event>
<event>
 7    1  0.3802554E-013  0.5930193E+02  0.7816164E-02  0.1266605E+00
        -11   -1    0    0    0    0  0.00000000000E+00  0.00000000000E+00  0.45593999997E+02  0.45594000000E+02  0.51100000000E-03 0.  1.
         11   -1    0    0    0    0 -0.00000000000E+00 -0.00000000000E+00 -0.45593999997E+02  0.45594000000E+02  0.51100000000E-03 0. -1.
    9900012    2    1    2    0    0 -0.28667532332E+02 -0.41769195768E+01 -0.13320927063E+02  0.59301934627E+02  0.49999982855E+02 0.  0.
        -12    1    1    2    0    0  0.28667532332E+02  0.41769195768E+01  0.13320927063E+02  0.31886065373E+02  0.00000000000E+00 0.  1.
         11    1    3    3    0    0  0.43195355381E+01  0.57117227013E+01 -0.53389582062E+01  0.89323366747E+01  0.51100000000E-03 0. -1.
        -11    1    3    3    0    0 -0.21027481468E+02  0.22526370974E+01 -0.20321473771E+02  0.29329023974E+02  0.51100000000E-03 0.  1.
        -12    1    3    3    0    0 -0.11959586402E+02 -0.12141279375E+02  0.12339504914E+02  0.21040573978E+02  0.00000000000E+00 0.  1.
</event>
<event>
 7    1  0.3802554E-013  0.5930188E+02  0.7816164E-02  0.1266605E+00
        -11   -1    0    0    0    0  0.00000000000E+00  0.00000000000E+00  0.45593999997E+02  0.45594000000E+02  0.51100000000E-03 0.  1.
         11   -1    0    0    0    0 -0.00000000000E+00 -0.00000000000E+00 -0.45593999997E+02  0.45594000000E+02  0.51100000000E-03 0. -1.
    9900012    2    1    2    0    0 -0.93425842243E+01 -0.28996695005E+02 -0.94144898201E+01  0.59301877317E+02  0.49999878336E+02 0.  0.
        -12    1    1    2    0    0  0.93425842243E+01  0.28996695005E+02  0.94144898201E+01  0.31886122683E+02  0.00000000000E+00 0.  1.
         11    1    3    3    0    0 -0.28889305082E+01 -0.10411944585E+02 -0.15982700660E+02  0.19292517466E+02  0.51100000000E-03 0. -1.
        -11    1    3    3    0    0  0.29189626709E+01 -0.80736297805E+01 -0.13194858481E+02  0.15741922738E+02  0.51100000000E-03 0.  1.
        -12    1    3    3    0    0 -0.93726163871E+01 -0.10511120639E+02  0.19763069321E+02  0.24267437113E+02  0.00000000000E+00 0.  1.
</event>
<event>
 7    1  0.3802554E-013  0.5930195E+02  0.7816164E-02  0.1266605E+00
        -11   -1    0    0    0    0  0.00000000000E+00  0.00000000000E+00  0.45593999997E+02  0.45594000000E+02  0.51100000000E-03 0. -1.
         11   -1    0    0    0    0 -0.00000000000E+00 -0.00000000000E+00 -0.45593999997E+02  0.45594000000E+02  0.51100000000E-03 0.  1.
    9900012    2    1    2    0    0 -0.28251017977E+01 -0.95802238251E+01  0.30281317914E+02  0.59301951274E+02  0.50000013216E+02 0.  0.
        -12    1    1    2    0    0  0.28251017977E+01  0.95802238251E+01 -0.30281317914E+02  0.31886048726E+02  0.00000000000E+00 0.  1.
         11    1    3    3    0    0 -0.10194505946E+02  0.55691346894E+01  0.60675075277E+01  0.13105642316E+02  0.51100000000E-03 0. -1.
        -11    1    3    3    0    0  0.46760479130E+01  0.64534025624E+01 -0.52640422866E+01  0.95510193264E+01  0.51100000000E-03 0.  1.
         12    1    3    3    0    0  0.26933562351E+01 -0.21602761077E+02  0.29477852673E+02  0.36645289632E+02  0.00000000000E+00 0. -1.
</event>
<event>
 7    1  0.3802554E-013  0.5930195E+02  0.7816164E-02  0.1266605E+00
        -11   -1    0    0    0    0  0.00000000000E+00  0.00000000000E+00  0.45593999997E+02  0.45594000000E+02  0.51100000000E-03 0.  1.
         11   -1    0    0    0    0 -0.00000000000E+00 -0.00000000000E+00 -0.45593999997E+02  0.45594000000E+02  0.51100000000E-03 0. -1.
    9900012    2    1    2    0    0  0.20081162619E+02  0.24678296758E+02 -0.21092748200E+01  0.59301945631E+02  0.50000002923E+02 0.  0.
        -12    1    1    2    0    0 -0.20081162619E+02 -0.24678296758E+02  0.21092748200E+01  0.31886054369E+02  0.00000000000E+00 0.  1.
         11    1    3    3    0    0  0.20111821378E+02  0.25139857379E+02  0.74197916695E+01  0.33038630372E+02  0.51100000000E-03 0. -1.
        -11    1    3    3    0    0 -0.45494681908E+01  0.60323403696E+01  0.54549414019E+01  0.93189686722E+01  0.51100000000E-03 0.  1.
        -12    1    3    3    0    0  0.45188094316E+01 -0.64939009909E+01 -0.14984007891E+02  0.16944346587E+02  0.00000000000E+00 0.  1.
</event>
<event>
 7    1  0.3802554E-013  0.5930195E+02  0.7816164E-02  0.1266605E+00
        -11   -1    0    0    0    0  0.00000000000E+00  0.00000000000E+00  0.45593999997E+02  0.45594000000E+02  0.51100000000E-03 0. -1.
         11   -1    0    0    0    0 -0.00000000000E+00 -0.00000000000E+00 -0.45593999997E+02  0.45594000000E+02  0.51100000000E-03 0.  1.
    9900012    2    1    2    0    0 -0.15661868666E+02  0.27543415851E+02 -0.35757661813E+01  0.59301953041E+02  0.50000016439E+02 0.  0.
        -12    1    1    2    0    0  0.15661868666E+02 -0.27543415851E+02  0.35757661813E+01  0.31886046959E+02  0.00000000000E+00 0.  1.
         11    1    3    3    0    0 -0.11990160384E+02 -0.21290305614E+01 -0.51597913747E+01  0.13225738711E+02  0.51100000000E-03 0. -1.
        -11    1    3    3    0    0 -0.56907267279E+01 -0.47703861865E+01 -0.73376163414E+01  0.10439423782E+02  0.51100000000E-03 0.  1.
        -12    1    3    3    0    0  0.20190184458E+01  0.34442832599E+02  0.89216415348E+01  0.35636790548E+02  0.00000000000E+00 0.  1.
</event>
<event>
 7    1  0.3802554E-013  0.5930195E+02  0.7816164E-02  0.1266605E+00
        -11   -1    0    0    0    0  0.00000000000E+00  0.00000000000E+00  0.45593999997E+02  0.45594000000E+02  0.51100000000E-03 0. -1.
         11   -1    0    0    0    0 -0.00000000000E+00 -0.00000000000E+00 -0.45593999997E+02  0.45594000000E+02  0.51100000000E-03 0.  1.
    9900012    2    1    2    0    0  0.21064755943E+02  0.10974666657E+02  0.21273292568E+02  0.59301949322E+02  0.50000009655E+02 0.  0.
        -12    1    1    2    0    0 -0.21064755943E+02 -0.10974666657E+02 -0.21273292568E+02  0.31886050678E+02  0.00000000000E+00 0.  1.
         11    1    3    3    0    0  0.19105256997E+02  0.19108933562E+02  0.17870608579E+00  0.27022104339E+02  0.51100000000E-03 0. -1.
        -11    1    3    3    0    0 -0.66783715870E+01  0.40257278188E+01  0.20003849159E+01  0.80503833200E+01  0.51100000000E-03 0.  1.
        -12    1    3    3    0    0  0.86378705326E+01 -0.12159994723E+02  0.19094201566E+02  0.24229461663E+02  0.00000000000E+00 0.  1.
</event>
<event>
 7    1  0.3802554E-013  0.5930193E+02  0.7816164E-02  0.1266605E+00
        -11   -1    0    0    0    0  0.00000000000E+00  0.00000000000E+00  0.45593999997E+02  0.45594000000E+02  0.51100000000E-03 0.  1.
         11   -1    0    0    0    0 -0.00000000000E+00 -0.00000000000E+00 -0.45593999997E+02  0.45594000000E+02  0.51100000000E-03 0. -1.
    9900012    2    1    2    0    0  0.31679731164E+02 -0.33710724379E+01  0.13237141228E+01  0.59301926001E+02  0.49999967124E+02 0.  0.
        -12    1    1    2    0    0 -0.31679731164E+02  0.33710724379E+01 -0.13237141228E+01  0.31886073999E+02  0.00000000000E+00 0.  1.
         11    1    3    3    0    0  0.13323880932E+02 -0.40010154442E+01 -0.13806232978E+02  0.19599642777E+02  0.51100000000E-03 0. -1.
        -11    1    3    3    0    0  0.27421085242E+02 -0.11839488375E+01  0.11804006151E+02  0.29877285890E+02  0.51100000000E-03 0.  1.
         12    1    3    3    0    0 -0.90652350104E+01  0.18138918438E+01  0.33259409501E+01  0.98249973343E+01  0.00000000000E+00 0. -1.
</event>
<event>
 7    1  0.3802554E-013  0.5930204E+02  0.7816164E-02  0.1266604E+00
        -11   -1    0    0    0    0  0.00000000000E+00  0.00000000000E+00  0.45593999997E+02  0.45594000000E+02  0.51100000000E-03 0.  1.
         11   -1    0    0    0    0 -0.00000000000E+00 -0.00000000000E+00 -0.45593999997E+02  0.45594000000E+02  0.51100000000E-03 0. -1.
    9900012    2    1    2    0    0 -0.25469722696E+02  0.48128480144E+01  0.18569984451E+02  0.59302037528E+02  0.50000170523E+02 0.  0.
        -12    1    1    2    0    0  0.25469722696E+02 -0.48128480144E+01 -0.18569984451E+02  0.31885962472E+02  0.00000000000E+00 0.  1.
         11    1    3    3    0    0 -0.89400372148E+00  0.36238805358E+01  0.58930660384E+00  0.37787610835E+01  0.51100000000E-03 0. -1.
        -11    1    3    3    0    0 -0.49897593392E+01  0.20178804585E+01  0.31341106302E+02  0.31799913275E+02  0.51100000000E-03 0.  1.
         12    1    3    3    0    0 -0.19585959636E+02 -0.82891297986E+00 -0.13360428455E+02  0.23723363170E+02  0.00000000000E+00 0. -1.
</event>
<event>
 7    1  0.3802554E-013  0.5930194E+02  0.7816164E-02  0.1266605E+00
        -11   -1    0    0    0    0  0.00000000000E+00  0.00000000000E+00  0.45593999997E+02  0.45594000000E+02  0.51100000000E-03 0. -1.
         11   -1    0    0    0    0 -0.00000000000E+00 -0.00000000000E+00 -0.45593999997E+02  0.45594000000E+02  0.51100000000E-03 0.  1.
    9900012    2    1    2    0    0  0.23898692859E+02 -0.66853155262E+01  0.20021984353E+02  0.59301940013E+02  0.49999992678E+02 0.  0.
        -12    1    1    2    0    0 -0.23898692859E+02  0.66853155262E+01 -0.20021984353E+02  0.31886059987E+02  0.00000000000E+00 0.  1.
         11    1    3    3    0    0  0.56507070041E+01  0.30091477045E+01 -0.86604001172E+01  0.10769772050E+02  0.51100000000E-03 0. -1.
        -11    1    3    3    0    0  0.37472415083E+01 -0.13262502549E+02 -0.24553110683E+01  0.13998726567E+02  0.51100000000E-03 0.  1.
         12    1    3    3    0    0  0.14500744347E+02  0.35680393186E+01  0.31137695539E+02  0.34533441396E+02  0.00000000000E+00 0. -1.
</event>
<event>
 7    1  0.3802554E-013  0.5930197E+02  0.7816164E-02  0.1266605E+00
        -11   -1    0    0    0    0  0.00000000000E+00  0.00000000000E+00  0.45593999997E+02  0.45594000000E+02  0.51100000000E-03 0.  1.
         11   -1    0    0    0    0 -0.00000000000E+00 -0.00000000000E+00 -0.45593999997E+02  0.45594000000E+02  0.51100000000E-03 0. -1.
    9900012    2    1    2    0    0  0.12098564092E+02  0.24776187446E+02  0.16015124241E+02  0.59301969800E+02  0.50000047003E+02 0.  0.
        -12    1    1    2    0    0 -0.12098564092E+02 -0.24776187446E+02 -0.16015124241E+02  0.31886030200E+02  0.00000000000E+00 0.  1.
         11    1    3    3    0    0 -0.88077147389E+01  0.33474272506E+01 -0.94755189932E+01  0.13362880250E+02  0.51100000000E-03 0. -1.
        -11    1    3    3    0    0 -0.43154724063E+01 -0.70631380259E+00  0.49027585251E+01  0.65695679229E+01  0.51100000000E-03 0.  1.
         12    1    3    3    0    0  0.25221751237E+02  0.22135073998E+02  0.20587884709E+02  0.39369521627E+02  0.00000000000E+00 0. -1.
</event>
<event>
 7    1  0.3802554E-013  0.5930208E+02  0.7816164E-02  0.1266604E+00
        -11   -1    0    0    0    0  0.00000000000E+00  0.00000000000E+00  0.45593999997E+02  0.45594000000E+02  0.51100000000E-03 0. -1.
         11   -1    0    0    0    0 -0.00000000000E+00 -0.00000000000E+00 -0.45593999997E+02  0.45594000000E+02  0.51100000000E-03 0.  1.
    9900012    2    1    2    0    0  0.29859202309E+02  0.43480580532E+01  0.10307018385E+02  0.59302075215E+02  0.50000239254E+02 0.  0.
        -12    1    1    2    0    0 -0.29859202309E+02 -0.43480580532E+01 -0.10307018385E+02  0.31885924785E+02  0.00000000000E+00 0.  1.
         11    1    3    3    0    0  0.13172138406E+02 -0.11317871757E+02  0.68273654840E+01  0.18660449379E+02  0.51100000000E-03 0. -1.
        -11    1    3    3    0    0  0.22539171470E+01 -0.87667897726E+01  0.77855080521E+01  0.11939467380E+02  0.51100000000E-03 0.  1.
        -12    1    3    3    0    0  0.14433146756E+02  0.24432719583E+02 -0.43058551509E+01  0.28702158457E+02  0.00000000000E+00 0.  1.
</event>
<event>
 7    1  0.3802554E-013  0.5930193E+02  0.7816164E-02  0.1266605E+00
        -11   -1    0    0    0    0  0.00000000000E+00  0.00000000000E+00  0.45593999997E+02  0.45594000000E+02  0.51100000000E-03 0.  1.
         11   -1    0    0    0    0 -0.00000000000E+00 -0.00000000000E+00 -0.45593999997E+02  0.45594000000E+02  0.51100000000E-03 0. -1.
    9900012    2    1    2    0    0  0.17269091898E+02  0.10657871728E+02 -0.24594910965E+02  0.59301930783E+02  0.49999975845E+02 0.  0.
        -12    1    1    2    0    0 -0.17269091898E+02 -0.10657871728E+02  0.24594910965E+02  0.31886069217E+02  0.00000000000E+00 0.  1.
         11    1    3    3    0    0 -0.16445198748E+00 -0.59345618172E+01 -0.97548785084E+01  0.11419444969E+02  0.51100000000E-03 0. -1.
        -11    1    3    3    0    0 -0.70715156654E+01 -0.62997508285E+01  0.29526816215E+01  0.99202582288E+01  0.51100000000E-03 0.  1.
         12    1    3    3    0    0  0.24505059551E+02  0.22892184374E+02 -0.17792714078E+02  0.37962227585E+02  0.00000000000E+00 0. -1.
</event>
<event>
 7    1  0.3802554E-013  0.5930199E+02  0.7816164E-02  0.1266605E+00
        -11   -1    0    0    0    0  0.00000000000E+00  0.00000000000E+00  0.45593999997E+02  0.45594000000E+02  0.51100000000E-03 0.  1.
         11   -1    0    0    0    0 -0.00000000000E+00 -0.00000000000E+00 -0.45593999997E+02  0.45594000000E+02  0.51100000000E-03 0. -1.
    9900012    2    1    2    0    0  0.49270083400E+01 -0.77973550353E+01 -0.30522838094E+02  0.59301987360E+02  0.50000079028E+02 0.  0.
        -12    1    1    2    0    0 -0.49270083400E+01  0.77973550353E+01  0.30522838094E+02  0.31886012640E+02  0.00000000000E+00 0.  1.
         11    1    3    3    0    0  0.15133727861E+02  0.15910727217E+01 -0.15609174573E+02  0.21799256007E+02  0.51100000000E-03 0. -1.
        -11    1    3    3    0    0 -0.36117007836E+00  0.10351111647E+02 -0.10983319129E+02  0.15096663721E+02  0.51100000000E-03 0.  1.
        -12    1    3    3    0    0 -0.98455494426E+01 -0.19739539404E+02 -0.39303443924E+01  0.22406067632E+02  0.00000000000E+00 0.  1.
</event>
<event>
 7    1  0.3802554E-013  0.5930213E+02  0.7816164E-02  0.1266604E+00
        -11   -1    0    0    0    0  0.00000000000E+00  0.00000000000E+00  0.45593999997E+02  0.45594000000E+02  0.51100000000E-03 0. -1.
         11   -1    0    0    0    0 -0.00000000000E+00 -0.00000000000E+00 -0.45593999997E+02  0.45594000000E+02  0.51100000000E-03 0.  1.
    9900012    2    1    2    0    0 -0.63858821746E+01  0.19123497983E+02  0.24702651290E+02  0.59302130919E+02  0.50000340844E+02 0.  0.
        -12    1    1    2    0    0  0.63858821746E+01 -0.19123497983E+02 -0.24702651290E+02  0.31885869081E+02  0.00000000000E+00 0.  1.
         11    1    3    3    0    0  0.11704180544E+02  0.12064266364E+02  0.57072432319E+01  0.17751253215E+02  0.51100000000E-03 0. -1.
        -11    1    3    3    0    0 -0.15588645410E+02 -0.30946821782E+01 -0.39138497374E+01  0.16367685955E+02  0.51100000000E-03 0.  1.
         12    1    3    3    0    0 -0.25014173092E+01  0.10153913797E+02  0.22909257796E+02  0.25183191750E+02  0.00000000000E+00 0. -1.
</event>
<event>
 7    1  0.3802554E-013  0.5930194E+02  0.7816164E-02  0.1266605E+00
        -11   -1    0    0    0    0  0.00000000000E+00  0.00000000000E+00  0.45593999997E+02  0.45594000000E+02  0.51100000000E-03 0.  1.
         11   -1    0    0    0    0 -0.00000000000E+00 -0.00000000000E+00 -0.45593999997E+02  0.45594000000E+02  0.51100000000E-03 0. -1.
    9900012    2    1    2    0    0 -0.34307478147E+01  0.28685773083E+02 -0.13493589152E+02  0.59301944174E+02  0.50000000267E+02 0.  0.
        -12    1    1    2    0    0  0.34307478147E+01 -0.28685773083E+02  0.13493589152E+02  0.31886055826E+02  0.00000000000E+00 0.  1.
         11    1    3    3    0    0  0.21179477338E+01  0.16985065101E+01  0.60723364862E+00  0.27819705126E+01  0.51100000000E-03 0. -1.
        -11    1    3    3    0    0  0.16237833979E+02  0.15504086528E+02  0.75930295767E+01  0.23700169827E+02  0.51100000000E-03 0.  1.
        -12    1    3    3    0    0 -0.21786529527E+02  0.11483180044E+02 -0.21693852377E+02  0.32819803835E+02  0.00000000000E+00 0.  1.
</event>
<event>
 7    1  0.3802554E-013  0.5930219E+02  0.7816164E-02  0.1266604E+00
        -11   -1    0    0    0    0  0.00000000000E+00  0.00000000000E+00  0.45593999997E+02  0.45594000000E+02  0.51100000000E-03 0.  1.
         11   -1    0    0    0    0 -0.00000000000E+00 -0.00000000000E+00 -0.45593999997E+02  0.45594000000E+02  0.51100000000E-03 0. -1.
    9900012    2    1    2    0    0  0.22590257622E+02 -0.13706079403E+02 -0.17847360483E+02  0.59302193938E+02  0.50000455774E+02 0.  0.
        -12    1    1    2    0    0 -0.22590257622E+02  0.13706079403E+02  0.17847360483E+02  0.31885806062E+02  0.00000000000E+00 0.  1.
         11    1    3    3    0    0 -0.39780767541E+01  0.10826844820E+02 -0.83853233628E+01  0.14260410639E+02  0.51100000000E-03 0. -1.
        -11    1    3    3    0    0  0.20390494098E+01 -0.34360189232E+00  0.66833952528E+01  0.69959672043E+01  0.51100000000E-03 0.  1.
         12    1    3    3    0    0  0.24529284966E+02 -0.24189322331E+02 -0.16145432373E+02  0.38045816095E+02  0.00000000000E+00 0. -1.
</event>
<event>
 7    1  0.3802554E-013  0.5930194E+02  0.7816164E-02  0.1266605E+00
        -11   -1    0    0    0    0  0.00000000000E+00  0.00000000000E+00  0.45593999997E+02  0.45594000000E+02  0.51100000000E-03 0.  1.
         11   -1    0    0    0    0 -0.00000000000E+00 -0.00000000000E+00 -0.45593999997E+02  0.45594000000E+02  0.51100000000E-03 0. -1.
    9900012    2    1    2    0    0 -0.27906294405E+02  0.15421231382E+02 -0.38066481046E+00  0.59301944263E+02  0.50000000429E+02 0.  0.
        -12    1    1    2    0    0  0.27906294405E+02 -0.15421231382E+02  0.38066481046E+00  0.31886055737E+02  0.00000000000E+00 0.  1.
         11    1    3    3    0    0 -0.15872446876E+02 -0.76847747681E+01 -0.31098821833E+01  0.17907029361E+02  0.51100000000E-03 0. -1.
        -11    1    3    3    0    0 -0.73846737866E+01 -0.73718758890E+01 -0.99919856832E-01  0.10434938682E+02  0.51100000000E-03 0.  1.
        -12    1    3    3    0    0 -0.46491737424E+01  0.30477882039E+02  0.28291372296E+01  0.30959976220E+02  0.00000000000E+00 0.  1.
</event>
<event>
 7    1  0.3802554E-013  0.5930194E+02  0.7816164E-02  0.1266605E+00
        -11   -1    0    0    0    0  0.00000000000E+00  0.00000000000E+00  0.45593999997E+02  0.45594000000E+02  0.51100000000E-03 0.  1.
         11   -1    0    0    0    0 -0.00000000000E+00 -0.00000000000E+00 -0.45593999997E+02  0.45594000000E+02  0.51100000000E-03 0. -1.
    9900012    2    1    2    0    0 -0.21174757756E+02 -0.23810225010E+02 -0.11932529637E+01  0.59301936685E+02  0.49999986609E+02 0.  0.
        -12    1    1    2    0    0  0.21174757756E+02  0.23810225010E+02  0.11932529637E+01  0.31886063315E+02  0.00000000000E+00 0.  1.
         11    1    3    3    0    0  0.95103574118E+01 -0.10439113766E+01  0.68034818369E+01  0.11739847292E+02  0.51100000000E-03 0.  1.
        -11    1    3    3    0    0  0.49788084634E+01 -0.29106154208E+01 -0.28096223976E+01  0.64151534760E+01  0.51100000000E-03 0. -1.
         12    1    3    3    0    0 -0.35663923632E+02 -0.19855698213E+02 -0.51871124030E+01  0.41146935918E+02  0.00000000000E+00 0. -1.
</event>
<event>
 7    1  0.3802554E-013  0.5930193E+02  0.7816164E-02  0.1266605E+00
        -11   -1    0    0    0    0  0.00000000000E+00  0.00000000000E+00  0.45593999997E+02  0.45594000000E+02  0.51100000000E-03 0.  1.
         11   -1    0    0    0    0 -0.00000000000E+00 -0.00000000000E+00 -0.45593999997E+02  0.45594000000E+02  0.51100000000E-03 0. -1.
    9900012    2    1    2    0    0  0.23436834627E+02  0.11965991824E+02 -0.18006978886E+02  0.59301929903E+02  0.49999974239E+02 0.  0.
        -12    1    1    2    0    0 -0.23436834627E+02 -0.11965991824E+02  0.18006978886E+02  0.31886070097E+02  0.00000000000E+00 0.  1.
         11    1    3    3    0    0  0.25551739608E+02  0.10496914339E+02 -0.23248731109E+02  0.36105125759E+02  0.51100000000E-03 0. -1.
        -11    1    3    3    0    0 -0.26599873365E+01 -0.41371007917E+01 -0.76690949024E+01  0.91107712338E+01  0.51100000000E-03 0.  1.
        -12    1    3    3    0    0  0.54508235453E+00  0.56061782770E+01  0.12910847125E+02  0.14086032910E+02  0.00000000000E+00 0.  1.
</event>
<event>
 7    1  0.3802554E-013  0.5930194E+02  0.7816164E-02  0.1266605E+00
        -11   -1    0    0    0    0  0.00000000000E+00  0.00000000000E+00  0.45593999997E+02  0.45594000000E+02  0.51100000000E-03 0. -1.
         11   -1    0    0    0    0 -0.00000000000E+00 -0.00000000000E+00 -0.45593999997E+02  0.45594000000E+02  0.51100000000E-03 0.  1.
    9900012    2    1    2    0    0 -0.29634832167E+02 -0.25555660549E+01  0.11487668736E+02  0.59301941473E+02  0.49999995340E+02 0.  0.
        -12    1    1    2    0    0  0.29634832167E+02  0.25555660549E+01 -0.11487668736E+02  0.31886058527E+02  0.00000000000E+00 0.  1.
         11    1    3    3    0    0 -0.25024139982E+01  0.16215568397E+02  0.11661349762E+02  0.20129426539E+02  0.51100000000E-03 0. -1.
        -11    1    3    3    0    0 -0.64340999319E+01  0.41058091723E+01  0.29088903771E+01  0.81680447097E+01  0.51100000000E-03 0.  1.
        -12    1    3    3    0    0 -0.20698318237E+02 -0.22876943624E+02 -0.30825714025E+01  0.31004470224E+02  0.00000000000E+00 0.  1.
</event>
<event>
 7    1  0.3802554E-013  0.5930202E+02  0.7816164E-02  0.1266604E+00
        -11   -1    0    0    0    0  0.00000000000E+00  0.00000000000E+00  0.45593999997E+02  0.45594000000E+02  0.51100000000E-03 0. -1.
         11   -1    0    0    0    0 -0.00000000000E+00 -0.00000000000E+00 -0.45593999997E+02  0.45594000000E+02  0.51100000000E-03 0.  1.
    9900012    2    1    2    0    0 -0.11444075468E+02  0.11311734861E+01  0.29740024618E+02  0.59302023756E+02  0.50000145405E+02 0.  0.
        -12    1    1    2    0    0  0.11444075468E+02 -0.11311734861E+01 -0.29740024618E+02  0.31885976244E+02  0.00000000000E+00 0.  1.
         11    1    3    3    0    0 -0.12057091497E+01 -0.57242791042E+01  0.22945935214E+02  0.23679887012E+02  0.51100000000E-03 0. -1.
        -11    1    3    3    0    0  0.10458508090E+01 -0.73426095693E+01  0.14209457571E+02  0.16028612040E+02  0.51100000000E-03 0.  1.
        -12    1    3    3    0    0 -0.11284217127E+02  0.14198062160E+02 -0.74153681670E+01  0.19593524704E+02  0.00000000000E+00 0.  1.
</event>
<event>
 7    1  0.3802554E-013  0.5930195E+02  0.7816164E-02  0.1266605E+00
        -11   -1    0    0    0    0  0.00000000000E+00  0.00000000000E+00  0.45593999997E+02  0.45594000000E+02  0.51100000000E-03 0.  1.
         11   -1    0    0    0    0 -0.00000000000E+00 -0.00000000000E+00 -0.45593999997E+02  0.45594000000E+02  0.51100000000E-03 0. -1.
    9900012    2    1    2    0    0  0.20488367334E+01 -0.28434851387E+02 -0.14282211470E+02  0.59301951800E+02  0.50000014175E+02 0.  0.
        -12    1    1    2    0    0 -0.20488367334E+01  0.28434851387E+02  0.14282211470E+02  0.31886048200E+02  0.00000000000E+00 0.  1.
         11    1    3    3    0    0 -0.85733202852E+01 -0.43107297438E+01 -0.80138145941E+00  0.96294560667E+01  0.51100000000E-03 0.  1.
        -11    1    3    3    0    0  0.13194191673E+02 -0.16129184365E+01 -0.21802464557E+02  0.25534988953E+02  0.51100000000E-03 0. -1.
         12    1    3    3    0    0 -0.25720346541E+01 -0.22511203206E+02  0.83216345466E+01  0.24137506781E+02  0.00000000000E+00 0. -1.
</event>
<event>
 7    1  0.3802554E-013  0.5930199E+02  0.7816164E-02  0.1266605E+00
        -11   -1    0    0    0    0  0.00000000000E+00  0.00000000000E+00  0.45593999997E+02  0.45594000000E+02  0.51100000000E-03 0.  1.
         11   -1    0    0    0    0 -0.00000000000E+00 -0.00000000000E+00 -0.45593999997E+02  0.45594000000E+02  0.51100000000E-03 0. -1.
    9900012    2    1    2    0    0  0.16999105540E+02 -0.29149167356E+01 -0.26818861320E+02  0.59301989726E+02  0.50000083342E+02 0.  0.
        -12    1    1    2    0    0 -0.16999105540E+02  0.29149167356E+01  0.26818861320E+02  0.31886010274E+02  0.00000000000E+00 0.  1.
         11    1    3    3    0    0 -0.13654647867E+01  0.11835501929E+02 -0.28727963742E+01  0.12255470585E+02  0.51100000000E-03 0. -1.
        -11    1    3    3    0    0 -0.47752694563E+01  0.42962850361E+01  0.26769168140E+01  0.69589616598E+01  0.51100000000E-03 0.  1.
         12    1    3    3    0    0  0.23139839783E+02 -0.19046703700E+02 -0.26622981759E+02  0.40087557481E+02  0.00000000000E+00 0. -1.
</event>
