<event>
 7    1  0.2490895E-015  0.9000791E+02  0.7816164E-02  0.1186339E+00
        -11   -1    0    0    0    0  0.00000000000E+00  0.00000000000E+00  0.45593999997E+02  0.45594000000E+02  0.51100000000E-03 0. -1.
         11   -1    0    0    0    0 -0.00000000000E+00 -0.00000000000E+00 -0.45593999997E+02  0.45594000000E+02  0.51100000000E-03 0.  1.
    9900012    2    1    2    0    0  0.35152183085E+00 -0.10993159460E+01  0.24604599433E+00  0.90007914504E+02  0.90000178175E+02 0.  0.
         12    1    1    2    0    0 -0.35152183085E+00  0.10993159460E+01 -0.24604599433E+00  0.11800854960E+01  0.00000000000E+00 0. -1.
         11    1    3    3    0    0  0.19367047050E+01  0.13182828337E+01 -0.77358542036E+01  0.80828296571E+01  0.51100000000E-03 0. -1.
        -11    1    3    3    0    0  0.12439195326E+02  0.68740036012E+01 -0.33917355457E+02  0.36774617705E+02  0.51100000000E-03 0.  1.
         12    1    3    3    0    0 -0.14024378200E+02 -0.92916023810E+01  0.41899255655E+02  0.45150467142E+02  0.00000000000E+00 0. -1.
</event>
<event>
 7    1  0.2490895E-015  0.9000756E+02  0.7816164E-02  0.1186339E+00
        -11   -1    0    0    0    0  0.00000000000E+00  0.00000000000E+00  0.45593999997E+02  0.45594000000E+02  0.51100000000E-03 0.  1.
         11   -1    0    0    0    0 -0.00000000000E+00 -0.00000000000E+00 -0.45593999997E+02  0.45594000000E+02  0.51100000000E-03 0. -1.
    9900012    2    1    2    0    0 -0.81655137000E+00  0.65835071662E+00  0.54152678438E+00  0.90007562342E+02  0.89999821365E+02 0.  0.
         12    1    1    2    0    0  0.81655137000E+00 -0.65835071662E+00 -0.54152678438E+00  0.11804376579E+01  0.00000000000E+00 0. -1.
         11    1    3    3    0    0  0.69209405410E+00  0.59696639138E+01 -0.75574008452E+01  0.96555781401E+01  0.51100000000E-03 0. -1.
        -11    1    3    3    0    0  0.94813822534E+01  0.35932487703E+02  0.17911422511E+01  0.37205489820E+02  0.51100000000E-03 0.  1.
         12    1    3    3    0    0 -0.10990027677E+02 -0.41243800900E+02  0.63077853784E+01  0.43146494382E+02  0.00000000000E+00 0. -1.
</event>
<event>
 7    1  0.2490895E-015  0.9000774E+02  0.7816164E-02  0.1186339E+00
        -11   -1    0    0    0    0  0.00000000000E+00  0.00000000000E+00  0.45593999997E+02  0.45594000000E+02  0.51100000000E-03 0.  1.
         11   -1    0    0    0    0 -0.00000000000E+00 -0.00000000000E+00 -0.45593999997E+02  0.45594000000E+02  0.51100000000E-03 0. -1.
    9900012    2    1    2    0    0  0.10395809043E+01 -0.53208549979E+00 -0.17076918150E+00  0.90007743439E+02  0.90000004853E+02 0.  0.
         12    1    1    2    0    0 -0.10395809043E+01  0.53208549979E+00  0.17076918150E+00  0.11802565607E+01  0.00000000000E+00 0. -1.
         11    1    3    3    0    0  0.20491481536E+02  0.12894055871E+02 -0.27504298061E+02  0.36642105623E+02  0.51100000000E-03 0. -1.
        -11    1    3    3    0    0  0.73085964150E+01  0.46486361796E+01 -0.28946157934E+01  0.91325900346E+01  0.51100000000E-03 0.  1.
        -12    1    3    3    0    0 -0.26760497047E+02 -0.18074777551E+02  0.30228144673E+02  0.44233047782E+02  0.00000000000E+00 0.  1.
</event>
<event>
 7    1  0.2490895E-015  0.9000839E+02  0.7816164E-02  0.1186338E+00
        -11   -1    0    0    0    0  0.00000000000E+00  0.00000000000E+00  0.45593999997E+02  0.45594000000E+02  0.51100000000E-03 0.  1.
         11   -1    0    0    0    0 -0.00000000000E+00 -0.00000000000E+00 -0.45593999997E+02  0.45594000000E+02  0.51100000000E-03 0. -1.
    9900012    2    1    2    0    0  0.51572901975E+00  0.44301902974E+00  0.96396942558E+00  0.90008390176E+02  0.90000660124E+02 0.  0.
         12    1    1    2    0    0 -0.51572901975E+00 -0.44301902974E+00 -0.96396942558E+00  0.11796098236E+01  0.00000000000E+00 0. -1.
         11    1    3    3    0    0  0.95934502395E+01 -0.16909786682E+01 -0.18467567703E+00  0.97430899472E+01  0.51100000000E-03 0. -1.
        -11    1    3    3    0    0 -0.17349401956E+02  0.38884181387E+02  0.11886496595E+01  0.42595706340E+02  0.51100000000E-03 0.  1.
         12    1    3    3    0    0  0.82716807358E+01 -0.36750183689E+02 -0.40004556900E-01  0.37669593889E+02  0.00000000000E+00 0. -1.
</event>
<event>
 7    1  0.2490895E-015  0.9000774E+02  0.7816164E-02  0.1186339E+00
        -11   -1    0    0    0    0  0.00000000000E+00  0.00000000000E+00  0.45593999997E+02  0.45594000000E+02  0.51100000000E-03 0.  1.
         11   -1    0    0    0    0 -0.00000000000E+00 -0.00000000000E+00 -0.45593999997E+02  0.45594000000E+02  0.51100000000E-03 0. -1.
    9900012    2    1    2    0    0  0.90408940010E+00  0.35715393446E+00  0.66938010627E+00  0.90007743120E+02  0.90000004529E+02 0.  0.
         12    1    1    2    0    0 -0.90408940010E+00 -0.35715393446E+00 -0.66938010627E+00  0.11802568801E+01  0.00000000000E+00 0. -1.
         11    1    3    3    0    0 -0.34499934179E+01  0.93408044089E+01  0.38796228243E+01  0.10686653129E+02  0.51100000000E-03 0. -1.
        -11    1    3    3    0    0 -0.24395458064E+02  0.21746236145E+02  0.11646274652E+02  0.34693989021E+02  0.51100000000E-03 0.  1.
         12    1    3    3    0    0  0.28749540882E+02 -0.30729886620E+02 -0.14856517370E+02  0.44627100970E+02  0.00000000000E+00 0. -1.
</event>
<event>
 7    1  0.2490895E-015  0.9000771E+02  0.7816164E-02  0.1186339E+00
        -11   -1    0    0    0    0  0.00000000000E+00  0.00000000000E+00  0.45593999997E+02  0.45594000000E+02  0.51100000000E-03 0. -1.
         11   -1    0    0    0    0 -0.00000000000E+00 -0.00000000000E+00 -0.45593999997E+02  0.45594000000E+02  0.51100000000E-03 0.  1.
    9900012    2    1    2    0    0 -0.88643012796E+00  0.61649478592E+00  0.47672160931E+00  0.90007708644E+02  0.89999969598E+02 0.  0.
         12    1    1    2    0    0  0.88643012796E+00 -0.61649478592E+00 -0.47672160931E+00  0.11802913562E+01  0.00000000000E+00 0. -1.
         11    1    3    3    0    0  0.62785881460E+01 -0.10458499923E+01  0.41379428246E+01  0.75919063741E+01  0.51100000000E-03 0. -1.
        -11    1    3    3    0    0  0.13871261772E+02 -0.34963688704E+02 -0.11757481114E+02  0.39409513995E+02  0.51100000000E-03 0.  1.
         12    1    3    3    0    0 -0.21036280046E+02  0.36626033482E+02  0.80962598985E+01  0.43006288274E+02  0.00000000000E+00 0. -1.
</event>
<event>
 7    1  0.2490895E-015  0.9000781E+02  0.7816164E-02  0.1186339E+00
        -11   -1    0    0    0    0  0.00000000000E+00  0.00000000000E+00  0.45593999997E+02  0.45594000000E+02  0.51100000000E-03 0.  1.
         11   -1    0    0    0    0 -0.00000000000E+00 -0.00000000000E+00 -0.45593999997E+02  0.45594000000E+02  0.51100000000E-03 0. -1.
    9900012    2    1    2    0    0 -0.60441798261E+00 -0.10161726210E+00  0.10085617871E+01  0.90007811861E+02  0.90000074177E+02 0.  0.
         12    1    1    2    0    0  0.60441798261E+00  0.10161726210E+00 -0.10085617871E+01  0.11801881393E+01  0.00000000000E+00 0. -1.
         11    1    3    3    0    0  0.12305913437E+02  0.29989593292E+01  0.10032477760E+02  0.16157966235E+02  0.51100000000E-03 0. -1.
        -11    1    3    3    0    0  0.11705149112E+02  0.29793973855E+02 -0.12453090288E+01  0.32035015041E+02  0.51100000000E-03 0.  1.
         12    1    3    3    0    0 -0.24615480532E+02 -0.32894550446E+02 -0.77786069440E+01  0.41814830585E+02  0.00000000000E+00 0. -1.
</event>
<event>
 7    1  0.2490895E-015  0.9000785E+02  0.7816164E-02  0.1186339E+00
        -11   -1    0    0    0    0  0.00000000000E+00  0.00000000000E+00  0.45593999997E+02  0.45594000000E+02  0.51100000000E-03 0. -1.
         11   -1    0    0    0    0 -0.00000000000E+00 -0.00000000000E+00 -0.45593999997E+02  0.45594000000E+02  0.51100000000E-03 0.  1.
    9900012    2    1    2    0    0 -0.10671982855E+01  0.84553384230E-01 -0.49667756052E+00  0.90007851681E+02  0.90000114523E+02 0.  0.
         12    1    1    2    0    0  0.10671982855E+01 -0.84553384230E-01  0.49667756052E+00  0.11801483188E+01  0.00000000000E+00 0. -1.
         11    1    3    3    0    0  0.89244008360E+01 -0.29092680568E+01  0.24206235862E+01  0.96937190859E+01  0.51100000000E-03 0. -1.
        -11    1    3    3    0    0  0.29126931481E+02 -0.10198477010E+02  0.16160491864E+02  0.34836024004E+02  0.51100000000E-03 0.  1.
         12    1    3    3    0    0 -0.39118530602E+02  0.13192298451E+02 -0.19077793011E+02  0.45478108592E+02  0.00000000000E+00 0. -1.
</event>
<event>
 7    1  0.2490895E-015  0.9000780E+02  0.7816164E-02  0.1186339E+00
        -11   -1    0    0    0    0  0.00000000000E+00  0.00000000000E+00  0.45593999997E+02  0.45594000000E+02  0.51100000000E-03 0.  1.
         11   -1    0    0    0    0 -0.00000000000E+00 -0.00000000000E+00 -0.45593999997E+02  0.45594000000E+02  0.51100000000E-03 0. -1.
    9900012    2    1    2    0    0 -0.29022377856E+00 -0.86838191932E+00  0.74468096528E+00  0.90007802246E+02  0.90000064435E+02 0.  0.
         12    1    1    2    0    0  0.29022377856E+00  0.86838191932E+00 -0.74468096528E+00  0.11801977544E+01  0.00000000000E+00 0. -1.
         11    1    3    3    0    0 -0.20128619440E+02 -0.18334733619E+02 -0.24410566790E+02  0.36567739180E+02  0.51100000000E-03 0. -1.
        -11    1    3    3    0    0 -0.65844507158E+01 -0.54469863230E+00 -0.59047701312E+01  0.88610382232E+01  0.51100000000E-03 0.  1.
        -12    1    3    3    0    0  0.26422846378E+02  0.18011050332E+02  0.31060017887E+02  0.44579024842E+02  0.00000000000E+00 0.  1.
</event>
<event>
 7    1  0.2490895E-015  0.9000775E+02  0.7816164E-02  0.1186339E+00
        -11   -1    0    0    0    0  0.00000000000E+00  0.00000000000E+00  0.45593999997E+02  0.45594000000E+02  0.51100000000E-03 0.  1.
         11   -1    0    0    0    0 -0.00000000000E+00 -0.00000000000E+00 -0.45593999997E+02  0.45594000000E+02  0.51100000000E-03 0. -1.
    9900012    2    1    2    0    0 -0.52477237048E+00 -0.62275046856E+00  0.85426987499E+00  0.90007753752E+02  0.90000015301E+02 0.  0.
         12    1    1    2    0    0  0.52477237048E+00  0.62275046856E+00 -0.85426987499E+00  0.11802462481E+01  0.00000000000E+00 0. -1.
         11    1    3    3    0    0 -0.62715275456E+01 -0.14990371617E+01 -0.44382101500E+01  0.78279550180E+01  0.51100000000E-03 0. -1.
        -11    1    3    3    0    0  0.65876672103E+00  0.34813566246E+02  0.24760280517E+02  0.42725751718E+02  0.51100000000E-03 0.  1.
         12    1    3    3    0    0  0.50879884541E+01 -0.33937279553E+02 -0.19467800492E+02  0.39454047016E+02  0.00000000000E+00 0. -1.
</event>
<event>
 7    1  0.2490895E-015  0.9000767E+02  0.7816164E-02  0.1186339E+00
        -11   -1    0    0    0    0  0.00000000000E+00  0.00000000000E+00  0.45593999997E+02  0.45594000000E+02  0.51100000000E-03 0. -1.
         11   -1    0    0    0    0 -0.00000000000E+00 -0.00000000000E+00 -0.45593999997E+02  0.45594000000E+02  0.51100000000E-03 0.  1.
    9900012    2    1    2    0    0 -0.89250070619E+00  0.49459815688E+00 -0.59328770990E+00  0.90007671591E+02  0.89999932056E+02 0.  0.
         12    1    1    2    0    0  0.89250070619E+00 -0.49459815688E+00  0.59328770990E+00  0.11803284094E+01  0.00000000000E+00 0. -1.
         11    1    3    3    0    0 -0.69466544709E+01 -0.60554544835E+01  0.34792748067E+01  0.98503751594E+01  0.51100000000E-03 0. -1.
        -11    1    3    3    0    0 -0.30360559715E+02  0.22298546813E+02  0.83497044103E+01  0.38583757466E+02  0.51100000000E-03 0.  1.
         12    1    3    3    0    0  0.36414713480E+02 -0.15748494172E+02 -0.12422266927E+02  0.41573538965E+02  0.00000000000E+00 0. -1.
</event>
<event>
 7    1  0.2490895E-015  0.9000756E+02  0.7816164E-02  0.1186339E+00
        -11   -1    0    0    0    0  0.00000000000E+00  0.00000000000E+00  0.45593999997E+02  0.45594000000E+02  0.51100000000E-03 0. -1.
         11   -1    0    0    0    0 -0.00000000000E+00 -0.00000000000E+00 -0.45593999997E+02  0.45594000000E+02  0.51100000000E-03 0.  1.
    9900012    2    1    2    0    0 -0.32342290924E+00  0.10143990516E+01  0.50973396962E+00  0.90007560872E+02  0.89999819876E+02 0.  0.
         12    1    1    2    0    0  0.32342290924E+00 -0.10143990516E+01 -0.50973396962E+00  0.11804391275E+01  0.00000000000E+00 0. -1.
         11    1    3    3    0    0 -0.14281126417E+02  0.38279268632E+01  0.36379132219E+01  0.15226227658E+02  0.51100000000E-03 0. -1.
        -11    1    3    3    0    0 -0.24002298520E+02  0.92013292551E+01 -0.18951398238E+02  0.31936347471E+02  0.51100000000E-03 0.  1.
         12    1    3    3    0    0  0.37960002028E+02 -0.12014857067E+02  0.15823218986E+02  0.42844985744E+02  0.00000000000E+00 0. -1.
</event>
<event>
 7    1  0.3670893E-015  0.9000774E+02  0.7816164E-02  0.1186339E+00
        -11   -1    0    0    0    0  0.00000000000E+00  0.00000000000E+00  0.45593999997E+02  0.45594000000E+02  0.51100000000E-03 0. -1.
         11   -1    0    0    0    0 -0.00000000000E+00 -0.00000000000E+00 -0.45593999997E+02  0.45594000000E+02  0.51100000000E-03 0.  1.
    9900012    2    1    2    0    0  0.91598917439E+00 -0.41969969410E-01 -0.74310674055E+00  0.90007743556E+02  0.90000004971E+02 0.  0.
         12    1    1    2    0    0 -0.91598917439E+00  0.41969969410E-01  0.74310674055E+00  0.11802564441E+01  0.00000000000E+00 0. -1.
         11    1    3    3    0    0 -0.55275488661E+01  0.12296444832E+02  0.35239106010E+02  0.37729974087E+02  0.51100000000E-03 0. -1.
        -11    1    3    3    0    0  0.73427581968E+01  0.75946095701E+01  0.62872449015E+00  0.10582508550E+02  0.51100000000E-03 0.  1.
        -12    1    3    3    0    0 -0.89922015630E+00 -0.19933024372E+02 -0.36610937240E+02  0.41695260919E+02  0.00000000000E+00 0.  1.
</event>
<event>
 7    1  0.2490895E-015  0.9000778E+02  0.7816164E-02  0.1186339E+00
        -11   -1    0    0    0    0  0.00000000000E+00  0.00000000000E+00  0.45593999997E+02  0.45594000000E+02  0.51100000000E-03 0. -1.
         11   -1    0    0    0    0 -0.00000000000E+00 -0.00000000000E+00 -0.45593999997E+02  0.45594000000E+02  0.51100000000E-03 0.  1.
    9900012    2    1    2    0    0  0.74121864683E+00 -0.86951881434E+00 -0.29572398825E+00  0.90007779373E+02  0.90000041261E+02 0.  0.
         12    1    1    2    0    0 -0.74121864683E+00  0.86951881434E+00  0.29572398825E+00  0.11802206269E+01  0.00000000000E+00 0. -1.
         11    1    3    3    0    0 -0.96271873953E+01  0.40229246750E+01 -0.32668182229E+01  0.10933378327E+02  0.51100000000E-03 0. -1.
        -11    1    3    3    0    0 -0.29510332358E+02  0.16447199502E+02  0.82835158865E+00  0.33794322806E+02  0.51100000000E-03 0.  1.
         12    1    3    3    0    0  0.39878738400E+02 -0.21339642991E+02  0.21427426460E+01  0.45280078240E+02  0.00000000000E+00 0. -1.
</event>
<event>
 7    1  0.2490895E-015  0.9000773E+02  0.7816164E-02  0.1186339E+00
        -11   -1    0    0    0    0  0.00000000000E+00  0.00000000000E+00  0.45593999997E+02  0.45594000000E+02  0.51100000000E-03 0.  1.
         11   -1    0    0    0    0 -0.00000000000E+00 -0.00000000000E+00 -0.45593999997E+02  0.45594000000E+02  0.51100000000E-03 0. -1.
    9900012    2    1    2    0    0  0.53209035895E+00  0.10329380017E+01  0.20724194734E+00  0.90007732958E+02  0.89999994233E+02 0.  0.
         12    1    1    2    0    0 -0.53209035895E+00 -0.10329380017E+01 -0.20724194734E+00  0.11802670419E+01  0.00000000000E+00 0. -1.
         11    1    3    3    0    0  0.51163792411E+01 -0.11288809200E+02 -0.35670836949E+02  0.37762721812E+02  0.51100000000E-03 0. -1.
        -11    1    3    3    0    0 -0.62035652895E+01 -0.60048086657E+01 -0.30755491187E+01  0.91652033287E+01  0.51100000000E-03 0.  1.
        -12    1    3    3    0    0  0.16192764074E+01  0.18326555867E+02  0.38953628016E+02  0.43079807818E+02  0.00000000000E+00 0.  1.
</event>
<event>
 7    1  0.2490895E-015  0.9000772E+02  0.7816164E-02  0.1186339E+00
        -11   -1    0    0    0    0  0.00000000000E+00  0.00000000000E+00  0.45593999997E+02  0.45594000000E+02  0.51100000000E-03 0. -1.
         11   -1    0    0    0    0 -0.00000000000E+00 -0.00000000000E+00 -0.45593999997E+02  0.45594000000E+02  0.51100000000E-03 0.  1.
    9900012    2    1    2    0    0 -0.89246450072E+00  0.46940570111E+00 -0.61336961572E+00  0.90007721693E+02  0.89999982819E+02 0.  0.
         12    1    1    2    0    0  0.89246450072E+00 -0.46940570111E+00  0.61336961572E+00  0.11802783073E+01  0.00000000000E+00 0. -1.
         11    1    3    3    0    0  0.79937179602E+01 -0.11067901677E+01  0.59201432575E+01  0.10008626667E+02  0.51100000000E-03 0. -1.
        -11    1    3    3    0    0 -0.33193661596E+02  0.26266862623E+02  0.68040840870E+01  0.42872634660E+02  0.51100000000E-03 0.  1.
         12    1    3    3    0    0  0.24307479135E+02 -0.24690666754E+02 -0.13337596960E+02  0.37126460366E+02  0.00000000000E+00 0. -1.
</event>
<event>
 7    1  0.2490895E-015  0.9000771E+02  0.7816164E-02  0.1186339E+00
        -11   -1    0    0    0    0  0.00000000000E+00  0.00000000000E+00  0.45593999997E+02  0.45594000000E+02  0.51100000000E-03 0.  1.
         11   -1    0    0    0    0 -0.00000000000E+00 -0.00000000000E+00 -0.45593999997E+02  0.45594000000E+02  0.51100000000E-03 0. -1.
    9900012    2    1    2    0    0 -0.13817058037E+00  0.42187407154E+00  0.10936237117E+01  0.90007711195E+02  0.89999972182E+02 0.  0.
         12    1    1    2    0    0  0.13817058037E+00 -0.42187407154E+00 -0.10936237117E+01  0.11802888054E+01  0.00000000000E+00 0. -1.
         11    1    3    3    0    0  0.12019587205E+02  0.18143004101E+02  0.23067869766E+02  0.31713809140E+02  0.51100000000E-03 0. -1.
        -11    1    3    3    0    0  0.12587069747E+02  0.10545480622E+02 -0.70666956121E+01  0.17876791476E+02  0.51100000000E-03 0.  1.
        -12    1    3    3    0    0 -0.24744827531E+02 -0.28266610651E+02 -0.14907550443E+02  0.40417110578E+02  0.00000000000E+00 0.  1.
</event>
<event>
 7    1  0.2490895E-015  0.9000754E+02  0.7816164E-02  0.1186339E+00
        -11   -1    0    0    0    0  0.00000000000E+00  0.00000000000E+00  0.45593999997E+02  0.45594000000E+02  0.51100000000E-03 0. -1.
         11   -1    0    0    0    0 -0.00000000000E+00 -0.00000000000E+00 -0.45593999997E+02  0.45594000000E+02  0.51100000000E-03 0.  1.
    9900012    2    1    2    0    0 -0.61021502760E+00 -0.63305262908E+00 -0.78764127618E+00  0.90007535350E+02  0.89999794016E+02 0.  0.
         12    1    1    2    0    0  0.61021502760E+00  0.63305262908E+00  0.78764127618E+00  0.11804646505E+01  0.00000000000E+00 0. -1.
         11    1    3    3    0    0  0.49372085797E+01  0.70988947808E+00  0.81872882216E+01  0.95870569162E+01  0.51100000000E-03 0. -1.
        -11    1    3    3    0    0  0.30728954541E-02  0.38244655795E+02  0.38519883904E+01  0.38438151895E+02  0.51100000000E-03 0.  1.
         12    1    3    3    0    0 -0.55504965028E+01 -0.39587597902E+02 -0.12826917888E+02  0.41982326538E+02  0.00000000000E+00 0. -1.
</event>
<event>
 7    1  0.2490895E-015  0.9000775E+02  0.7816164E-02  0.1186339E+00
        -11   -1    0    0    0    0  0.00000000000E+00  0.00000000000E+00  0.45593999997E+02  0.45594000000E+02  0.51100000000E-03 0.  1.
         11   -1    0    0    0    0 -0.00000000000E+00 -0.00000000000E+00 -0.45593999997E+02  0.45594000000E+02  0.51100000000E-03 0. -1.
    9900012    2    1    2    0    0  0.91539641162E+00 -0.49002630745E-01  0.74339517649E+00  0.90007750773E+02  0.90000012284E+02 0.  0.
         12    1    1    2    0    0 -0.91539641162E+00  0.49002630745E-01 -0.74339517649E+00  0.11802492265E+01  0.00000000000E+00 0. -1.
         11    1    3    3    0    0  0.35420714970E+02  0.75043724275E+01 -0.16701952156E+02  0.39873523303E+02  0.51100000000E-03 0. -1.
        -11    1    3    3    0    0 -0.32682845696E+01  0.22568476808E+01 -0.78248286285E+01  0.87751346889E+01  0.51100000000E-03 0.  1.
        -12    1    3    3    0    0 -0.31237033989E+02 -0.98102227390E+01  0.25270175961E+02  0.41359092781E+02  0.00000000000E+00 0.  1.
</event>
<event>
 7    1  0.2490895E-015  0.9000742E+02  0.7816164E-02  0.1186340E+00
        -11   -1    0    0    0    0  0.00000000000E+00  0.00000000000E+00  0.45593999997E+02  0.45594000000E+02  0.51100000000E-03 0.  1.
         11   -1    0    0    0    0 -0.00000000000E+00 -0.00000000000E+00 -0.45593999997E+02  0.45594000000E+02  0.51100000000E-03 0. -1.
    9900012    2    1    2    0    0 -0.45915061097E+00  0.10679362614E+01  0.20605142790E+00  0.90007422034E+02  0.89999679205E+02 0.  0.
         12    1    1    2    0    0  0.45915061097E+00 -0.10679362614E+01 -0.20605142790E+00  0.11805779656E+01  0.00000000000E+00 0. -1.
         11    1    3    3    0    0 -0.28153506653E+02  0.99660163982E+01 -0.21410831844E+02  0.36747314735E+02  0.51100000000E-03 0. -1.
        -11    1    3    3    0    0 -0.29682364947E+01 -0.91027599592E+01 -0.65684410874E+01  0.11610989852E+02  0.51100000000E-03 0.  1.
        -12    1    3    3    0    0  0.30662592537E+02  0.20467982235E+00  0.28185324359E+02  0.41649117447E+02  0.00000000000E+00 0.  1.
</event>
<event>
 7    1  0.2490895E-015  0.9000778E+02  0.7816164E-02  0.1186339E+00
        -11   -1    0    0    0    0  0.00000000000E+00  0.00000000000E+00  0.45593999997E+02  0.45594000000E+02  0.51100000000E-03 0.  1.
         11   -1    0    0    0    0 -0.00000000000E+00 -0.00000000000E+00 -0.45593999997E+02  0.45594000000E+02  0.51100000000E-03 0. -1.
    9900012    2    1    2    0    0  0.75773209582E-01  0.32655757113E+00  0.11316076926E+01  0.90007780785E+02  0.90000042691E+02 0.  0.
         12    1    1    2    0    0 -0.75773209582E-01 -0.32655757113E+00 -0.11316076926E+01  0.11802192154E+01  0.00000000000E+00 0. -1.
         11    1    3    3    0    0  0.47893381322E+01 -0.46273342093E+01 -0.68147282354E+01  0.95284050508E+01  0.51100000000E-03 0. -1.
        -11    1    3    3    0    0  0.18540067678E+02 -0.19781518879E+02  0.29656674460E+02  0.40181599507E+02  0.51100000000E-03 0.  1.
         12    1    3    3    0    0 -0.23253632600E+02  0.24735410660E+02 -0.21710338532E+02  0.40297776226E+02  0.00000000000E+00 0. -1.
</event>
<event>
 7    1  0.2490895E-015  0.9000773E+02  0.7816164E-02  0.1186339E+00
        -11   -1    0    0    0    0  0.00000000000E+00  0.00000000000E+00  0.45593999997E+02  0.45594000000E+02  0.51100000000E-03 0. -1.
         11   -1    0    0    0    0 -0.00000000000E+00 -0.00000000000E+00 -0.45593999997E+02  0.45594000000E+02  0.51100000000E-03 0.  1.
    9900012    2    1    2    0    0 -0.64129497422E+00 -0.82275377759E-01 -0.98742625826E+00  0.90007729227E+02  0.89999990453E+02 0.  0.
         12    1    1    2    0    0  0.64129497422E+00  0.82275377759E-01  0.98742625826E+00  0.11802707728E+01  0.00000000000E+00 0. -1.
         11    1    3    3    0    0  0.17770429597E+02 -0.20812553024E+02  0.31249058208E+02  0.41538586526E+02  0.51100000000E-03 0. -1.
        -11    1    3    3    0    0 -0.51436219317E+01  0.99817798614E+00  0.29414298937E+01  0.60087615987E+01  0.51100000000E-03 0.  1.
        -12    1    3    3    0    0 -0.13268102640E+02  0.19732099660E+02 -0.35177914360E+02  0.42460381102E+02  0.00000000000E+00 0.  1.
</event>
<event>
 7    1  0.2490895E-015  0.9000770E+02  0.7816164E-02  0.1186339E+00
        -11   -1    0    0    0    0  0.00000000000E+00  0.00000000000E+00  0.45593999997E+02  0.45594000000E+02  0.51100000000E-03 0.  1.
         11   -1    0    0    0    0 -0.00000000000E+00 -0.00000000000E+00 -0.45593999997E+02  0.45594000000E+02  0.51100000000E-03 0. -1.
    9900012    2    1    2    0    0  0.52341607868E+00 -0.13807018470E+00  0.10488426363E+01  0.90007704002E+02  0.89999964895E+02 0.  0.
         12    1    1    2    0    0 -0.52341607868E+00  0.13807018470E+00 -0.10488426363E+01  0.11802959981E+01  0.00000000000E+00 0. -1.
         11    1    3    3    0    0 -0.49090674592E+01  0.74531446349E+00  0.80167561244E+01  0.94298895003E+01  0.51100000000E-03 0. -1.
        -11    1    3    3    0    0  0.22084760355E+02  0.33179193239E+02  0.64149406345E+01  0.40370124690E+02  0.51100000000E-03 0.  1.
         12    1    3    3    0    0 -0.16652276817E+02 -0.34062577887E+02 -0.13382854123E+02  0.40207689811E+02  0.00000000000E+00 0. -1.
</event>
<event>
 7    1  0.2490895E-015  0.9000765E+02  0.7816164E-02  0.1186339E+00
        -11   -1    0    0    0    0  0.00000000000E+00  0.00000000000E+00  0.45593999997E+02  0.45594000000E+02  0.51100000000E-03 0.  1.
         11   -1    0    0    0    0 -0.00000000000E+00 -0.00000000000E+00 -0.45593999997E+02  0.45594000000E+02  0.51100000000E-03 0. -1.
    9900012    2    1    2    0    0 -0.58772411177E-01  0.78250042462E+00  0.88173446929E+00  0.90007653955E+02  0.89999914187E+02 0.  0.
         12    1    1    2    0    0  0.58772411177E-01 -0.78250042462E+00 -0.88173446929E+00  0.11803460447E+01  0.00000000000E+00 0. -1.
         11    1    3    3    0    0 -0.62867676636E+00 -0.10759705250E+02  0.57643537118E+01  0.12222694692E+02  0.51100000000E-03 0. -1.
        -11    1    3    3    0    0 -0.26034976717E+02  0.16935132341E+02  0.23169716154E+02  0.38748606000E+02  0.51100000000E-03 0.  1.
         12    1    3    3    0    0  0.26604881073E+02 -0.53929266656E+01 -0.28052335396E+02  0.39036353263E+02  0.00000000000E+00 0. -1.
</event>
<event>
 7    1  0.2490895E-015  0.9000757E+02  0.7816164E-02  0.1186339E+00
        -11   -1    0    0    0    0  0.00000000000E+00  0.00000000000E+00  0.45593999997E+02  0.45594000000E+02  0.51100000000E-03 0. -1.
         11   -1    0    0    0    0 -0.00000000000E+00 -0.00000000000E+00 -0.45593999997E+02  0.45594000000E+02  0.51100000000E-03 0.  1.
    9900012    2    1    2    0    0  0.65390488387E+00  0.44316468271E+00 -0.87716637238E+00  0.90007573222E+02  0.89999832388E+02 0.  0.
         12    1    1    2    0    0 -0.65390488387E+00 -0.44316468271E+00  0.87716637238E+00  0.11804267779E+01  0.00000000000E+00 0. -1.
         11    1    3    3    0    0  0.16076108550E+02  0.34831979564E+02 -0.14714998823E+02  0.41088188779E+02  0.51100000000E-03 0. -1.
        -11    1    3    3    0    0  0.56846530751E+01 -0.33626597538E+01  0.88820802173E+01  0.11068609237E+02  0.51100000000E-03 0.  1.
        -12    1    3    3    0    0 -0.21106856741E+02 -0.31026155128E+02  0.49557522336E+01  0.37850775206E+02  0.00000000000E+00 0.  1.
</event>
<event>
 7    1  0.2490895E-015  0.9000755E+02  0.7816164E-02  0.1186339E+00
        -11   -1    0    0    0    0  0.00000000000E+00  0.00000000000E+00  0.45593999997E+02  0.45594000000E+02  0.51100000000E-03 0. -1.
         11   -1    0    0    0    0 -0.00000000000E+00 -0.00000000000E+00 -0.45593999997E+02  0.45594000000E+02  0.51100000000E-03 0.  1.
    9900012    2    1    2    0    0 -0.76112463041E-01  0.11578586528E+01 -0.21686561585E+00  0.90007550737E+02  0.89999809607E+02 0.  0.
         12    1    1    2    0    0  0.76112463041E-01 -0.11578586528E+01  0.21686561585E+00  0.11804492628E+01  0.00000000000E+00 0. -1.
         11    1    3    3    0    0 -0.52617908533E+01 -0.34400969385E+01 -0.50730620250E+01  0.80781599700E+01  0.51100000000E-03 0. -1.
        -11    1    3    3    0    0 -0.18090802934E+02 -0.29943829981E+02 -0.12014517163E+02  0.36989981450E+02  0.51100000000E-03 0.  1.
         12    1    3    3    0    0  0.23276481324E+02  0.34541785572E+02  0.16870713573E+02  0.44939409317E+02  0.00000000000E+00 0. -1.
</event>
<event>
 7    1  0.2490895E-015  0.9000812E+02  0.7816164E-02  0.1186338E+00
        -11   -1    0    0    0    0  0.00000000000E+00  0.00000000000E+00  0.45593999997E+02  0.45594000000E+02  0.51100000000E-03 0.  1.
         11   -1    0    0    0    0 -0.00000000000E+00 -0.00000000000E+00 -0.45593999997E+02  0.45594000000E+02  0.51100000000E-03 0. -1.
    9900012    2    1    2    0    0 -0.21941653609E+00  0.11361763236E+01  0.23036033655E+00  0.90008124524E+02  0.90000390967E+02 0.  0.
         12    1    1    2    0    0  0.21941653609E+00 -0.11361763236E+01 -0.23036033655E+00  0.11798754762E+01  0.00000000000E+00 0. -1.
         11    1    3    3    0    0 -0.60396824141E+01  0.15199028718E+01 -0.51688038176E+01  0.80934789533E+01  0.51100000000E-03 0. -1.
        -11    1    3    3    0    0  0.43694549814E+02  0.94604168106E+00  0.55176912764E+00  0.43708272990E+02  0.51100000000E-03 0.  1.
         12    1    3    3    0    0 -0.37874283936E+02 -0.13297682292E+01  0.48473950265E+01  0.38206372581E+02  0.00000000000E+00 0. -1.
</event>
<event>
 7    1  0.2490895E-015  0.9000776E+02  0.7816164E-02  0.1186339E+00
        -11   -1    0    0    0    0  0.00000000000E+00  0.00000000000E+00  0.45593999997E+02  0.45594000000E+02  0.51100000000E-03 0. -1.
         11   -1    0    0    0    0 -0.00000000000E+00 -0.00000000000E+00 -0.45593999997E+02  0.45594000000E+02  0.51100000000E-03 0.  1.
    9900012    2    1    2    0    0 -0.97081997944E+00  0.47442467310E+00  0.47475417059E+00  0.90007762005E+02  0.90000023663E+02 0.  0.
         12    1    1    2    0    0  0.97081997944E+00 -0.47442467310E+00 -0.47475417059E+00  0.11802379952E+01  0.00000000000E+00 0. -1.
         11    1    3    3    0    0 -0.50505312504E+01 -0.38679226391E+01 -0.48030789200E+01  0.79710889360E+01  0.51100000000E-03 0. -1.
        -11    1    3    3    0    0  0.35218867358E+02 -0.18689792859E+02 -0.87923679275E+01  0.40828699576E+02  0.51100000000E-03 0.  1.
         12    1    3    3    0    0 -0.31139156087E+02  0.23032140171E+02  0.14070201018E+02  0.41207973492E+02  0.00000000000E+00 0. -1.
</event>
<event>
 7    1  0.2490895E-015  0.9000664E+02  0.7816164E-02  0.1186341E+00
        -11   -1    0    0    0    0  0.00000000000E+00  0.00000000000E+00  0.45593999997E+02  0.45594000000E+02  0.51100000000E-03 0.  1.
         11   -1    0    0    0    0 -0.00000000000E+00 -0.00000000000E+00 -0.45593999997E+02  0.45594000000E+02  0.51100000000E-03 0. -1.
    9900012    2    1    2    0    0 -0.43962758462E+00  0.55436044026E+00  0.94605133593E+00  0.90006644405E+02  0.89998891305E+02 0.  0.
         12    1    1    2    0    0  0.43962758462E+00 -0.55436044026E+00 -0.94605133593E+00  0.11813555947E+01  0.00000000000E+00 0. -1.
         11    1    3    3    0    0  0.35216354616E+02  0.10647745772E+02  0.69972382390E+01  0.37450333319E+02  0.51100000000E-03 0. -1.
        -11    1    3    3    0    0 -0.13271601540E+02 -0.10215285940E+02  0.14511854902E+02  0.22160356658E+02  0.51100000000E-03 0.  1.
        -12    1    3    3    0    0 -0.22384380661E+02  0.12190060813E+00 -0.20563041805E+02  0.30395954428E+02  0.00000000000E+00 0.  1.
</event>
<event>
 7    1  0.2490895E-015  0.9000775E+02  0.7816164E-02  0.1186339E+00
        -11   -1    0    0    0    0  0.00000000000E+00  0.00000000000E+00  0.45593999997E+02  0.45594000000E+02  0.51100000000E-03 0. -1.
         11   -1    0    0    0    0 -0.00000000000E+00 -0.00000000000E+00 -0.45593999997E+02  0.45594000000E+02  0.51100000000E-03 0.  1.
    9900012    2    1    2    0    0  0.33230981256E+00  0.24492016639E-01  0.11322329061E+01  0.90007753829E+02  0.90000015380E+02 0.  0.
         12    1    1    2    0    0 -0.33230981256E+00 -0.24492016639E-01 -0.11322329061E+01  0.11802461710E+01  0.00000000000E+00 0. -1.
         11    1    3    3    0    0  0.51134268624E+01 -0.98647816106E+00  0.69289914414E+01  0.86678253384E+01  0.51100000000E-03 0. -1.
        -11    1    3    3    0    0 -0.47314877330E+01  0.40268136536E+02 -0.10278563312E+02  0.41827725975E+02  0.51100000000E-03 0.  1.
         12    1    3    3    0    0 -0.49629316853E-01 -0.39257166358E+02  0.44818047768E+01  0.39512202515E+02  0.00000000000E+00 0. -1.
</event>
<event>
 7    1  0.2490895E-015  0.9000775E+02  0.7816164E-02  0.1186339E+00
        -11   -1    0    0    0    0  0.00000000000E+00  0.00000000000E+00  0.45593999997E+02  0.45594000000E+02  0.51100000000E-03 0.  1.
         11   -1    0    0    0    0 -0.00000000000E+00 -0.00000000000E+00 -0.45593999997E+02  0.45594000000E+02  0.51100000000E-03 0. -1.
    9900012    2    1    2    0    0 -0.14542563411E+00 -0.10028132457E+01  0.60514484934E+00  0.90007752861E+02  0.90000014399E+02 0.  0.
         12    1    1    2    0    0  0.14542563411E+00  0.10028132457E+01 -0.60514484934E+00  0.11802471392E+01  0.00000000000E+00 0. -1.
         11    1    3    3    0    0  0.70831543275E+01 -0.10909776936E+01 -0.68949232618E+01  0.99449119957E+01  0.51100000000E-03 0. -1.
        -11    1    3    3    0    0 -0.12315926279E+01 -0.19352815999E+02 -0.30972355308E+02  0.36542237221E+02  0.51100000000E-03 0.  1.
         12    1    3    3    0    0 -0.59969873337E+01  0.19440980447E+02  0.38472423419E+02  0.43520603644E+02  0.00000000000E+00 0. -1.
</event>
<event>
 7    1  0.2490895E-015  0.9000786E+02  0.7816164E-02  0.1186339E+00
        -11   -1    0    0    0    0  0.00000000000E+00  0.00000000000E+00  0.45593999997E+02  0.45594000000E+02  0.51100000000E-03 0.  1.
         11   -1    0    0    0    0 -0.00000000000E+00 -0.00000000000E+00 -0.45593999997E+02  0.45594000000E+02  0.51100000000E-03 0. -1.
    9900012    2    1    2    0    0 -0.66882322563E-01 -0.25054909933E+00  0.11512974017E+01  0.90007858566E+02  0.90000121499E+02 0.  0.
         12    1    1    2    0    0  0.66882322563E-01  0.25054909933E+00 -0.11512974017E+01  0.11801414336E+01  0.00000000000E+00 0. -1.
         11    1    3    3    0    0 -0.13602535742E+02  0.23919446340E+02 -0.19552036029E+02  0.33755755138E+02  0.51100000000E-03 0. -1.
        -11    1    3    3    0    0 -0.54913599894E+01  0.36244500084E+01 -0.91319509657E+01  0.11255407638E+02  0.51100000000E-03 0.  1.
        -12    1    3    3    0    0  0.19027013409E+02 -0.27794445447E+02  0.29835284397E+02  0.44996695790E+02  0.00000000000E+00 0.  1.
</event>
<event>
 7    1  0.2490895E-015  0.9000768E+02  0.7816164E-02  0.1186339E+00
        -11   -1    0    0    0    0  0.00000000000E+00  0.00000000000E+00  0.45593999997E+02  0.45594000000E+02  0.51100000000E-03 0.  1.
         11   -1    0    0    0    0 -0.00000000000E+00 -0.00000000000E+00 -0.45593999997E+02  0.45594000000E+02  0.51100000000E-03 0. -1.
    9900012    2    1    2    0    0  0.62432119130E+00  0.27909970052E+00  0.96201721574E+00  0.90007681943E+02  0.89999942544E+02 0.  0.
         12    1    1    2    0    0 -0.62432119130E+00 -0.27909970052E+00 -0.96201721574E+00  0.11803180572E+01  0.00000000000E+00 0. -1.
         11    1    3    3    0    0 -0.73753036180E+01  0.95372096078E+01  0.47872917191E+00  0.12065763649E+02  0.51100000000E-03 0. -1.
        -11    1    3    3    0    0 -0.31197826886E+02  0.10563195617E+02  0.66049305538E+01  0.33593312012E+02  0.51100000000E-03 0.  1.
         12    1    3    3    0    0  0.39197451695E+02 -0.19821305525E+02 -0.61216425100E+01  0.44348606282E+02  0.00000000000E+00 0. -1.
</event>
<event>
 7    1  0.2490895E-015  0.9000710E+02  0.7816164E-02  0.1186340E+00
        -11   -1    0    0    0    0  0.00000000000E+00  0.00000000000E+00  0.45593999997E+02  0.45594000000E+02  0.51100000000E-03 0. -1.
         11   -1    0    0    0    0 -0.00000000000E+00 -0.00000000000E+00 -0.45593999997E+02  0.45594000000E+02  0.51100000000E-03 0.  1.
    9900012    2    1    2    0    0 -0.70436561163E+00  0.47494872993E+00 -0.82026098877E+00  0.90007095558E+02  0.89999348417E+02 0.  0.
         12    1    1    2    0    0  0.70436561163E+00 -0.47494872993E+00  0.82026098877E+00  0.11809044418E+01  0.00000000000E+00 0. -1.
         11    1    3    3    0    0  0.12283174305E+02  0.16339561313E+01  0.87046336644E+00  0.12421911704E+02  0.51100000000E-03 0. -1.
        -11    1    3    3    0    0 -0.43412056792E+02  0.10437322263E+02  0.27010514756E+01  0.44730750611E+02  0.51100000000E-03 0.  1.
         12    1    3    3    0    0  0.30424516875E+02 -0.11596329665E+02 -0.43917758308E+01  0.32854433243E+02  0.00000000000E+00 0. -1.
</event>
<event>
 7    1  0.2490895E-015  0.9000770E+02  0.7816164E-02  0.1186339E+00
        -11   -1    0    0    0    0  0.00000000000E+00  0.00000000000E+00  0.45593999997E+02  0.45594000000E+02  0.51100000000E-03 0. -1.
         11   -1    0    0    0    0 -0.00000000000E+00 -0.00000000000E+00 -0.45593999997E+02  0.45594000000E+02  0.51100000000E-03 0.  1.
    9900012    2    1    2    0    0  0.79678358072E+00 -0.63155797282E+00  0.59949011401E+00  0.90007695826E+02  0.89999956610E+02 0.  0.
         12    1    1    2    0    0 -0.79678358072E+00  0.63155797282E+00 -0.59949011401E+00  0.11803041745E+01  0.00000000000E+00 0. -1.
         11    1    3    3    0    0 -0.38105082101E+02 -0.23093137893E+01 -0.99167658476E+00  0.38187872876E+02  0.51100000000E-03 0. -1.
        -11    1    3    3    0    0 -0.58127935151E+00 -0.10458923099E+02  0.80506962311E+00  0.10505955237E+02  0.51100000000E-03 0.  1.
        -12    1    3    3    0    0  0.39483145033E+02  0.12136678915E+02  0.78609707565E+00  0.41313867713E+02  0.00000000000E+00 0.  1.
</event>
<event>
 7    1  0.2490895E-015  0.9000789E+02  0.7816164E-02  0.1186339E+00
        -11   -1    0    0    0    0  0.00000000000E+00  0.00000000000E+00  0.45593999997E+02  0.45594000000E+02  0.51100000000E-03 0.  1.
         11   -1    0    0    0    0 -0.00000000000E+00 -0.00000000000E+00 -0.45593999997E+02  0.45594000000E+02  0.51100000000E-03 0. -1.
    9900012    2    1    2    0    0 -0.49566692115E+00  0.56449961409E+00  0.91011119316E+00  0.90007894964E+02  0.90000158378E+02 0.  0.
         12    1    1    2    0    0  0.49566692115E+00 -0.56449961409E+00 -0.91011119316E+00  0.11801050356E+01  0.00000000000E+00 0. -1.
         11    1    3    3    0    0 -0.11576251777E+02  0.17762517338E+02 -0.32484070705E+02  0.38790868477E+02  0.51100000000E-03 0. -1.
        -11    1    3    3    0    0  0.12963908515E+01 -0.40227934973E+01 -0.66845105635E+01  0.79086141957E+01  0.51100000000E-03 0.  1.
        -12    1    3    3    0    0  0.97841940041E+01 -0.13175224227E+02  0.40078692462E+02  0.43308412291E+02  0.00000000000E+00 0.  1.
</event>
<event>
 7    1  0.2490895E-015  0.9000772E+02  0.7816164E-02  0.1186339E+00
        -11   -1    0    0    0    0  0.00000000000E+00  0.00000000000E+00  0.45593999997E+02  0.45594000000E+02  0.51100000000E-03 0.  1.
         11   -1    0    0    0    0 -0.00000000000E+00 -0.00000000000E+00 -0.45593999997E+02  0.45594000000E+02  0.51100000000E-03 0. -1.
    9900012    2    1    2    0    0 -0.38690682468E-01 -0.10288739446E+01  0.57704935010E+00  0.90007718459E+02  0.89999979543E+02 0.  0.
         12    1    1    2    0    0  0.38690682468E-01  0.10288739446E+01 -0.57704935010E+00  0.11802815407E+01  0.00000000000E+00 0. -1.
         11    1    3    3    0    0 -0.46694149194E+01  0.49290324502E+01  0.88595788576E+01  0.11162030925E+02  0.51100000000E-03 0. -1.
        -11    1    3    3    0    0 -0.55723751068E+01  0.24138749397E+02  0.23323663930E+02  0.34025341823E+02  0.51100000000E-03 0.  1.
         12    1    3    3    0    0  0.10203099344E+02 -0.30096655792E+02 -0.31606193437E+02  0.44820345711E+02  0.00000000000E+00 0. -1.
</event>
<event>
 7    1  0.2490895E-015  0.9000772E+02  0.7816164E-02  0.1186339E+00
        -11   -1    0    0    0    0  0.00000000000E+00  0.00000000000E+00  0.45593999997E+02  0.45594000000E+02  0.51100000000E-03 0. -1.
         11   -1    0    0    0    0 -0.00000000000E+00 -0.00000000000E+00 -0.45593999997E+02  0.45594000000E+02  0.51100000000E-03 0.  1.
    9900012    2    1    2    0    0  0.92719523438E-01 -0.70036044962E+00 -0.94549766080E+00  0.90007717197E+02  0.89999978264E+02 0.  0.
         12    1    1    2    0    0 -0.92719523438E-01  0.70036044962E+00  0.94549766080E+00  0.11802828034E+01  0.00000000000E+00 0. -1.
         11    1    3    3    0    0 -0.18586170108E+01 -0.12092242737E+02  0.33946979649E+02  0.36084265534E+02  0.51100000000E-03 0. -1.
        -11    1    3    3    0    0 -0.78244923220E+01 -0.10043677536E+02 -0.11686335546E+01  0.12785297931E+02  0.51100000000E-03 0.  1.
        -12    1    3    3    0    0  0.97758288562E+01  0.21435559824E+02 -0.33723843755E+02  0.41138153731E+02  0.00000000000E+00 0.  1.
</event>
<event>
 7    1  0.2490895E-015  0.9000772E+02  0.7816164E-02  0.1186339E+00
        -11   -1    0    0    0    0  0.00000000000E+00  0.00000000000E+00  0.45593999997E+02  0.45594000000E+02  0.51100000000E-03 0. -1.
         11   -1    0    0    0    0 -0.00000000000E+00 -0.00000000000E+00 -0.45593999997E+02  0.45594000000E+02  0.51100000000E-03 0.  1.
    9900012    2    1    2    0    0  0.82576683710E+00 -0.50397161070E+00  0.67614536026E+00  0.90007724269E+02  0.89999985429E+02 0.  0.
         12    1    1    2    0    0 -0.82576683710E+00  0.50397161070E+00 -0.67614536026E+00  0.11802757313E+01  0.00000000000E+00 0. -1.
         11    1    3    3    0    0 -0.37731192460E+02 -0.10450411797E+02  0.13549281479E+02  0.41429904900E+02  0.51100000000E-03 0. -1.
        -11    1    3    3    0    0  0.23548631110E+01  0.82396791606E+01  0.29068744142E+01  0.90491774247E+01  0.51100000000E-03 0.  1.
        -12    1    3    3    0    0  0.36202096186E+02  0.17067610257E+01 -0.15780010533E+02  0.39528641944E+02  0.00000000000E+00 0.  1.
</event>
<event>
 7    1  0.2490895E-015  0.9000771E+02  0.7816164E-02  0.1186339E+00
        -11   -1    0    0    0    0  0.00000000000E+00  0.00000000000E+00  0.45593999997E+02  0.45594000000E+02  0.51100000000E-03 0.  1.
         11   -1    0    0    0    0 -0.00000000000E+00 -0.00000000000E+00 -0.45593999997E+02  0.45594000000E+02  0.51100000000E-03 0. -1.
    9900012    2    1    2    0    0  0.36052630326E+00 -0.16529766726E+00  0.11116607050E+01  0.90007706792E+02  0.89999967722E+02 0.  0.
         12    1    1    2    0    0 -0.36052630326E+00  0.16529766726E+00 -0.11116607050E+01  0.11802932081E+01  0.00000000000E+00 0. -1.
         11    1    3    3    0    0 -0.12551816926E+02  0.30750981465E+02  0.28006039390E+01  0.33331881913E+02  0.51100000000E-03 0. -1.
        -11    1    3    3    0    0 -0.12111229245E+02  0.23374428943E+01 -0.78269522847E+01  0.14608446031E+02  0.51100000000E-03 0.  1.
        -12    1    3    3    0    0  0.25023572474E+02 -0.33253722027E+02  0.61380090507E+01  0.42067378848E+02  0.00000000000E+00 0.  1.
</event>
<event>
 7    1  0.2490895E-015  0.9000767E+02  0.7816164E-02  0.1186339E+00
        -11   -1    0    0    0    0  0.00000000000E+00  0.00000000000E+00  0.45593999997E+02  0.45594000000E+02  0.51100000000E-03 0. -1.
         11   -1    0    0    0    0 -0.00000000000E+00 -0.00000000000E+00 -0.45593999997E+02  0.45594000000E+02  0.51100000000E-03 0.  1.
    9900012    2    1    2    0    0 -0.69508133656E+00 -0.40046300215E+00 -0.86583941001E+00  0.90007666757E+02  0.89999927158E+02 0.  0.
         12    1    1    2    0    0  0.69508133656E+00  0.40046300215E+00  0.86583941001E+00  0.11803332430E+01  0.00000000000E+00 0. -1.
         11    1    3    3    0    0  0.48747022185E+01  0.81287288733E+01  0.21942032719E+01  0.97290021623E+01  0.51100000000E-03 0. -1.
        -11    1    3    3    0    0 -0.51152809391E+01  0.26410790409E+02  0.24024817419E+02  0.36067822244E+02  0.51100000000E-03 0.  1.
         12    1    3    3    0    0 -0.45450261601E+00 -0.34939982285E+02 -0.27084860101E+02  0.44210842351E+02  0.00000000000E+00 0. -1.
</event>
<event>
 7    1  0.2490895E-015  0.9000776E+02  0.7816164E-02  0.1186339E+00
        -11   -1    0    0    0    0  0.00000000000E+00  0.00000000000E+00  0.45593999997E+02  0.45594000000E+02  0.51100000000E-03 0.  1.
         11   -1    0    0    0    0 -0.00000000000E+00 -0.00000000000E+00 -0.45593999997E+02  0.45594000000E+02  0.51100000000E-03 0. -1.
    9900012    2    1    2    0    0 -0.17213367747E+00  0.74036156423E+00  0.90288225011E+00  0.90007762055E+02  0.90000023714E+02 0.  0.
         12    1    1    2    0    0  0.17213367747E+00 -0.74036156423E+00 -0.90288225011E+00  0.11802379448E+01  0.00000000000E+00 0. -1.
         11    1    3    3    0    0 -0.14594755845E+02  0.39598871704E+01 -0.33120438876E+02  0.36409491568E+02  0.51100000000E-03 0. -1.
        -11    1    3    3    0    0  0.73393678582E+01 -0.24536174069E+01 -0.79088803868E+01  0.11065123053E+02  0.51100000000E-03 0.  1.
        -12    1    3    3    0    0  0.70832543097E+01 -0.76590819920E+00  0.41932201513E+02  0.42533147435E+02  0.00000000000E+00 0.  1.
</event>
<event>
 7    1  0.2490895E-015  0.9000783E+02  0.7816164E-02  0.1186339E+00
        -11   -1    0    0    0    0  0.00000000000E+00  0.00000000000E+00  0.45593999997E+02  0.45594000000E+02  0.51100000000E-03 0. -1.
         11   -1    0    0    0    0 -0.00000000000E+00 -0.00000000000E+00 -0.45593999997E+02  0.45594000000E+02  0.51100000000E-03 0.  1.
    9900012    2    1    2    0    0  0.66313150681E+00  0.95682761392E+00  0.19376153077E+00  0.90007827975E+02  0.90000090504E+02 0.  0.
         12    1    1    2    0    0 -0.66313150681E+00 -0.95682761392E+00 -0.19376153077E+00  0.11801720251E+01  0.00000000000E+00 0. -1.
         11    1    3    3    0    0 -0.33651122978E+02 -0.82525699463E+01 -0.22441021559E+02  0.41280775638E+02  0.51100000000E-03 0. -1.
        -11    1    3    3    0    0  0.51724697844E+01  0.60144994853E+01 -0.42064828215E+01  0.89790392425E+01  0.51100000000E-03 0.  1.
        -12    1    3    3    0    0  0.29141784700E+02  0.31948980749E+01  0.26841265912E+02  0.39748013094E+02  0.00000000000E+00 0.  1.
</event>
<event>
 7    1  0.2490895E-015  0.9000777E+02  0.7816164E-02  0.1186339E+00
        -11   -1    0    0    0    0  0.00000000000E+00  0.00000000000E+00  0.45593999997E+02  0.45594000000E+02  0.51100000000E-03 0.  1.
         11   -1    0    0    0    0 -0.00000000000E+00 -0.00000000000E+00 -0.45593999997E+02  0.45594000000E+02  0.51100000000E-03 0. -1.
    9900012    2    1    2    0    0  0.17072183248E+00 -0.10952469909E+01  0.40526729039E+00  0.90007765493E+02  0.90000027197E+02 0.  0.
         12    1    1    2    0    0 -0.17072183248E+00  0.10952469909E+01 -0.40526729039E+00  0.11802345071E+01  0.00000000000E+00 0. -1.
         11    1    3    3    0    0 -0.10810571722E+02 -0.47300063496E+01 -0.39324221701E+02  0.41056495633E+02  0.51100000000E-03 0. -1.
        -11    1    3    3    0    0  0.84077007028E+01  0.44878073562E+01  0.41091280188E+00  0.95393236430E+01  0.51100000000E-03 0.  1.
        -12    1    3    3    0    0  0.25735928520E+01 -0.85304799746E+00  0.39318576189E+02  0.39411946217E+02  0.00000000000E+00 0.  1.
</event>
<event>
 7    1  0.4890110E-015  0.9000786E+02  0.7816164E-02  0.1186339E+00
        -11   -1    0    0    0    0  0.00000000000E+00  0.00000000000E+00  0.45593999997E+02  0.45594000000E+02  0.51100000000E-03 0. -1.
         11   -1    0    0    0    0 -0.00000000000E+00 -0.00000000000E+00 -0.45593999997E+02  0.45594000000E+02  0.51100000000E-03 0.  1.
    9900012    2    1    2    0    0  0.31478274463E+00 -0.14664974400E+00 -0.11278888049E+01  0.90007861246E+02  0.90000124214E+02 0.  0.
         12    1    1    2    0    0 -0.31478274463E+00  0.14664974400E+00  0.11278888049E+01  0.11801387545E+01  0.00000000000E+00 0. -1.
         11    1    3    3    0    0 -0.11598990568E+02 -0.17868247685E+02  0.33461522520E+02  0.39667169639E+02  0.51100000000E-03 0. -1.
        -11    1    3    3    0    0 -0.80927667716E+01 -0.16714322264E+01 -0.48221057748E+01  0.95676153807E+01  0.51100000000E-03 0.  1.
        -12    1    3    3    0    0  0.20006540084E+02  0.19393030167E+02 -0.29767305550E+02  0.40773076226E+02  0.00000000000E+00 0.  1.
</event>
<event>
 7    1  0.2490895E-015  0.9000770E+02  0.7816164E-02  0.1186339E+00
        -11   -1    0    0    0    0  0.00000000000E+00  0.00000000000E+00  0.45593999997E+02  0.45594000000E+02  0.51100000000E-03 0.  1.
         11   -1    0    0    0    0 -0.00000000000E+00 -0.00000000000E+00 -0.45593999997E+02  0.45594000000E+02  0.51100000000E-03 0. -1.
    9900012    2    1    2    0    0  0.68566047533E-01 -0.61520037851E+00  0.10049569944E+01  0.90007698611E+02  0.89999959432E+02 0.  0.
         12    1    1    2    0    0 -0.68566047533E-01  0.61520037851E+00 -0.10049569944E+01  0.11803013892E+01  0.00000000000E+00 0. -1.
         11    1    3    3    0    0 -0.80171235053E+01 -0.15689857289E+01 -0.75237348905E+01  0.11105970128E+02  0.51100000000E-03 0. -1.
        -11    1    3    3    0    0 -0.24880653419E+02 -0.24617000298E+02 -0.42738165010E+01  0.35260588849E+02  0.51100000000E-03 0.  1.
         12    1    3    3    0    0  0.32966342971E+02  0.25570785649E+02  0.12802508386E+02  0.43641139634E+02  0.00000000000E+00 0. -1.
</event>
<event>
 7    1  0.2490895E-015  0.9000767E+02  0.7816164E-02  0.1186339E+00
        -11   -1    0    0    0    0  0.00000000000E+00  0.00000000000E+00  0.45593999997E+02  0.45594000000E+02  0.51100000000E-03 0. -1.
         11   -1    0    0    0    0 -0.00000000000E+00 -0.00000000000E+00 -0.45593999997E+02  0.45594000000E+02  0.51100000000E-03 0.  1.
    9900012    2    1    2    0    0  0.10165046446E+01 -0.59929168147E+00  0.27399304845E-01  0.90007668295E+02  0.89999928716E+02 0.  0.
         12    1    1    2    0    0 -0.10165046446E+01  0.59929168147E+00 -0.27399304845E-01  0.11803317050E+01  0.00000000000E+00 0. -1.
         11    1    3    3    0    0 -0.25225425553E+01 -0.71180620359E+01 -0.50599394617E+01  0.90902703869E+01  0.51100000000E-03 0. -1.
        -11    1    3    3    0    0  0.13403267368E+02 -0.17647830022E+02 -0.29930562741E+02  0.37241536849E+02  0.51100000000E-03 0.  1.
         12    1    3    3    0    0 -0.98642201683E+01  0.24166600377E+02  0.35017901507E+02  0.43675861059E+02  0.00000000000E+00 0. -1.
</event>
<event>
 7    1  0.2490895E-015  0.9000775E+02  0.7816164E-02  0.1186339E+00
        -11   -1    0    0    0    0  0.00000000000E+00  0.00000000000E+00  0.45593999997E+02  0.45594000000E+02  0.51100000000E-03 0.  1.
         11   -1    0    0    0    0 -0.00000000000E+00 -0.00000000000E+00 -0.45593999997E+02  0.45594000000E+02  0.51100000000E-03 0. -1.
    9900012    2    1    2    0    0  0.10856314748E+01 -0.11232796703E+00  0.44918939751E+00  0.90007752405E+02  0.90000013936E+02 0.  0.
         12    1    1    2    0    0 -0.10856314748E+01  0.11232796703E+00 -0.44918939751E+00  0.11802475953E+01  0.00000000000E+00 0. -1.
         11    1    3    3    0    0 -0.29970658728E+02 -0.15126865385E+02 -0.14333251132E+02  0.36503486536E+02  0.51100000000E-03 0. -1.
        -11    1    3    3    0    0  0.19234846175E+01 -0.77996500737E+01 -0.69232873291E+01  0.10605010233E+02  0.51100000000E-03 0.  1.
        -12    1    3    3    0    0  0.29132805586E+02  0.22814187491E+02  0.21705727859E+02  0.42899255636E+02  0.00000000000E+00 0.  1.
</event>
<event>
 7    1  0.2490895E-015  0.9000776E+02  0.7816164E-02  0.1186339E+00
        -11   -1    0    0    0    0  0.00000000000E+00  0.00000000000E+00  0.45593999997E+02  0.45594000000E+02  0.51100000000E-03 0.  1.
         11   -1    0    0    0    0 -0.00000000000E+00 -0.00000000000E+00 -0.45593999997E+02  0.45594000000E+02  0.51100000000E-03 0. -1.
    9900012    2    1    2    0    0  0.35418855301E+00  0.41106961428E+00  0.10481137261E+01  0.90007758439E+02  0.90000020051E+02 0.  0.
         12    1    1    2    0    0 -0.35418855301E+00 -0.41106961428E+00 -0.10481137261E+01  0.11802415607E+01  0.00000000000E+00 0. -1.
         11    1    3    3    0    0 -0.19746535380E+01 -0.10292271908E+02 -0.30993869525E+00  0.10484568655E+02  0.51100000000E-03 0. -1.
        -11    1    3    3    0    0  0.19345560770E+02 -0.22722245846E+01  0.34765053983E+02  0.39850002570E+02  0.51100000000E-03 0.  1.
         12    1    3    3    0    0 -0.17016718679E+02  0.12975566107E+02 -0.33407001562E+02  0.39673187215E+02  0.00000000000E+00 0. -1.
</event>
<event>
 7    1  0.2490895E-015  0.9000774E+02  0.7816164E-02  0.1186339E+00
        -11   -1    0    0    0    0  0.00000000000E+00  0.00000000000E+00  0.45593999997E+02  0.45594000000E+02  0.51100000000E-03 0. -1.
         11   -1    0    0    0    0 -0.00000000000E+00 -0.00000000000E+00 -0.45593999997E+02  0.45594000000E+02  0.51100000000E-03 0.  1.
    9900012    2    1    2    0    0  0.78926111200E+00 -0.21366426808E+00 -0.85113370580E+00  0.90007739814E+02  0.90000001179E+02 0.  0.
         12    1    1    2    0    0 -0.78926111200E+00  0.21366426808E+00  0.85113370580E+00  0.11802601864E+01  0.00000000000E+00 0. -1.
         11    1    3    3    0    0 -0.71405333733E+01 -0.62543118835E+01  0.62612866544E+01  0.11371338744E+02  0.51100000000E-03 0. -1.
        -11    1    3    3    0    0  0.20294309022E+02 -0.30674617569E+02 -0.13872837845E+02  0.39309626961E+02  0.51100000000E-03 0.  1.
         12    1    3    3    0    0 -0.12364514536E+02  0.36715265184E+02  0.67604174850E+01  0.39326774109E+02  0.00000000000E+00 0. -1.
</event>
<event>
 7    1  0.2490895E-015  0.9000779E+02  0.7816164E-02  0.1186339E+00
        -11   -1    0    0    0    0  0.00000000000E+00  0.00000000000E+00  0.45593999997E+02  0.45594000000E+02  0.51100000000E-03 0. -1.
         11   -1    0    0    0    0 -0.00000000000E+00 -0.00000000000E+00 -0.45593999997E+02  0.45594000000E+02  0.51100000000E-03 0.  1.
    9900012    2    1    2    0    0 -0.57284327726E+00 -0.10241225812E+01 -0.12621163550E+00  0.90007785673E+02  0.90000047643E+02 0.  0.
         12    1    1    2    0    0  0.57284327726E+00  0.10241225812E+01  0.12621163550E+00  0.11802143274E+01  0.00000000000E+00 0. -1.
         11    1    3    3    0    0  0.12091801785E+02 -0.63080705124E+01  0.19050838314E+01  0.13770721428E+02  0.51100000000E-03 0. -1.
        -11    1    3    3    0    0  0.13336233966E+02 -0.33883778257E+00 -0.32891408456E+02  0.35493868455E+02  0.51100000000E-03 0.  1.
         12    1    3    3    0    0 -0.26000879027E+02  0.56227857137E+01  0.30860112990E+02  0.40743195789E+02  0.00000000000E+00 0. -1.
</event>
<event>
 7    1  0.2490895E-015  0.9000772E+02  0.7816164E-02  0.1186339E+00
        -11   -1    0    0    0    0  0.00000000000E+00  0.00000000000E+00  0.45593999997E+02  0.45594000000E+02  0.51100000000E-03 0.  1.
         11   -1    0    0    0    0 -0.00000000000E+00 -0.00000000000E+00 -0.45593999997E+02  0.45594000000E+02  0.51100000000E-03 0. -1.
    9900012    2    1    2    0    0  0.79934199499E+00 -0.26382979407E+00  0.82735392473E+00  0.90007716855E+02  0.89999977918E+02 0.  0.
         12    1    1    2    0    0 -0.79934199499E+00  0.26382979407E+00 -0.82735392473E+00  0.11802831448E+01  0.00000000000E+00 0. -1.
         11    1    3    3    0    0  0.25817854212E+02  0.25287358662E+02 -0.16117470366E+02  0.39570000701E+02  0.51100000000E-03 0. -1.
        -11    1    3    3    0    0 -0.20195996850E+00  0.58588092249E+01  0.71129355354E+01  0.92173903874E+01  0.51100000000E-03 0.  1.
        -12    1    3    3    0    0 -0.24816552248E+02 -0.31409997681E+02  0.98318887550E+01  0.41220325767E+02  0.00000000000E+00 0.  1.
</event>
<event>
 7    1  0.2490895E-015  0.9000770E+02  0.7816164E-02  0.1186339E+00
        -11   -1    0    0    0    0  0.00000000000E+00  0.00000000000E+00  0.45593999997E+02  0.45594000000E+02  0.51100000000E-03 0. -1.
         11   -1    0    0    0    0 -0.00000000000E+00 -0.00000000000E+00 -0.45593999997E+02  0.45594000000E+02  0.51100000000E-03 0.  1.
    9900012    2    1    2    0    0  0.38210538007E+00  0.33643188218E+00 -0.10648601390E+01  0.90007695781E+02  0.89999956566E+02 0.  0.
         12    1    1    2    0    0 -0.38210538007E+00 -0.33643188218E+00  0.10648601390E+01  0.11803042186E+01  0.00000000000E+00 0. -1.
         11    1    3    3    0    0 -0.16563544909E+01 -0.90385060452E+01 -0.24260477856E+01  0.95038839348E+01  0.51100000000E-03 0. -1.
        -11    1    3    3    0    0  0.38437955418E+02 -0.72518494940E+01 -0.66920101562E+01  0.39684363898E+02  0.51100000000E-03 0.  1.
         12    1    3    3    0    0 -0.36399495547E+02  0.16626787421E+02  0.80531978027E+01  0.40819447949E+02  0.00000000000E+00 0. -1.
</event>
<event>
 7    1  0.2490895E-015  0.9000772E+02  0.7816164E-02  0.1186339E+00
        -11   -1    0    0    0    0  0.00000000000E+00  0.00000000000E+00  0.45593999997E+02  0.45594000000E+02  0.51100000000E-03 0. -1.
         11   -1    0    0    0    0 -0.00000000000E+00 -0.00000000000E+00 -0.45593999997E+02  0.45594000000E+02  0.51100000000E-03 0.  1.
    9900012    2    1    2    0    0  0.84285987922E+00  0.81743726887E+00  0.12020125423E+00  0.90007718336E+02  0.89999979418E+02 0.  0.
         12    1    1    2    0    0 -0.84285987922E+00 -0.81743726887E+00 -0.12020125423E+00  0.11802816639E+01  0.00000000000E+00 0. -1.
         11    1    3    3    0    0 -0.55994086171E+01 -0.89076124561E+01  0.69674435523E+00  0.10544400860E+02  0.51100000000E-03 0. -1.
        -11    1    3    3    0    0 -0.23349818659E+02  0.33578067280E+02  0.36710910261E+01  0.41063092227E+02  0.51100000000E-03 0.  1.
         12    1    3    3    0    0  0.29792087155E+02 -0.23853017555E+02 -0.42476341271E+01  0.38400225250E+02  0.00000000000E+00 0. -1.
</event>
<event>
 7    1  0.2490895E-015  0.9000769E+02  0.7816164E-02  0.1186339E+00
        -11   -1    0    0    0    0  0.00000000000E+00  0.00000000000E+00  0.45593999997E+02  0.45594000000E+02  0.51100000000E-03 0.  1.
         11   -1    0    0    0    0 -0.00000000000E+00 -0.00000000000E+00 -0.45593999997E+02  0.45594000000E+02  0.51100000000E-03 0. -1.
    9900012    2    1    2    0    0 -0.46131163900E+00  0.91895000364E+00 -0.57952076657E+00  0.90007694168E+02  0.89999954931E+02 0.  0.
         12    1    1    2    0    0  0.46131163900E+00 -0.91895000364E+00  0.57952076657E+00  0.11803058317E+01  0.00000000000E+00 0. -1.
         11    1    3    3    0    0  0.11380256281E+02 -0.38810779471E+02 -0.13439348113E+02  0.42619278668E+02  0.51100000000E-03 0. -1.
        -11    1    3    3    0    0  0.38950651708E+01  0.83980820370E+01 -0.17207597189E+01  0.94159613878E+01  0.51100000000E-03 0.  1.
        -12    1    3    3    0    0 -0.15736633090E+02  0.31331647438E+02  0.14580587065E+02  0.37972454113E+02  0.00000000000E+00 0.  1.
</event>
<event>
 8    1  0.2490895E-015  0.9000868E+02  0.7816164E-02  0.1186337E+00
        -11   -1    0    0    0    0  0.00000000000E+00  0.00000000000E+00  0.45593999997E+02  0.45594000000E+02  0.51100000000E-03 0.  1.
         11   -1    0    0    0    0 -0.00000000000E+00 -0.00000000000E+00 -0.45593999997E+02  0.45594000000E+02  0.51100000000E-03 0. -1.
    9900012    2    1    2    0    0 -0.45231473554E-01  0.11538267603E+01  0.23966507580E+00  0.90008677556E+02  0.90000951294E+02 0.  0.
         23    2    3    3    0    0  0.16880412959E+02 -0.86617560876E+01 -0.16263703664E+02  0.64412109703E+02  0.59366972799E+02 0.  0.
         12    1    1    2    0    0  0.45231473554E-01 -0.11538267603E+01 -0.23966507580E+00  0.11793224442E+01  0.00000000000E+00 0. -1.
         11    1    4    4    0    0 -0.72772268297E+01  0.17902711218E+02  0.81696231677E+01  0.20981130624E+02  0.51100000000E-03 0. -1.
        -11    1    4    4    0    0  0.24157639789E+02 -0.26564467306E+02 -0.24433326832E+02  0.43430979079E+02  0.51100000000E-03 0.  1.
         12    1    3    3    0    0 -0.16925644433E+02  0.98155828479E+01  0.16503368740E+02  0.25596567853E+02  0.00000000000E+00 0. -1.
</event>
<event>
 7    1  0.2490895E-015  0.9000783E+02  0.7816164E-02  0.1186339E+00
        -11   -1    0    0    0    0  0.00000000000E+00  0.00000000000E+00  0.45593999997E+02  0.45594000000E+02  0.51100000000E-03 0.  1.
         11   -1    0    0    0    0 -0.00000000000E+00 -0.00000000000E+00 -0.45593999997E+02  0.45594000000E+02  0.51100000000E-03 0. -1.
    9900012    2    1    2    0    0  0.20896748018E+00 -0.78491159430E+00 -0.85618093928E+00  0.90007830767E+02  0.90000093333E+02 0.  0.
         12    1    1    2    0    0 -0.20896748018E+00  0.78491159430E+00  0.85618093928E+00  0.11801692334E+01  0.00000000000E+00 0. -1.
         11    1    3    3    0    0 -0.69925975779E+01 -0.57081911601E+01 -0.18289375157E+01  0.92100423400E+01  0.51100000000E-03 0. -1.
        -11    1    3    3    0    0  0.25164393046E+02  0.54184879330E+00 -0.33367523584E+02  0.41796314525E+02  0.51100000000E-03 0.  1.
         12    1    3    3    0    0 -0.17962827988E+02  0.43814307725E+01  0.34340280161E+02  0.39001473901E+02  0.00000000000E+00 0. -1.
</event>
<event>
 7    1  0.2490895E-015  0.9000784E+02  0.7816164E-02  0.1186339E+00
        -11   -1    0    0    0    0  0.00000000000E+00  0.00000000000E+00  0.45593999997E+02  0.45594000000E+02  0.51100000000E-03 0. -1.
         11   -1    0    0    0    0 -0.00000000000E+00 -0.00000000000E+00 -0.45593999997E+02  0.45594000000E+02  0.51100000000E-03 0.  1.
    9900012    2    1    2    0    0 -0.59810894665E+00  0.93366366147E+00 -0.40410919105E+00  0.90007844763E+02  0.90000107514E+02 0.  0.
         12    1    1    2    0    0  0.59810894665E+00 -0.93366366147E+00  0.40410919105E+00  0.11801552369E+01  0.00000000000E+00 0. -1.
         11    1    3    3    0    0 -0.14450709929E+02  0.32439713601E+02  0.10547900941E+02  0.37046136782E+02  0.51100000000E-03 0. -1.
        -11    1    3    3    0    0 -0.61195141283E+01  0.52485528998E+01  0.33832127526E+01  0.87431052550E+01  0.51100000000E-03 0.  1.
        -12    1    3    3    0    0  0.19972115110E+02 -0.36754602840E+02 -0.14335222884E+02  0.44218602726E+02  0.00000000000E+00 0.  1.
</event>
<event>
 7    1  0.2490895E-015  0.9000816E+02  0.7816164E-02  0.1186338E+00
        -11   -1    0    0    0    0  0.00000000000E+00  0.00000000000E+00  0.45593999997E+02  0.45594000000E+02  0.51100000000E-03 0.  1.
         11   -1    0    0    0    0 -0.00000000000E+00 -0.00000000000E+00 -0.45593999997E+02  0.45594000000E+02  0.51100000000E-03 0. -1.
    9900012    2    1    2    0    0 -0.68747275940E-02  0.15702871268E+00  0.11693254661E+01  0.90008157924E+02  0.90000424808E+02 0.  0.
         12    1    1    2    0    0  0.68747275940E-02 -0.15702871268E+00 -0.11693254661E+01  0.11798420759E+01  0.00000000000E+00 0. -1.
         11    1    3    3    0    0 -0.86789439294E+01 -0.41377385791E+01 -0.28641908587E+01  0.10032374485E+02  0.51100000000E-03 0. -1.
        -11    1    3    3    0    0 -0.19302758320E+02  0.84004560237E+01  0.33227095789E+02  0.39334514551E+02  0.51100000000E-03 0.  1.
         12    1    3    3    0    0  0.27974827521E+02 -0.41056887319E+01 -0.29193579464E+02  0.40641268887E+02  0.00000000000E+00 0. -1.
</event>
<event>
 7    1  0.2490895E-015  0.9000765E+02  0.7816164E-02  0.1186339E+00
        -11   -1    0    0    0    0  0.00000000000E+00  0.00000000000E+00  0.45593999997E+02  0.45594000000E+02  0.51100000000E-03 0. -1.
         11   -1    0    0    0    0 -0.00000000000E+00 -0.00000000000E+00 -0.45593999997E+02  0.45594000000E+02  0.51100000000E-03 0.  1.
    9900012    2    1    2    0    0  0.61896434888E+00 -0.75291934216E+00 -0.66575123266E+00  0.90007648737E+02  0.89999908900E+02 0.  0.
         12    1    1    2    0    0 -0.61896434888E+00  0.75291934216E+00  0.66575123266E+00  0.11803512633E+01  0.00000000000E+00 0. -1.
         11    1    3    3    0    0  0.13545473436E+02 -0.36967405227E+02  0.50081324815E+01  0.39688163109E+02  0.51100000000E-03 0. -1.
        -11    1    3    3    0    0  0.82311761797E+01  0.24935860791E+00 -0.16533982883E+01  0.83992956358E+01  0.51100000000E-03 0.  1.
        -12    1    3    3    0    0 -0.21157685266E+02  0.35965127277E+02 -0.40204854258E+01  0.41920189991E+02  0.00000000000E+00 0.  1.
</event>
<event>
 7    1  0.2490895E-015  0.9000750E+02  0.7816164E-02  0.1186340E+00
        -11   -1    0    0    0    0  0.00000000000E+00  0.00000000000E+00  0.45593999997E+02  0.45594000000E+02  0.51100000000E-03 0.  1.
         11   -1    0    0    0    0 -0.00000000000E+00 -0.00000000000E+00 -0.45593999997E+02  0.45594000000E+02  0.51100000000E-03 0. -1.
    9900012    2    1    2    0    0 -0.57460711138E-01  0.16270048255E+00  0.11678244981E+01  0.90007497040E+02  0.89999755200E+02 0.  0.
         12    1    1    2    0    0  0.57460711138E-01 -0.16270048255E+00 -0.11678244981E+01  0.11805029601E+01  0.00000000000E+00 0. -1.
         11    1    3    3    0    0 -0.13907333590E+02 -0.21106099160E+02 -0.20076049737E+02  0.32278926913E+02  0.51100000000E-03 0. -1.
        -11    1    3    3    0    0 -0.87584135976E+01 -0.69408394278E+01 -0.57910103738E+01  0.12586534953E+02  0.51100000000E-03 0.  1.
        -12    1    3    3    0    0  0.22608286477E+02  0.28209639070E+02  0.27034884609E+02  0.45142035174E+02  0.00000000000E+00 0.  1.
</event>
<event>
 7    1  0.2490895E-015  0.9000780E+02  0.7816164E-02  0.1186339E+00
        -11   -1    0    0    0    0  0.00000000000E+00  0.00000000000E+00  0.45593999997E+02  0.45594000000E+02  0.51100000000E-03 0.  1.
         11   -1    0    0    0    0 -0.00000000000E+00 -0.00000000000E+00 -0.45593999997E+02  0.45594000000E+02  0.51100000000E-03 0. -1.
    9900012    2    1    2    0    0 -0.23013915222E-02  0.11322375385E+01 -0.33301765369E+00  0.90007801755E+02  0.90000063938E+02 0.  0.
         12    1    1    2    0    0  0.23013915222E-02 -0.11322375385E+01  0.33301765369E+00  0.11801982451E+01  0.00000000000E+00 0. -1.
         11    1    3    3    0    0 -0.10242630822E+02  0.90227993376E-01  0.15331653882E+00  0.10244175587E+02  0.51100000000E-03 0. -1.
        -11    1    3    3    0    0 -0.18961560764E+02 -0.13914932674E+02  0.27821021571E+02  0.36430418327E+02  0.51100000000E-03 0.  1.
         12    1    3    3    0    0  0.29201890194E+02  0.14956942219E+02 -0.28307355764E+02  0.43333207841E+02  0.00000000000E+00 0. -1.
</event>
<event>
 7    1  0.2490895E-015  0.9000732E+02  0.7816164E-02  0.1186340E+00
        -11   -1    0    0    0    0  0.00000000000E+00  0.00000000000E+00  0.45593999997E+02  0.45594000000E+02  0.51100000000E-03 0. -1.
         11   -1    0    0    0    0 -0.00000000000E+00 -0.00000000000E+00 -0.45593999997E+02  0.45594000000E+02  0.51100000000E-03 0.  1.
    9900012    2    1    2    0    0  0.10586512010E+01  0.28897486179E+00 -0.43561970746E+00  0.90007316568E+02  0.89999572346E+02 0.  0.
         12    1    1    2    0    0 -0.10586512010E+01 -0.28897486179E+00  0.43561970746E+00  0.11806834316E+01  0.00000000000E+00 0. -1.
         11    1    3    3    0    0 -0.32442640923E+02 -0.96245071587E+01  0.13501354165E+02  0.36434086411E+02  0.51100000000E-03 0. -1.
        -11    1    3    3    0    0  0.10372096455E+01 -0.10482375302E+02  0.39716419820E+01  0.11257439146E+02  0.51100000000E-03 0.  1.
        -12    1    3    3    0    0  0.32464082478E+02  0.20395857323E+02 -0.17908615855E+02  0.42315791011E+02  0.00000000000E+00 0.  1.
</event>
<event>
 7    1  0.2490895E-015  0.9000773E+02  0.7816164E-02  0.1186339E+00
        -11   -1    0    0    0    0  0.00000000000E+00  0.00000000000E+00  0.45593999997E+02  0.45594000000E+02  0.51100000000E-03 0.  1.
         11   -1    0    0    0    0 -0.00000000000E+00 -0.00000000000E+00 -0.45593999997E+02  0.45594000000E+02  0.51100000000E-03 0. -1.
    9900012    2    1    2    0    0  0.84654108985E+00  0.11375941438E+00  0.81452826877E+00  0.90007733368E+02  0.89999994649E+02 0.  0.
         12    1    1    2    0    0 -0.84654108985E+00 -0.11375941438E+00 -0.81452826877E+00  0.11802666316E+01  0.00000000000E+00 0. -1.
         11    1    3    3    0    0 -0.82245128132E+01 -0.69829572967E+00 -0.20887785871E+01  0.85142952842E+01  0.51100000000E-03 0. -1.
        -11    1    3    3    0    0 -0.14372187724E+02  0.34084665822E+02  0.13596013489E+02  0.39410351524E+02  0.51100000000E-03 0.  1.
         12    1    3    3    0    0  0.23443241627E+02 -0.33272610678E+02 -0.10692706633E+02  0.42083086560E+02  0.00000000000E+00 0. -1.
</event>
<event>
 7    1  0.2490895E-015  0.9000785E+02  0.7816164E-02  0.1186339E+00
        -11   -1    0    0    0    0  0.00000000000E+00  0.00000000000E+00  0.45593999997E+02  0.45594000000E+02  0.51100000000E-03 0. -1.
         11   -1    0    0    0    0 -0.00000000000E+00 -0.00000000000E+00 -0.45593999997E+02  0.45594000000E+02  0.51100000000E-03 0.  1.
    9900012    2    1    2    0    0  0.54706895969E+00  0.91387061713E+00 -0.50825210158E+00  0.90007845709E+02  0.90000108472E+02 0.  0.
         12    1    1    2    0    0 -0.54706895969E+00 -0.91387061713E+00  0.50825210158E+00  0.11801542909E+01  0.00000000000E+00 0. -1.
         11    1    3    3    0    0 -0.23665445297E+01 -0.84884977310E+01  0.33111904972E+02  0.34264462317E+02  0.51100000000E-03 0. -1.
        -11    1    3    3    0    0  0.13738667401E+01  0.14236731593E+00  0.10522950489E+02  0.10613211838E+02  0.51100000000E-03 0.  1.
        -12    1    3    3    0    0  0.15397467493E+01  0.92600010322E+01 -0.44143107563E+02  0.45130171554E+02  0.00000000000E+00 0.  1.
</event>
<event>
 7    1  0.2490895E-015  0.9000773E+02  0.7816164E-02  0.1186339E+00
        -11   -1    0    0    0    0  0.00000000000E+00  0.00000000000E+00  0.45593999997E+02  0.45594000000E+02  0.51100000000E-03 0. -1.
         11   -1    0    0    0    0 -0.00000000000E+00 -0.00000000000E+00 -0.45593999997E+02  0.45594000000E+02  0.51100000000E-03 0.  1.
    9900012    2    1    2    0    0  0.66095976005E+00 -0.57187209875E+00 -0.79318263079E+00  0.90007727071E+02  0.89999988268E+02 0.  0.
         12    1    1    2    0    0 -0.66095976005E+00  0.57187209875E+00  0.79318263079E+00  0.11802729293E+01  0.00000000000E+00 0. -1.
         11    1    3    3    0    0 -0.16189624404E+02 -0.11832070587E+02  0.25797125879E+02  0.32674049896E+02  0.51100000000E-03 0. -1.
        -11    1    3    3    0    0  0.16406874196E+02 -0.97936529017E+01  0.46436336322E+01  0.19663786299E+02  0.51100000000E-03 0.  1.
        -12    1    3    3    0    0  0.44370996847E+00  0.21053851390E+02 -0.31233942142E+02  0.37669890876E+02  0.00000000000E+00 0.  1.
</event>
<event>
 7    1  0.2490895E-015  0.9000766E+02  0.7816164E-02  0.1186339E+00
        -11   -1    0    0    0    0  0.00000000000E+00  0.00000000000E+00  0.45593999997E+02  0.45594000000E+02  0.51100000000E-03 0. -1.
         11   -1    0    0    0    0 -0.00000000000E+00 -0.00000000000E+00 -0.45593999997E+02  0.45594000000E+02  0.51100000000E-03 0.  1.
    9900012    2    1    2    0    0 -0.28824683311E+00 -0.10024611855E+01 -0.55243241278E+00  0.90007662660E+02  0.89999923007E+02 0.  0.
         12    1    1    2    0    0  0.28824683311E+00  0.10024611855E+01  0.55243241278E+00  0.11803373399E+01  0.00000000000E+00 0. -1.
         11    1    3    3    0    0  0.48331631290E+01 -0.93998954757E+01 -0.16313016977E+01  0.10694795289E+02  0.51100000000E-03 0. -1.
        -11    1    3    3    0    0 -0.16958929538E+01 -0.18472059512E+02 -0.31737888798E+02  0.36761210823E+02  0.51100000000E-03 0.  1.
         12    1    3    3    0    0 -0.34255170084E+01  0.26869493802E+02  0.32816758083E+02  0.42551656548E+02  0.00000000000E+00 0. -1.
</event>
<event>
 7    1  0.2490895E-015  0.9000753E+02  0.7816164E-02  0.1186339E+00
        -11   -1    0    0    0    0  0.00000000000E+00  0.00000000000E+00  0.45593999997E+02  0.45594000000E+02  0.51100000000E-03 0.  1.
         11   -1    0    0    0    0 -0.00000000000E+00 -0.00000000000E+00 -0.45593999997E+02  0.45594000000E+02  0.51100000000E-03 0. -1.
    9900012    2    1    2    0    0 -0.53842280779E+00  0.10151465437E+01 -0.27034310851E+00  0.90007531016E+02  0.89999789625E+02 0.  0.
         12    1    1    2    0    0  0.53842280779E+00 -0.10151465437E+01  0.27034310851E+00  0.11804689837E+01  0.00000000000E+00 0. -1.
         11    1    3    3    0    0  0.23539254563E+01  0.98870840379E+01 -0.31978319912E+01  0.10654648072E+02  0.51100000000E-03 0. -1.
        -11    1    3    3    0    0  0.38135259780E+01  0.18930162300E+02  0.32758933065E+02  0.38026855259E+02  0.51100000000E-03 0.  1.
         12    1    3    3    0    0 -0.67058742421E+01 -0.27802099794E+02 -0.29831444182E+02  0.41326027686E+02  0.00000000000E+00 0. -1.
</event>
<event>
 7    1  0.2490895E-015  0.9000759E+02  0.7816164E-02  0.1186339E+00
        -11   -1    0    0    0    0  0.00000000000E+00  0.00000000000E+00  0.45593999997E+02  0.45594000000E+02  0.51100000000E-03 0. -1.
         11   -1    0    0    0    0 -0.00000000000E+00 -0.00000000000E+00 -0.45593999997E+02  0.45594000000E+02  0.51100000000E-03 0.  1.
    9900012    2    1    2    0    0  0.89939792080E+00  0.55868374537E+00 -0.52184740652E+00  0.90007589536E+02  0.89999848918E+02 0.  0.
         12    1    1    2    0    0 -0.89939792080E+00 -0.55868374537E+00  0.52184740652E+00  0.11804104638E+01  0.00000000000E+00 0. -1.
         11    1    3    3    0    0  0.10560895397E+02  0.29614349871E+02  0.29758570470E+02  0.43291046956E+02  0.51100000000E-03 0. -1.
        -11    1    3    3    0    0  0.40504031286E+01 -0.18340935802E+01 -0.72868019724E+01  0.85362256303E+01  0.51100000000E-03 0.  1.
        -12    1    3    3    0    0 -0.13711900605E+02 -0.27221572545E+02 -0.22993615904E+02  0.38180316950E+02  0.00000000000E+00 0.  1.
</event>
<event>
 7    1  0.2490895E-015  0.9000776E+02  0.7816164E-02  0.1186339E+00
        -11   -1    0    0    0    0  0.00000000000E+00  0.00000000000E+00  0.45593999997E+02  0.45594000000E+02  0.51100000000E-03 0.  1.
         11   -1    0    0    0    0 -0.00000000000E+00 -0.00000000000E+00 -0.45593999997E+02  0.45594000000E+02  0.51100000000E-03 0. -1.
    9900012    2    1    2    0    0 -0.74660206655E+00 -0.78358714850E+00  0.47068769986E+00  0.90007758340E+02  0.90000019950E+02 0.  0.
         12    1    1    2    0    0  0.74660206655E+00  0.78358714850E+00 -0.47068769986E+00  0.11802416599E+01  0.00000000000E+00 0. -1.
         11    1    3    3    0    0  0.43590257823E+01  0.55255399296E+01 -0.25326183029E+01  0.74797628983E+01  0.51100000000E-03 0. -1.
        -11    1    3    3    0    0 -0.31758235572E+02  0.25237134344E+02 -0.35230828157E+01  0.40717448218E+02  0.51100000000E-03 0.  1.
         12    1    3    3    0    0  0.26652607723E+02 -0.31546261422E+02  0.65263888185E+01  0.41810547224E+02  0.00000000000E+00 0. -1.
</event>
<event>
 7    1  0.2490895E-015  0.9000773E+02  0.7816164E-02  0.1186339E+00
        -11   -1    0    0    0    0  0.00000000000E+00  0.00000000000E+00  0.45593999997E+02  0.45594000000E+02  0.51100000000E-03 0. -1.
         11   -1    0    0    0    0 -0.00000000000E+00 -0.00000000000E+00 -0.45593999997E+02  0.45594000000E+02  0.51100000000E-03 0.  1.
    9900012    2    1    2    0    0  0.13707636337E+00  0.10744873508E+01 -0.46875844995E+00  0.90007725676E+02  0.89999986854E+02 0.  0.
         12    1    1    2    0    0 -0.13707636337E+00 -0.10744873508E+01  0.46875844995E+00  0.11802743244E+01  0.00000000000E+00 0. -1.
         11    1    3    3    0    0 -0.27360074643E+02 -0.29163087726E+01  0.18115164238E+01  0.27574628436E+02  0.51100000000E-03 0. -1.
        -11    1    3    3    0    0  0.77842718747E+00  0.25262242885E+02  0.84266708606E+01  0.26641990288E+02  0.51100000000E-03 0.  1.
         12    1    3    3    0    0  0.26718723819E+02 -0.21271446762E+02 -0.10706945734E+02  0.35791106952E+02  0.00000000000E+00 0. -1.
</event>
<event>
 7    1  0.2490895E-015  0.9000773E+02  0.7816164E-02  0.1186339E+00
        -11   -1    0    0    0    0  0.00000000000E+00  0.00000000000E+00  0.45593999997E+02  0.45594000000E+02  0.51100000000E-03 0.  1.
         11   -1    0    0    0    0 -0.00000000000E+00 -0.00000000000E+00 -0.45593999997E+02  0.45594000000E+02  0.51100000000E-03 0. -1.
    9900012    2    1    2    0    0 -0.41940491700E+00  0.11017331178E+01  0.57581786173E-01  0.90007732230E+02  0.89999993495E+02 0.  0.
         12    1    1    2    0    0  0.41940491700E+00 -0.11017331178E+01 -0.57581786173E-01  0.11802677702E+01  0.00000000000E+00 0. -1.
         11    1    3    3    0    0  0.80588952553E+01 -0.84820235262E+01 -0.46431974011E+01  0.12587684386E+02  0.51100000000E-03 0. -1.
        -11    1    3    3    0    0 -0.26823840948E+02 -0.22146056278E+02  0.17057175311E+02  0.38741624665E+02  0.51100000000E-03 0.  1.
         12    1    3    3    0    0  0.18345540776E+02  0.31729812922E+02 -0.12356396124E+02  0.38678423178E+02  0.00000000000E+00 0. -1.
</event>
<event>
 7    1  0.2490895E-015  0.9000785E+02  0.7816164E-02  0.1186339E+00
        -11   -1    0    0    0    0  0.00000000000E+00  0.00000000000E+00  0.45593999997E+02  0.45594000000E+02  0.51100000000E-03 0.  1.
         11   -1    0    0    0    0 -0.00000000000E+00 -0.00000000000E+00 -0.45593999997E+02  0.45594000000E+02  0.51100000000E-03 0. -1.
    9900012    2    1    2    0    0  0.60474452541E+00  0.84652191659E+00  0.55716373380E+00  0.90007853093E+02  0.90000115954E+02 0.  0.
         12    1    1    2    0    0 -0.60474452541E+00 -0.84652191659E+00 -0.55716373380E+00  0.11801469072E+01  0.00000000000E+00 0. -1.
         11    1    3    3    0    0  0.13320160406E+01  0.75630682867E+01  0.34065517869E+01  0.84011227809E+01  0.51100000000E-03 0. -1.
        -11    1    3    3    0    0  0.14280915410E+02 -0.23090233801E+02  0.30944943778E+02  0.41166648972E+02  0.51100000000E-03 0.  1.
         12    1    3    3    0    0 -0.15008186925E+02  0.16373687431E+02 -0.33794331831E+02  0.40440081340E+02  0.00000000000E+00 0. -1.
</event>
<event>
 7    1  0.2490895E-015  0.9000661E+02  0.7816164E-02  0.1186341E+00
        -11   -1    0    0    0    0  0.00000000000E+00  0.00000000000E+00  0.45593999997E+02  0.45594000000E+02  0.51100000000E-03 0. -1.
         11   -1    0    0    0    0 -0.00000000000E+00 -0.00000000000E+00 -0.45593999997E+02  0.45594000000E+02  0.51100000000E-03 0.  1.
    9900012    2    1    2    0    0 -0.91790638399E+00  0.46059943286E+00 -0.58394341466E+00  0.90006605113E+02  0.89998851493E+02 0.  0.
         12    1    1    2    0    0  0.91790638399E+00 -0.46059943286E+00  0.58394341466E+00  0.11813948869E+01  0.00000000000E+00 0. -1.
         11    1    3    3    0    0 -0.98167438264E+01 -0.41218660451E+01 -0.47037504605E+01  0.11639738300E+02  0.51100000000E-03 0. -1.
        -11    1    3    3    0    0 -0.19725900501E+02  0.95648592128E+01 -0.27668449051E+02  0.35300718908E+02  0.51100000000E-03 0.  1.
         12    1    3    3    0    0  0.28624737943E+02 -0.49823937348E+01  0.31788256097E+02  0.43066147904E+02  0.00000000000E+00 0. -1.
</event>
<event>
 7    1  0.2633444E-015  0.9000764E+02  0.7816164E-02  0.1186339E+00
        -11   -1    0    0    0    0  0.00000000000E+00  0.00000000000E+00  0.45593999997E+02  0.45594000000E+02  0.51100000000E-03 0.  1.
         11   -1    0    0    0    0 -0.00000000000E+00 -0.00000000000E+00 -0.45593999997E+02  0.45594000000E+02  0.51100000000E-03 0. -1.
    9900012    2    1    2    0    0  0.36014681645E+00  0.17104209626E+00  0.11109832070E+01  0.90007642082E+02  0.89999902158E+02 0.  0.
         12    1    1    2    0    0 -0.36014681645E+00 -0.17104209626E+00 -0.11109832070E+01  0.11803579179E+01  0.00000000000E+00 0. -1.
         11    1    3    3    0    0  0.24738209516E+02  0.10260014431E+01 -0.26674724503E+02  0.36394678411E+02  0.51100000000E-03 0. -1.
        -11    1    3    3    0    0  0.96086380571E+01 -0.12416869983E+01 -0.37013733570E-01  0.96886057920E+01  0.51100000000E-03 0.  1.
        -12    1    3    3    0    0 -0.33986700757E+02  0.38672765139E+00  0.27822721444E+02  0.43924357880E+02  0.00000000000E+00 0.  1.
</event>
<event>
 7    1  0.2490895E-015  0.9000799E+02  0.7816164E-02  0.1186339E+00
        -11   -1    0    0    0    0  0.00000000000E+00  0.00000000000E+00  0.45593999997E+02  0.45594000000E+02  0.51100000000E-03 0.  1.
         11   -1    0    0    0    0 -0.00000000000E+00 -0.00000000000E+00 -0.45593999997E+02  0.45594000000E+02  0.51100000000E-03 0. -1.
    9900012    2    1    2    0    0  0.53446646907E+00  0.39965487806E+00  0.97315690580E+00  0.90007994580E+02  0.90000259308E+02 0.  0.
         12    1    1    2    0    0 -0.53446646907E+00 -0.39965487806E+00 -0.97315690580E+00  0.11800054201E+01  0.00000000000E+00 0. -1.
         11    1    3    3    0    0  0.39653800214E+02 -0.62496527379E+01  0.18555601106E+02  0.44224341300E+02  0.51100000000E-03 0. -1.
        -11    1    3    3    0    0 -0.91357597402E+01 -0.37211878757E+01 -0.81284480703E+00  0.98979827328E+01  0.51100000000E-03 0.  1.
        -12    1    3    3    0    0 -0.29983574005E+02  0.10370495492E+02 -0.16769599393E+02  0.35885670547E+02  0.00000000000E+00 0.  1.
</event>
<event>
 7    1  0.2490895E-015  0.9000741E+02  0.7816164E-02  0.1186340E+00
        -11   -1    0    0    0    0  0.00000000000E+00  0.00000000000E+00  0.45593999997E+02  0.45594000000E+02  0.51100000000E-03 0.  1.
         11   -1    0    0    0    0 -0.00000000000E+00 -0.00000000000E+00 -0.45593999997E+02  0.45594000000E+02  0.51100000000E-03 0. -1.
    9900012    2    1    2    0    0 -0.11104165875E+01  0.23776006188E+00 -0.32287016030E+00  0.90007406935E+02  0.89999663906E+02 0.  0.
         12    1    1    2    0    0  0.11104165875E+01 -0.23776006188E+00  0.32287016030E+00  0.11805930650E+01  0.00000000000E+00 0. -1.
         11    1    3    3    0    0  0.46293693108E+01  0.42608866472E+01 -0.78688817543E+01  0.10074994569E+02  0.51100000000E-03 0. -1.
        -11    1    3    3    0    0  0.21221838236E+02 -0.23040529662E+02  0.27236442565E+02  0.41509712467E+02  0.51100000000E-03 0.  1.
         12    1    3    3    0    0 -0.26961624134E+02  0.19017403076E+02 -0.19690430971E+02  0.38422699899E+02  0.00000000000E+00 0. -1.
</event>
<event>
 7    1  0.2490895E-015  0.9000773E+02  0.7816164E-02  0.1186339E+00
        -11   -1    0    0    0    0  0.00000000000E+00  0.00000000000E+00  0.45593999997E+02  0.45594000000E+02  0.51100000000E-03 0.  1.
         11   -1    0    0    0    0 -0.00000000000E+00 -0.00000000000E+00 -0.45593999997E+02  0.45594000000E+02  0.51100000000E-03 0. -1.
    9900012    2    1    2    0    0  0.88026805607E+00  0.50351402095E-01  0.78462795545E+00  0.90007725395E+02  0.89999986570E+02 0.  0.
         12    1    1    2    0    0 -0.88026805607E+00 -0.50351402095E-01 -0.78462795545E+00  0.11802746048E+01  0.00000000000E+00 0. -1.
         11    1    3    3    0    0  0.73122775250E+01 -0.16967262570E+01 -0.18924465291E+01  0.77414234299E+01  0.51100000000E-03 0. -1.
        -11    1    3    3    0    0  0.98056340351E+01 -0.23434551946E+02  0.31651776887E+02  0.40585264125E+02  0.51100000000E-03 0.  1.
         12    1    3    3    0    0 -0.16237643504E+02  0.25181629605E+02 -0.28974702403E+02  0.41681037840E+02  0.00000000000E+00 0. -1.
</event>
<event>
 7    1  0.2490895E-015  0.9000776E+02  0.7816164E-02  0.1186339E+00
        -11   -1    0    0    0    0  0.00000000000E+00  0.00000000000E+00  0.45593999997E+02  0.45594000000E+02  0.51100000000E-03 0.  1.
         11   -1    0    0    0    0 -0.00000000000E+00 -0.00000000000E+00 -0.45593999997E+02  0.45594000000E+02  0.51100000000E-03 0. -1.
    9900012    2    1    2    0    0 -0.10720835196E+01 -0.46777056186E+00 -0.15744326589E+00  0.90007762416E+02  0.90000024080E+02 0.  0.
         12    1    1    2    0    0  0.10720835196E+01  0.46777056186E+00  0.15744326589E+00  0.11802375835E+01  0.00000000000E+00 0. -1.
         11    1    3    3    0    0  0.66584803275E+01  0.65936388208E+01 -0.39080906843E+01  0.10153058959E+02  0.51100000000E-03 0. -1.
        -11    1    3    3    0    0 -0.43184570205E+02 -0.48799080752E+01  0.76240351597E+01  0.44123083743E+02  0.51100000000E-03 0.  1.
         12    1    3    3    0    0  0.35454006358E+02 -0.21815013074E+01 -0.38733877413E+01  0.35731619714E+02  0.00000000000E+00 0. -1.
</event>
<event>
 7    1  0.2490895E-015  0.9000775E+02  0.7816164E-02  0.1186339E+00
        -11   -1    0    0    0    0  0.00000000000E+00  0.00000000000E+00  0.45593999997E+02  0.45594000000E+02  0.51100000000E-03 0. -1.
         11   -1    0    0    0    0 -0.00000000000E+00 -0.00000000000E+00 -0.45593999997E+02  0.45594000000E+02  0.51100000000E-03 0.  1.
    9900012    2    1    2    0    0  0.95616907260E+00 -0.28003363183E+00 -0.63270665841E+00  0.90007747550E+02  0.90000009018E+02 0.  0.
         12    1    1    2    0    0 -0.95616907260E+00  0.28003363183E+00  0.63270665841E+00  0.11802524501E+01  0.00000000000E+00 0. -1.
         11    1    3    3    0    0  0.47769914387E+01  0.20431964461E+01 -0.20071620948E+01  0.55698293383E+01  0.51100000000E-03 0. -1.
        -11    1    3    3    0    0  0.37731578576E+01 -0.33469006543E+02  0.27183052058E+02  0.43281975909E+02  0.51100000000E-03 0.  1.
         12    1    3    3    0    0 -0.75939802236E+01  0.31145776465E+02 -0.25808596621E+02  0.41155942302E+02  0.00000000000E+00 0. -1.
</event>
<event>
 7    1  0.2490895E-015  0.9000776E+02  0.7816164E-02  0.1186339E+00
        -11   -1    0    0    0    0  0.00000000000E+00  0.00000000000E+00  0.45593999997E+02  0.45594000000E+02  0.51100000000E-03 0. -1.
         11   -1    0    0    0    0 -0.00000000000E+00 -0.00000000000E+00 -0.45593999997E+02  0.45594000000E+02  0.51100000000E-03 0.  1.
    9900012    2    1    2    0    0 -0.23046855884E+00  0.91456574085E+00 -0.70952174854E+00  0.90007759617E+02  0.90000021244E+02 0.  0.
         12    1    1    2    0    0  0.23046855884E+00 -0.91456574085E+00  0.70952174854E+00  0.11802403834E+01  0.00000000000E+00 0. -1.
         11    1    3    3    0    0  0.20134873059E+01 -0.18185731763E+01  0.80201150766E+01  0.84666159492E+01  0.51100000000E-03 0. -1.
        -11    1    3    3    0    0  0.38041372492E+02 -0.23383203286E+01  0.55182418614E+01  0.38510579800E+02  0.51100000000E-03 0.  1.
         12    1    3    3    0    0 -0.40285328357E+02  0.50714592457E+01 -0.14247878687E+02  0.43030563867E+02  0.00000000000E+00 0. -1.
</event>
<event>
 7    1  0.2490895E-015  0.9000765E+02  0.7816164E-02  0.1186339E+00
        -11   -1    0    0    0    0  0.00000000000E+00  0.00000000000E+00  0.45593999997E+02  0.45594000000E+02  0.51100000000E-03 0.  1.
         11   -1    0    0    0    0 -0.00000000000E+00 -0.00000000000E+00 -0.45593999997E+02  0.45594000000E+02  0.51100000000E-03 0. -1.
    9900012    2    1    2    0    0 -0.87512622010E+00  0.26017627757E+00  0.74812373659E+00  0.90007649746E+02  0.89999909923E+02 0.  0.
         12    1    1    2    0    0  0.87512622010E+00 -0.26017627757E+00 -0.74812373659E+00  0.11803502538E+01  0.00000000000E+00 0. -1.
         11    1    3    3    0    0 -0.60650286423E+01 -0.13315559675E+02  0.30612039317E+00  0.14634972219E+02  0.51100000000E-03 0. -1.
        -11    1    3    3    0    0  0.64023322911E+01 -0.13277363681E+02  0.31210396038E+02  0.34516185568E+02  0.51100000000E-03 0.  1.
         12    1    3    3    0    0 -0.12124298689E+01  0.26853099634E+02 -0.30768392695E+02  0.40856491958E+02  0.00000000000E+00 0. -1.
</event>
<event>
 7    1  0.2490895E-015  0.9000783E+02  0.7816164E-02  0.1186339E+00
        -11   -1    0    0    0    0  0.00000000000E+00  0.00000000000E+00  0.45593999997E+02  0.45594000000E+02  0.51100000000E-03 0.  1.
         11   -1    0    0    0    0 -0.00000000000E+00 -0.00000000000E+00 -0.45593999997E+02  0.45594000000E+02  0.51100000000E-03 0. -1.
    9900012    2    1    2    0    0  0.32956080258E+00  0.40699284557E+00  0.10576183164E+01  0.90007826283E+02  0.90000088790E+02 0.  0.
         12    1    1    2    0    0 -0.32956080258E+00 -0.40699284557E+00 -0.10576183164E+01  0.11801737170E+01  0.00000000000E+00 0. -1.
         11    1    3    3    0    0 -0.32330910336E+02 -0.77605914577E+01  0.19089875602E+02  0.38339769087E+02  0.51100000000E-03 0. -1.
        -11    1    3    3    0    0 -0.55770553368E+01  0.61363541460E+00 -0.10594110183E+02  0.11988130192E+02  0.51100000000E-03 0.  1.
        -12    1    3    3    0    0  0.38237526475E+02  0.75539488887E+01 -0.74381471024E+01  0.39679927004E+02  0.00000000000E+00 0.  1.
</event>
<event>
 7    1  0.2490895E-015  0.9000772E+02  0.7816164E-02  0.1186339E+00
        -11   -1    0    0    0    0  0.00000000000E+00  0.00000000000E+00  0.45593999997E+02  0.45594000000E+02  0.51100000000E-03 0. -1.
         11   -1    0    0    0    0 -0.00000000000E+00 -0.00000000000E+00 -0.45593999997E+02  0.45594000000E+02  0.51100000000E-03 0.  1.
    9900012    2    1    2    0    0 -0.65190257076E+00  0.98098682807E+00 -0.75848315807E-01  0.90007718218E+02  0.89999979298E+02 0.  0.
         12    1    1    2    0    0  0.65190257076E+00 -0.98098682807E+00  0.75848315807E-01  0.11802817823E+01  0.00000000000E+00 0. -1.
         11    1    3    3    0    0 -0.28337641879E-01 -0.21818282519E+02 -0.22843017714E+02  0.31588632665E+02  0.51100000000E-03 0. -1.
        -11    1    3    3    0    0  0.20319645815E+02  0.12942656182E+01 -0.61327716239E+00  0.20370057404E+02  0.51100000000E-03 0.  1.
        -12    1    3    3    0    0 -0.20943210743E+02  0.21505003729E+02  0.23380446561E+02  0.38049028148E+02  0.00000000000E+00 0.  1.
</event>
<event>
 7    1  0.2490895E-015  0.9000773E+02  0.7816164E-02  0.1186339E+00
        -11   -1    0    0    0    0  0.00000000000E+00  0.00000000000E+00  0.45593999997E+02  0.45594000000E+02  0.51100000000E-03 0.  1.
         11   -1    0    0    0    0 -0.00000000000E+00 -0.00000000000E+00 -0.45593999997E+02  0.45594000000E+02  0.51100000000E-03 0. -1.
    9900012    2    1    2    0    0 -0.27426147151E+00 -0.25566055791E-01  0.11476778047E+01  0.90007729979E+02  0.89999991215E+02 0.  0.
         12    1    1    2    0    0  0.27426147151E+00  0.25566055791E-01 -0.11476778047E+01  0.11802700205E+01  0.00000000000E+00 0. -1.
         11    1    3    3    0    0  0.11253667608E+02  0.32608301124E+02 -0.18597175628E+02  0.39189300561E+02  0.51100000000E-03 0. -1.
        -11    1    3    3    0    0 -0.10258466865E+02  0.33595428872E+01  0.40072990612E+01  0.11514387385E+02  0.51100000000E-03 0.  1.
        -12    1    3    3    0    0 -0.12694622151E+01 -0.35993410067E+02  0.15737554371E+02  0.39304042034E+02  0.00000000000E+00 0.  1.
</event>
<event>
 7    1  0.2490895E-015  0.9000779E+02  0.7816164E-02  0.1186339E+00
        -11   -1    0    0    0    0  0.00000000000E+00  0.00000000000E+00  0.45593999997E+02  0.45594000000E+02  0.51100000000E-03 0. -1.
         11   -1    0    0    0    0 -0.00000000000E+00 -0.00000000000E+00 -0.45593999997E+02  0.45594000000E+02  0.51100000000E-03 0.  1.
    9900012    2    1    2    0    0 -0.60178863040E+00 -0.22224797094E+00 -0.99062791498E+00  0.90007793500E+02  0.90000055574E+02 0.  0.
         12    1    1    2    0    0  0.60178863040E+00  0.22224797094E+00  0.99062791498E+00  0.11802064998E+01  0.00000000000E+00 0. -1.
         11    1    3    3    0    0 -0.16798875710E+00 -0.67085139919E+01 -0.99933224587E+01  0.12037394827E+02  0.51100000000E-03 0. -1.
        -11    1    3    3    0    0  0.34996327067E+02  0.12791226100E+02 -0.80928421707E+01  0.38129417357E+02  0.51100000000E-03 0.  1.
         12    1    3    3    0    0 -0.35430126941E+02 -0.63049600792E+01  0.17095536714E+02  0.39840981316E+02  0.00000000000E+00 0. -1.
</event>
<event>
 7    1  0.2490895E-015  0.9000805E+02  0.7816164E-02  0.1186338E+00
        -11   -1    0    0    0    0  0.00000000000E+00  0.00000000000E+00  0.45593999997E+02  0.45594000000E+02  0.51100000000E-03 0.  1.
         11   -1    0    0    0    0 -0.00000000000E+00 -0.00000000000E+00 -0.45593999997E+02  0.45594000000E+02  0.51100000000E-03 0. -1.
    9900012    2    1    2    0    0 -0.64769455409E+00  0.67203516517E+00  0.72190449400E+00  0.90008048477E+02  0.90000313916E+02 0.  0.
         12    1    1    2    0    0  0.64769455409E+00 -0.67203516517E+00 -0.72190449400E+00  0.11799515232E+01  0.00000000000E+00 0. -1.
         11    1    3    3    0    0 -0.58360519175E+00  0.55860726082E+01 -0.71959462197E+01  0.91283319649E+01  0.51100000000E-03 0. -1.
        -11    1    3    3    0    0 -0.21546684720E+02 -0.16093676539E+02  0.35265861967E+02  0.44350276972E+02  0.51100000000E-03 0.  1.
         12    1    3    3    0    0  0.21482595357E+02  0.11179639096E+02 -0.27348011253E+02  0.36529439540E+02  0.00000000000E+00 0. -1.
</event>
<event>
 7    1  0.2490895E-015  0.9000775E+02  0.7816164E-02  0.1186339E+00
        -11   -1    0    0    0    0  0.00000000000E+00  0.00000000000E+00  0.45593999997E+02  0.45594000000E+02  0.51100000000E-03 0.  1.
         11   -1    0    0    0    0 -0.00000000000E+00 -0.00000000000E+00 -0.45593999997E+02  0.45594000000E+02  0.51100000000E-03 0. -1.
    9900012    2    1    2    0    0  0.10934710601E+01  0.35821494890E+00 -0.26267376020E+00  0.90007748157E+02  0.90000009633E+02 0.  0.
         12    1    1    2    0    0 -0.10934710601E+01 -0.35821494890E+00  0.26267376020E+00  0.11802518431E+01  0.00000000000E+00 0. -1.
         11    1    3    3    0    0 -0.70157794959E+01 -0.53933160048E+01  0.46586886495E+01  0.10000619964E+02  0.51100000000E-03 0. -1.
        -11    1    3    3    0    0  0.12334931713E+02 -0.33498318562E+02 -0.15831960412E+02  0.39050465524E+02  0.51100000000E-03 0.  1.
         12    1    3    3    0    0 -0.42256811567E+01  0.39249849516E+02  0.10910598003E+02  0.40956662670E+02  0.00000000000E+00 0. -1.
</event>
<event>
 7    1  0.2490895E-015  0.9000782E+02  0.7816164E-02  0.1186339E+00
        -11   -1    0    0    0    0  0.00000000000E+00  0.00000000000E+00  0.45593999997E+02  0.45594000000E+02  0.51100000000E-03 0. -1.
         11   -1    0    0    0    0 -0.00000000000E+00 -0.00000000000E+00 -0.45593999997E+02  0.45594000000E+02  0.51100000000E-03 0.  1.
    9900012    2    1    2    0    0 -0.93452437911E+00 -0.56629746617E+00 -0.44587467687E+00  0.90007816598E+02  0.90000078977E+02 0.  0.
         12    1    1    2    0    0  0.93452437911E+00  0.56629746617E+00  0.44587467687E+00  0.11801834022E+01  0.00000000000E+00 0. -1.
         11    1    3    3    0    0  0.18453086593E+01 -0.32334398585E+02  0.14892239713E+02  0.35646841372E+02  0.51100000000E-03 0. -1.
        -11    1    3    3    0    0 -0.12861793818E+02 -0.47630853562E+01 -0.69354260947E+00  0.13732943018E+02  0.51100000000E-03 0.  1.
        -12    1    3    3    0    0  0.10081960779E+02  0.36531186475E+02 -0.14644571780E+02  0.40628032208E+02  0.00000000000E+00 0.  1.
</event>
<event>
 7    1  0.2490895E-015  0.9000768E+02  0.7816164E-02  0.1186339E+00
        -11   -1    0    0    0    0  0.00000000000E+00  0.00000000000E+00  0.45593999997E+02  0.45594000000E+02  0.51100000000E-03 0. -1.
         11   -1    0    0    0    0 -0.00000000000E+00 -0.00000000000E+00 -0.45593999997E+02  0.45594000000E+02  0.51100000000E-03 0.  1.
    9900012    2    1    2    0    0 -0.24492003570E+00  0.94040573389E-01 -0.11507941328E+01  0.90007679455E+02  0.89999940024E+02 0.  0.
         12    1    1    2    0    0  0.24492003570E+00 -0.94040573389E-01  0.11507941328E+01  0.11803205452E+01  0.00000000000E+00 0. -1.
         11    1    3    3    0    0 -0.49876479580E+00  0.10090802948E+02 -0.41002411737E+01  0.10903442043E+02  0.51100000000E-03 0. -1.
        -11    1    3    3    0    0 -0.15378455640E+02  0.24878940745E+02  0.21810219254E+02  0.36484849659E+02  0.51100000000E-03 0.  1.
         12    1    3    3    0    0  0.15632300400E+02 -0.34875703119E+02 -0.18860772213E+02  0.42619387752E+02  0.00000000000E+00 0. -1.
</event>
<event>
 7    1  0.2490895E-015  0.9000769E+02  0.7816164E-02  0.1186339E+00
        -11   -1    0    0    0    0  0.00000000000E+00  0.00000000000E+00  0.45593999997E+02  0.45594000000E+02  0.51100000000E-03 0.  1.
         11   -1    0    0    0    0 -0.00000000000E+00 -0.00000000000E+00 -0.45593999997E+02  0.45594000000E+02  0.51100000000E-03 0. -1.
    9900012    2    1    2    0    0 -0.15145136318E+00 -0.69182146277E+00  0.94423778734E+00  0.90007686715E+02  0.89999947380E+02 0.  0.
         12    1    1    2    0    0  0.15145136318E+00  0.69182146277E+00 -0.94423778734E+00  0.11803132850E+01  0.00000000000E+00 0. -1.
         11    1    3    3    0    0  0.63745458906E+01 -0.56687066899E+01 -0.22296837749E+01  0.88170607826E+01  0.51100000000E-03 0. -1.
        -11    1    3    3    0    0 -0.24160885393E+02 -0.10934621093E+02 -0.30222953184E+02  0.40208720707E+02  0.51100000000E-03 0.  1.
        -12    1    3    3    0    0  0.17634888140E+02  0.15911506320E+02  0.33396874747E+02  0.40981905226E+02  0.00000000000E+00 0.  1.
</event>
<event>
 7    1  0.2490895E-015  0.9000772E+02  0.7816164E-02  0.1186339E+00
        -11   -1    0    0    0    0  0.00000000000E+00  0.00000000000E+00  0.45593999997E+02  0.45594000000E+02  0.51100000000E-03 0. -1.
         11   -1    0    0    0    0 -0.00000000000E+00 -0.00000000000E+00 -0.45593999997E+02  0.45594000000E+02  0.51100000000E-03 0.  1.
    9900012    2    1    2    0    0 -0.61653299544E+00 -0.10002956143E+01  0.11114269444E+00  0.90007721665E+02  0.89999982791E+02 0.  0.
         12    1    1    2    0    0  0.61653299544E+00  0.10002956143E+01 -0.11114269444E+00  0.11802783354E+01  0.00000000000E+00 0. -1.
         11    1    3    3    0    0 -0.20340193610E+02  0.33338576427E+02 -0.82818453685E+01  0.39922088087E+02  0.51100000000E-03 0. -1.
        -11    1    3    3    0    0 -0.54803413617E+01 -0.29864607945E+01  0.76218737162E+01  0.98511952942E+01  0.51100000000E-03 0.  1.
        -12    1    3    3    0    0  0.25204001976E+02 -0.31352411247E+02  0.77111434679E+00  0.40234438283E+02  0.00000000000E+00 0.  1.
</event>
<event>
 7    1  0.2490895E-015  0.9000770E+02  0.7816164E-02  0.1186339E+00
        -11   -1    0    0    0    0  0.00000000000E+00  0.00000000000E+00  0.45593999997E+02  0.45594000000E+02  0.51100000000E-03 0. -1.
         11   -1    0    0    0    0 -0.00000000000E+00 -0.00000000000E+00 -0.45593999997E+02  0.45594000000E+02  0.51100000000E-03 0.  1.
    9900012    2    1    2    0    0 -0.49646165295E+00  0.20984723648E+00 -0.10500465358E+01  0.90007700139E+02  0.89999960980E+02 0.  0.
         12    1    1    2    0    0  0.49646165295E+00 -0.20984723648E+00  0.10500465358E+01  0.11802998614E+01  0.00000000000E+00 0. -1.
         11    1    3    3    0    0 -0.14687365285E+02  0.77414765938E+01  0.19065383532E+02  0.25281178935E+02  0.51100000000E-03 0. -1.
        -11    1    3    3    0    0 -0.68608767826E+01  0.16539875495E+02 -0.26630888508E+02  0.32091172222E+02  0.51100000000E-03 0.  1.
         12    1    3    3    0    0  0.21051780415E+02 -0.24071504852E+02  0.65154584400E+01  0.32635348982E+02  0.00000000000E+00 0. -1.
</event>
<event>
 7    1  0.2490895E-015  0.9000802E+02  0.7816164E-02  0.1186338E+00
        -11   -1    0    0    0    0  0.00000000000E+00  0.00000000000E+00  0.45593999997E+02  0.45594000000E+02  0.51100000000E-03 0. -1.
         11   -1    0    0    0    0 -0.00000000000E+00 -0.00000000000E+00 -0.45593999997E+02  0.45594000000E+02  0.51100000000E-03 0.  1.
    9900012    2    1    2    0    0 -0.13912314015E+00 -0.17883776859E-01 -0.11716146688E+01  0.90008018640E+02  0.90000283686E+02 0.  0.
         12    1    1    2    0    0  0.13912314015E+00  0.17883776859E-01  0.11716146688E+01  0.11799813599E+01  0.00000000000E+00 0. -1.
         11    1    3    3    0    0 -0.28584766047E+02  0.26147749471E+02 -0.23843978814E+01  0.38813386942E+02  0.51100000000E-03 0. -1.
        -11    1    3    3    0    0 -0.51590531865E+01 -0.35305455978E+00 -0.63097000659E+01  0.81579894880E+01  0.51100000000E-03 0.  1.
        -12    1    3    3    0    0  0.33604696094E+02 -0.25812578688E+02  0.75224832785E+01  0.43036642210E+02  0.00000000000E+00 0.  1.
</event>
<event>
 7    1  0.2490895E-015  0.9000770E+02  0.7816164E-02  0.1186339E+00
        -11   -1    0    0    0    0  0.00000000000E+00  0.00000000000E+00  0.45593999997E+02  0.45594000000E+02  0.51100000000E-03 0.  1.
         11   -1    0    0    0    0 -0.00000000000E+00 -0.00000000000E+00 -0.45593999997E+02  0.45594000000E+02  0.51100000000E-03 0. -1.
    9900012    2    1    2    0    0  0.29579676312E+00 -0.39430713444E+00  0.10724422595E+01  0.90007700783E+02  0.89999961633E+02 0.  0.
         12    1    1    2    0    0 -0.29579676312E+00  0.39430713444E+00 -0.10724422595E+01  0.11802992169E+01  0.00000000000E+00 0. -1.
         11    1    3    3    0    0 -0.86582636295E+01 -0.26704980713E+02 -0.22440904441E+02  0.35940446802E+02  0.51100000000E-03 0. -1.
        -11    1    3    3    0    0  0.14072170420E+01  0.12334758807E+02 -0.10672587789E+02  0.16371642099E+02  0.51100000000E-03 0.  1.
        -12    1    3    3    0    0  0.75468433506E+01  0.13975914771E+02  0.34185934489E+02  0.37695611882E+02  0.00000000000E+00 0.  1.
</event>
<event>
 7    1  0.2490895E-015  0.9000797E+02  0.7816164E-02  0.1186339E+00
        -11   -1    0    0    0    0  0.00000000000E+00  0.00000000000E+00  0.45593999997E+02  0.45594000000E+02  0.51100000000E-03 0. -1.
         11   -1    0    0    0    0 -0.00000000000E+00 -0.00000000000E+00 -0.45593999997E+02  0.45594000000E+02  0.51100000000E-03 0.  1.
    9900012    2    1    2    0    0 -0.43824758448E+00  0.86697401684E+00 -0.66989833389E+00  0.90007970903E+02  0.90000235319E+02 0.  0.
         12    1    1    2    0    0  0.43824758448E+00 -0.86697401684E+00  0.66989833389E+00  0.11800290966E+01  0.00000000000E+00 0. -1.
         11    1    3    3    0    0  0.21754348624E+02  0.30585695912E+02 -0.11715363477E+02  0.39319031272E+02  0.51100000000E-03 0. -1.
        -11    1    3    3    0    0 -0.78005320960E+01  0.66592250961E+01  0.10446589319E+01  0.10309456455E+02  0.51100000000E-03 0.  1.
        -12    1    3    3    0    0 -0.14392064112E+02 -0.36377946991E+02  0.10000806211E+02  0.40379483176E+02  0.00000000000E+00 0.  1.
</event>
<event>
 7    1  0.2490895E-015  0.9000750E+02  0.7816164E-02  0.1186340E+00
        -11   -1    0    0    0    0  0.00000000000E+00  0.00000000000E+00  0.45593999997E+02  0.45594000000E+02  0.51100000000E-03 0.  1.
         11   -1    0    0    0    0 -0.00000000000E+00 -0.00000000000E+00 -0.45593999997E+02  0.45594000000E+02  0.51100000000E-03 0. -1.
    9900012    2    1    2    0    0  0.66704107621E+00 -0.84290426588E+00  0.48801100806E+00  0.90007497504E+02  0.89999755671E+02 0.  0.
         12    1    1    2    0    0 -0.66704107621E+00  0.84290426588E+00 -0.48801100806E+00  0.11805024959E+01  0.00000000000E+00 0. -1.
         11    1    3    3    0    0  0.44098888651E+01 -0.70403410328E+01 -0.17667989662E+01  0.84932385172E+01  0.51100000000E-03 0. -1.
        -11    1    3    3    0    0  0.52740422272E+01 -0.17781064471E+02  0.35196339589E+02  0.39783967824E+02  0.51100000000E-03 0.  1.
         12    1    3    3    0    0 -0.90168900162E+01  0.23978501238E+02 -0.32941529614E+02  0.41730291163E+02  0.00000000000E+00 0. -1.
</event>
<event>
 7    1  0.2490895E-015  0.9000775E+02  0.7816164E-02  0.1186339E+00
        -11   -1    0    0    0    0  0.00000000000E+00  0.00000000000E+00  0.45593999997E+02  0.45594000000E+02  0.51100000000E-03 0. -1.
         11   -1    0    0    0    0 -0.00000000000E+00 -0.00000000000E+00 -0.45593999997E+02  0.45594000000E+02  0.51100000000E-03 0.  1.
    9900012    2    1    2    0    0  0.23138532394E+00 -0.11470415642E+01  0.15413117349E+00  0.90007745817E+02  0.90000007262E+02 0.  0.
         12    1    1    2    0    0 -0.23138532394E+00  0.11470415642E+01 -0.15413117349E+00  0.11802541831E+01  0.00000000000E+00 0. -1.
         11    1    3    3    0    0  0.91897448849E+00  0.67335550080E+01  0.80352957109E+01  0.10523842197E+02  0.51100000000E-03 0. -1.
        -11    1    3    3    0    0 -0.15547285712E+02  0.24910195312E+01 -0.39787960105E+02  0.42790244693E+02  0.51100000000E-03 0.  1.
         12    1    3    3    0    0  0.14859696548E+02 -0.10371616103E+02  0.31906795567E+02  0.36693658927E+02  0.00000000000E+00 0. -1.
</event>
<event>
 7    1  0.2490895E-015  0.9000787E+02  0.7816164E-02  0.1186339E+00
        -11   -1    0    0    0    0  0.00000000000E+00  0.00000000000E+00  0.45593999997E+02  0.45594000000E+02  0.51100000000E-03 0. -1.
         11   -1    0    0    0    0 -0.00000000000E+00 -0.00000000000E+00 -0.45593999997E+02  0.45594000000E+02  0.51100000000E-03 0.  1.
    9900012    2    1    2    0    0  0.15841112879E+00  0.38586100319E+00 -0.11039573869E+01  0.90007870892E+02  0.90000133988E+02 0.  0.
         12    1    1    2    0    0 -0.15841112879E+00 -0.38586100319E+00  0.11039573869E+01  0.11801291080E+01  0.00000000000E+00 0. -1.
         11    1    3    3    0    0 -0.18944697714E+02 -0.26608533669E+02 -0.91920406344E+01  0.33932421764E+02  0.51100000000E-03 0. -1.
        -11    1    3    3    0    0 -0.99802246013E+01 -0.58897413014E+01  0.17952009800E+01  0.11726750723E+02  0.51100000000E-03 0.  1.
        -12    1    3    3    0    0  0.29083333445E+02  0.32884135974E+02  0.62928822675E+01  0.44348698405E+02  0.00000000000E+00 0.  1.
</event>
<event>
 7    1  0.2490895E-015  0.9000776E+02  0.7816164E-02  0.1186339E+00
        -11   -1    0    0    0    0  0.00000000000E+00  0.00000000000E+00  0.45593999997E+02  0.45594000000E+02  0.51100000000E-03 0. -1.
         11   -1    0    0    0    0 -0.00000000000E+00 -0.00000000000E+00 -0.45593999997E+02  0.45594000000E+02  0.51100000000E-03 0.  1.
    9900012    2    1    2    0    0 -0.41284315486E-01 -0.11215408000E+01 -0.36524785207E+00  0.90007760976E+02  0.90000022621E+02 0.  0.
         12    1    1    2    0    0  0.41284315486E-01  0.11215408000E+01  0.36524785207E+00  0.11802390242E+01  0.00000000000E+00 0. -1.
         11    1    3    3    0    0 -0.96379373749E+00  0.14545868048E+02  0.37597288605E+02  0.40324524626E+02  0.51100000000E-03 0. -1.
        -11    1    3    3    0    0  0.79800937286E+01 -0.16030740914E+01  0.47097208916E+00  0.81531317560E+01  0.51100000000E-03 0.  1.
        -12    1    3    3    0    0 -0.70575843066E+01 -0.14064334757E+02 -0.38433508546E+02  0.41530104594E+02  0.00000000000E+00 0.  1.
</event>
<event>
 7    1  0.2490895E-015  0.9000759E+02  0.7816164E-02  0.1186339E+00
        -11   -1    0    0    0    0  0.00000000000E+00  0.00000000000E+00  0.45593999997E+02  0.45594000000E+02  0.51100000000E-03 0.  1.
         11   -1    0    0    0    0 -0.00000000000E+00 -0.00000000000E+00 -0.45593999997E+02  0.45594000000E+02  0.51100000000E-03 0. -1.
    9900012    2    1    2    0    0 -0.49858007630E+00  0.93719255952E+00  0.51618892697E+00  0.90007592022E+02  0.89999851437E+02 0.  0.
         12    1    1    2    0    0  0.49858007630E+00 -0.93719255952E+00 -0.51618892697E+00  0.11804079780E+01  0.00000000000E+00 0. -1.
         11    1    3    3    0    0 -0.14879003492E+02  0.29459572876E+02  0.10289064119E+02  0.34570450094E+02  0.51100000000E-03 0. -1.
        -11    1    3    3    0    0  0.21999365376E+02 -0.52809620322E+01  0.92597898167E+01  0.24445947408E+02  0.51100000000E-03 0.  1.
         12    1    3    3    0    0 -0.76189419611E+01 -0.23241418285E+02 -0.19032665009E+02  0.30991194521E+02  0.00000000000E+00 0. -1.
</event>
<event>
 7    1  0.2490895E-015  0.9000758E+02  0.7816164E-02  0.1186339E+00
        -11   -1    0    0    0    0  0.00000000000E+00  0.00000000000E+00  0.45593999997E+02  0.45594000000E+02  0.51100000000E-03 0.  1.
         11   -1    0    0    0    0 -0.00000000000E+00 -0.00000000000E+00 -0.45593999997E+02  0.45594000000E+02  0.51100000000E-03 0. -1.
    9900012    2    1    2    0    0 -0.35179857299E+00 -0.11193893717E+01 -0.12887114386E+00  0.90007575257E+02  0.89999834451E+02 0.  0.
         12    1    1    2    0    0  0.35179857299E+00  0.11193893717E+01  0.12887114386E+00  0.11804247427E+01  0.00000000000E+00 0. -1.
         11    1    3    3    0    0 -0.11176093308E+02  0.23200237044E+01 -0.35364615428E+02  0.37161049450E+02  0.51100000000E-03 0. -1.
        -11    1    3    3    0    0 -0.17141967415E+01 -0.71885894878E+01 -0.60408408364E+01  0.95449487984E+01  0.51100000000E-03 0.  1.
        -12    1    3    3    0    0  0.12538491476E+02  0.37491764116E+01  0.41276585120E+02  0.43301577009E+02  0.00000000000E+00 0.  1.
</event>
<event>
 7    1  0.2490895E-015  0.9000766E+02  0.7816164E-02  0.1186339E+00
        -11   -1    0    0    0    0  0.00000000000E+00  0.00000000000E+00  0.45593999997E+02  0.45594000000E+02  0.51100000000E-03 0.  1.
         11   -1    0    0    0    0 -0.00000000000E+00 -0.00000000000E+00 -0.45593999997E+02  0.45594000000E+02  0.51100000000E-03 0. -1.
    9900012    2    1    2    0    0 -0.11883710348E-01  0.66869038608E+00  0.97257623110E+00  0.90007664209E+02  0.89999924576E+02 0.  0.
         12    1    1    2    0    0  0.11883710348E-01 -0.66869038608E+00 -0.97257623110E+00  0.11803357913E+01  0.00000000000E+00 0. -1.
         11    1    3    3    0    0  0.36012797010E+02 -0.27382773988E+01 -0.14537150410E+02  0.38932614270E+02  0.51100000000E-03 0. -1.
        -11    1    3    3    0    0  0.14984731021E+01  0.97674443424E+01 -0.24458589550E+00  0.98847464885E+01  0.51100000000E-03 0.  1.
        -12    1    3    3    0    0 -0.37523153822E+02 -0.63604765575E+01  0.15754312537E+02  0.41190303450E+02  0.00000000000E+00 0.  1.
</event>
<event>
 7    1  0.2490895E-015  0.9000750E+02  0.7816164E-02  0.1186340E+00
        -11   -1    0    0    0    0  0.00000000000E+00  0.00000000000E+00  0.45593999997E+02  0.45594000000E+02  0.51100000000E-03 0.  1.
         11   -1    0    0    0    0 -0.00000000000E+00 -0.00000000000E+00 -0.45593999997E+02  0.45594000000E+02  0.51100000000E-03 0. -1.
    9900012    2    1    2    0    0  0.84626597515E+00 -0.31815307747E+00  0.75907516872E+00  0.90007499008E+02  0.89999757194E+02 0.  0.
         12    1    1    2    0    0 -0.84626597515E+00  0.31815307747E+00 -0.75907516872E+00  0.11805009924E+01  0.00000000000E+00 0. -1.
         11    1    3    3    0    0  0.11459230471E+02 -0.82505695842E+01 -0.13783188590E+01  0.14187516506E+02  0.51100000000E-03 0. -1.
        -11    1    3    3    0    0  0.23165286503E+02 -0.10093805572E+02  0.21260137562E+02  0.33022853588E+02  0.51100000000E-03 0.  1.
        -12    1    3    3    0    0 -0.33778250999E+02  0.18026222079E+02 -0.19122743534E+02  0.42797128914E+02  0.00000000000E+00 0.  1.
</event>
<event>
 7    1  0.2490895E-015  0.9000772E+02  0.7816164E-02  0.1186339E+00
        -11   -1    0    0    0    0  0.00000000000E+00  0.00000000000E+00  0.45593999997E+02  0.45594000000E+02  0.51100000000E-03 0. -1.
         11   -1    0    0    0    0 -0.00000000000E+00 -0.00000000000E+00 -0.45593999997E+02  0.45594000000E+02  0.51100000000E-03 0.  1.
    9900012    2    1    2    0    0 -0.44652152982E+00  0.10921994136E+01 -0.27833571372E-01  0.90007722175E+02  0.89999983308E+02 0.  0.
         12    1    1    2    0    0  0.44652152982E+00 -0.10921994136E+01  0.27833571372E-01  0.11802778247E+01  0.00000000000E+00 0. -1.
         11    1    3    3    0    0 -0.26423655031E+02 -0.17566219400E+02 -0.23284015373E+02  0.39356409660E+02  0.51100000000E-03 0. -1.
        -11    1    3    3    0    0  0.37842054319E+01 -0.58387985513E+01 -0.38064385930E+01  0.79309995774E+01  0.51100000000E-03 0.  1.
        -12    1    3    3    0    0  0.22192928069E+02  0.24497217364E+02  0.27062620395E+02  0.42720312938E+02  0.00000000000E+00 0.  1.
</event>
<event>
 7    1  0.2490895E-015  0.9000776E+02  0.7816164E-02  0.1186339E+00
        -11   -1    0    0    0    0  0.00000000000E+00  0.00000000000E+00  0.45593999997E+02  0.45594000000E+02  0.51100000000E-03 0.  1.
         11   -1    0    0    0    0 -0.00000000000E+00 -0.00000000000E+00 -0.45593999997E+02  0.45594000000E+02  0.51100000000E-03 0. -1.
    9900012    2    1    2    0    0 -0.66998586604E+00 -0.24013054614E+00  0.94149480110E+00  0.90007764345E+02  0.90000026035E+02 0.  0.
         12    1    1    2    0    0  0.66998586604E+00  0.24013054614E+00 -0.94149480110E+00  0.11802356546E+01  0.00000000000E+00 0. -1.
         11    1    3    3    0    0  0.57621627863E+01 -0.68845470306E+01  0.63097752220E+01  0.10973275327E+02  0.51100000000E-03 0. -1.
        -11    1    3    3    0    0  0.16823768860E+02 -0.30011488764E+02  0.39609185904E+01  0.34632607942E+02  0.51100000000E-03 0.  1.
         12    1    3    3    0    0 -0.23255917513E+02  0.36655905249E+02 -0.93291990113E+01  0.44401881077E+02  0.00000000000E+00 0. -1.
</event>
<event>
 7    1  0.3588617E-015  0.9000778E+02  0.7816164E-02  0.1186339E+00
        -11   -1    0    0    0    0  0.00000000000E+00  0.00000000000E+00  0.45593999997E+02  0.45594000000E+02  0.51100000000E-03 0.  1.
         11   -1    0    0    0    0 -0.00000000000E+00 -0.00000000000E+00 -0.45593999997E+02  0.45594000000E+02  0.51100000000E-03 0. -1.
    9900012    2    1    2    0    0  0.11608520859E+01 -0.10522397455E+00  0.18511902066E+00  0.90007780232E+02  0.90000042131E+02 0.  0.
         12    1    1    2    0    0 -0.11608520859E+01  0.10522397455E+00 -0.18511902066E+00  0.11802197685E+01  0.00000000000E+00 0. -1.
         11    1    3    3    0    0 -0.15438405471E+02 -0.11484555923E+02 -0.30082684486E+02  0.35710044727E+02  0.51100000000E-03 0. -1.
        -11    1    3    3    0    0  0.29710709118E+00 -0.22190579243E+01 -0.92076874439E+01  0.94759695557E+01  0.51100000000E-03 0.  1.
        -12    1    3    3    0    0  0.16302150466E+02  0.13598389872E+02  0.39475490951E+02  0.44821765949E+02  0.00000000000E+00 0.  1.
</event>
<event>
 7    1  0.2490895E-015  0.9000773E+02  0.7816164E-02  0.1186339E+00
        -11   -1    0    0    0    0  0.00000000000E+00  0.00000000000E+00  0.45593999997E+02  0.45594000000E+02  0.51100000000E-03 0.  1.
         11   -1    0    0    0    0 -0.00000000000E+00 -0.00000000000E+00 -0.45593999997E+02  0.45594000000E+02  0.51100000000E-03 0. -1.
    9900012    2    1    2    0    0  0.17818432994E+00 -0.24732892788E+00  0.11402264557E+01  0.90007729851E+02  0.89999991085E+02 0.  0.
         12    1    1    2    0    0 -0.17818432994E+00  0.24732892788E+00 -0.11402264557E+01  0.11802701489E+01  0.00000000000E+00 0. -1.
         11    1    3    3    0    0  0.16025632835E+02  0.24762679980E+02 -0.26777569995E+02  0.39837789630E+02  0.51100000000E-03 0. -1.
        -11    1    3    3    0    0  0.19572028901E+01  0.52938088518E+01  0.79404561776E+01  0.97419659147E+01  0.51100000000E-03 0.  1.
        -12    1    3    3    0    0 -0.17804651396E+02 -0.30303817759E+02  0.19977340273E+02  0.40427974306E+02  0.00000000000E+00 0.  1.
</event>
<event>
 7    1  0.2490895E-015  0.9000769E+02  0.7816164E-02  0.1186339E+00
        -11   -1    0    0    0    0  0.00000000000E+00  0.00000000000E+00  0.45593999997E+02  0.45594000000E+02  0.51100000000E-03 0.  1.
         11   -1    0    0    0    0 -0.00000000000E+00 -0.00000000000E+00 -0.45593999997E+02  0.45594000000E+02  0.51100000000E-03 0. -1.
    9900012    2    1    2    0    0  0.10093806109E+01 -0.54088037617E+00 -0.28587982540E+00  0.90007691535E+02  0.89999952263E+02 0.  0.
         12    1    1    2    0    0 -0.10093806109E+01  0.54088037617E+00  0.28587982540E+00  0.11803084654E+01  0.00000000000E+00 0. -1.
         11    1    3    3    0    0 -0.35751751580E+02  0.11178275666E+02 -0.15521834953E+02  0.40547120101E+02  0.51100000000E-03 0. -1.
        -11    1    3    3    0    0  0.74778563435E+00  0.31926271569E+01  0.95154068624E+01  0.10064542689E+02  0.51100000000E-03 0.  1.
        -12    1    3    3    0    0  0.36013346557E+02 -0.14911783199E+02  0.57205482648E+01  0.39396028745E+02  0.00000000000E+00 0.  1.
</event>
<event>
 7    1  0.2490895E-015  0.9000779E+02  0.7816164E-02  0.1186339E+00
        -11   -1    0    0    0    0  0.00000000000E+00  0.00000000000E+00  0.45593999997E+02  0.45594000000E+02  0.51100000000E-03 0.  1.
         11   -1    0    0    0    0 -0.00000000000E+00 -0.00000000000E+00 -0.45593999997E+02  0.45594000000E+02  0.51100000000E-03 0. -1.
    9900012    2    1    2    0    0 -0.14255657158E+00 -0.81874943826E+00  0.83798316085E+00  0.90007792901E+02  0.90000054967E+02 0.  0.
         12    1    1    2    0    0  0.14255657158E+00  0.81874943826E+00 -0.83798316085E+00  0.11802070990E+01  0.00000000000E+00 0. -1.
         11    1    3    3    0    0  0.33643091684E+02 -0.17600526173E+02  0.30155211532E+01  0.38088443230E+02  0.51100000000E-03 0. -1.
        -11    1    3    3    0    0 -0.86377322276E+00 -0.46156959499E+00  0.12075893111E+02  0.12115541480E+02  0.51100000000E-03 0.  1.
        -12    1    3    3    0    0 -0.32921875033E+02  0.17243346330E+02 -0.14253431103E+02  0.39803808191E+02  0.00000000000E+00 0.  1.
</event>
<event>
 7    1  0.2490895E-015  0.9000766E+02  0.7816164E-02  0.1186339E+00
        -11   -1    0    0    0    0  0.00000000000E+00  0.00000000000E+00  0.45593999997E+02  0.45594000000E+02  0.51100000000E-03 0. -1.
         11   -1    0    0    0    0 -0.00000000000E+00 -0.00000000000E+00 -0.45593999997E+02  0.45594000000E+02  0.51100000000E-03 0.  1.
    9900012    2    1    2    0    0  0.31690714023E+00  0.66671079446E+00 -0.92101510948E+00  0.90007660112E+02  0.89999920426E+02 0.  0.
         12    1    1    2    0    0 -0.31690714023E+00 -0.66671079446E+00  0.92101510948E+00  0.11803398879E+01  0.00000000000E+00 0. -1.
         11    1    3    3    0    0  0.45906625343E+00  0.11286907862E+00 -0.80692206506E+01  0.80830565644E+01  0.51100000000E-03 0. -1.
        -11    1    3    3    0    0  0.37191013427E+02  0.12483245543E+02  0.14914785552E+02  0.41969676284E+02  0.51100000000E-03 0.  1.
         12    1    3    3    0    0 -0.37333172540E+02 -0.11929403827E+02 -0.77665800109E+01  0.39954927264E+02  0.00000000000E+00 0. -1.
</event>
<event>
 7    1  0.2490895E-015  0.9000777E+02  0.7816164E-02  0.1186339E+00
        -11   -1    0    0    0    0  0.00000000000E+00  0.00000000000E+00  0.45593999997E+02  0.45594000000E+02  0.51100000000E-03 0.  1.
         11   -1    0    0    0    0 -0.00000000000E+00 -0.00000000000E+00 -0.45593999997E+02  0.45594000000E+02  0.51100000000E-03 0. -1.
    9900012    2    1    2    0    0 -0.15881865550E+00 -0.53963803784E+00  0.10375507447E+01  0.90007769461E+02  0.90000031218E+02 0.  0.
         12    1    1    2    0    0  0.15881865550E+00  0.53963803784E+00 -0.10375507447E+01  0.11802305390E+01  0.00000000000E+00 0. -1.
         11    1    3    3    0    0 -0.83734745745E+01 -0.59772583026E+01  0.77452372110E-01  0.10288279370E+02  0.51100000000E-03 0. -1.
        -11    1    3    3    0    0 -0.64043458951E+00 -0.19689069502E+01  0.39466021571E+02  0.39520293647E+02  0.51100000000E-03 0.  1.
         12    1    3    3    0    0  0.88550905085E+01  0.74065272150E+01 -0.38505923199E+02  0.40199196443E+02  0.00000000000E+00 0. -1.
</event>
<event>
 7    1  0.2490895E-015  0.9000785E+02  0.7816164E-02  0.1186339E+00
        -11   -1    0    0    0    0  0.00000000000E+00  0.00000000000E+00  0.45593999997E+02  0.45594000000E+02  0.51100000000E-03 0.  1.
         11   -1    0    0    0    0 -0.00000000000E+00 -0.00000000000E+00 -0.45593999997E+02  0.45594000000E+02  0.51100000000E-03 0. -1.
    9900012    2    1    2    0    0 -0.92376899595E+00 -0.45751649937E+00  0.57453845703E+00  0.90007845373E+02  0.90000108132E+02 0.  0.
         12    1    1    2    0    0  0.92376899595E+00  0.45751649937E+00 -0.57453845703E+00  0.11801546270E+01  0.00000000000E+00 0. -1.
         11    1    3    3    0    0  0.65633399169E+01 -0.45063534755E+01 -0.44031467105E+01  0.90979312883E+01  0.51100000000E-03 0. -1.
        -11    1    3    3    0    0 -0.91694720562E+01 -0.27411462335E+02 -0.24404987847E+02  0.37829497977E+02  0.51100000000E-03 0.  1.
         12    1    3    3    0    0  0.16823631433E+01  0.31460299311E+02  0.29382673015E+02  0.43080416107E+02  0.00000000000E+00 0. -1.
</event>
<event>
 7    1  0.2769359E-015  0.9000767E+02  0.7816164E-02  0.1186339E+00
        -11   -1    0    0    0    0  0.00000000000E+00  0.00000000000E+00  0.45593999997E+02  0.45594000000E+02  0.51100000000E-03 0.  1.
         11   -1    0    0    0    0 -0.00000000000E+00 -0.00000000000E+00 -0.45593999997E+02  0.45594000000E+02  0.51100000000E-03 0. -1.
    9900012    2    1    2    0    0 -0.49737612937E+00  0.10566356612E+01 -0.17119065327E+00  0.90007674547E+02  0.89999935051E+02 0.  0.
         12    1    1    2    0    0  0.49737612937E+00 -0.10566356612E+01  0.17119065327E+00  0.11803254527E+01  0.00000000000E+00 0. -1.
         11    1    3    3    0    0  0.39444363511E+01  0.28394334915E+02 -0.22596016973E+02  0.36501737174E+02  0.51100000000E-03 0. -1.
        -11    1    3    3    0    0  0.31519882492E+01  0.88923873108E+01 -0.13216653871E+01  0.95266143863E+01  0.51100000000E-03 0.  1.
        -12    1    3    3    0    0 -0.75938007296E+01 -0.36230086565E+02  0.23746491707E+02  0.43979322987E+02  0.00000000000E+00 0.  1.
</event>
<event>
 7    1  0.2490895E-015  0.9000787E+02  0.7816164E-02  0.1186339E+00
        -11   -1    0    0    0    0  0.00000000000E+00  0.00000000000E+00  0.45593999997E+02  0.45594000000E+02  0.51100000000E-03 0.  1.
         11   -1    0    0    0    0 -0.00000000000E+00 -0.00000000000E+00 -0.45593999997E+02  0.45594000000E+02  0.51100000000E-03 0. -1.
    9900012    2    1    2    0    0 -0.11582585906E+01 -0.19460046494E+00  0.11519429729E+00  0.90007872028E+02  0.90000135139E+02 0.  0.
         12    1    1    2    0    0  0.11582585906E+01  0.19460046494E+00 -0.11519429729E+00  0.11801279718E+01  0.00000000000E+00 0. -1.
         11    1    3    3    0    0 -0.35593684646E+02  0.20458780490E+02  0.79121684950E+00  0.41062125008E+02  0.51100000000E-03 0. -1.
        -11    1    3    3    0    0  0.52693802505E+01  0.50660671391E+01 -0.63061180353E+01  0.96539385444E+01  0.51100000000E-03 0.  1.
        -12    1    3    3    0    0  0.29166045805E+02 -0.25719448094E+02  0.56300954831E+01  0.39291808476E+02  0.00000000000E+00 0.  1.
</event>
<event>
 7    1  0.2490895E-015  0.9000774E+02  0.7816164E-02  0.1186339E+00
        -11   -1    0    0    0    0  0.00000000000E+00  0.00000000000E+00  0.45593999997E+02  0.45594000000E+02  0.51100000000E-03 0.  1.
         11   -1    0    0    0    0 -0.00000000000E+00 -0.00000000000E+00 -0.45593999997E+02  0.45594000000E+02  0.51100000000E-03 0. -1.
    9900012    2    1    2    0    0 -0.35797183150E+00  0.74984627069E-01  0.11221583157E+01  0.90007743328E+02  0.90000004740E+02 0.  0.
         12    1    1    2    0    0  0.35797183150E+00 -0.74984627069E-01 -0.11221583157E+01  0.11802566721E+01  0.00000000000E+00 0. -1.
         11    1    3    3    0    0  0.28930048761E+02  0.22217866078E+02  0.10396002054E+02  0.37929647419E+02  0.51100000000E-03 0. -1.
        -11    1    3    3    0    0  0.80296263816E+01 -0.30538687580E+01 -0.50108347460E+01  0.99453244961E+01  0.51100000000E-03 0.  1.
        -12    1    3    3    0    0 -0.37317646974E+02 -0.19089012692E+02 -0.42630089921E+01  0.42132771413E+02  0.00000000000E+00 0.  1.
</event>
<event>
 7    1  0.2490895E-015  0.9000761E+02  0.7816164E-02  0.1186339E+00
        -11   -1    0    0    0    0  0.00000000000E+00  0.00000000000E+00  0.45593999997E+02  0.45594000000E+02  0.51100000000E-03 0. -1.
         11   -1    0    0    0    0 -0.00000000000E+00 -0.00000000000E+00 -0.45593999997E+02  0.45594000000E+02  0.51100000000E-03 0.  1.
    9900012    2    1    2    0    0  0.33038320180E+00  0.10218819363E+01 -0.48982984133E+00  0.90007606411E+02  0.89999866015E+02 0.  0.
         12    1    1    2    0    0 -0.33038320180E+00 -0.10218819363E+01  0.48982984133E+00  0.11803935891E+01  0.00000000000E+00 0. -1.
         11    1    3    3    0    0 -0.25451649156E+02  0.23097218046E+02 -0.22721283714E+02  0.41201027415E+02  0.51100000000E-03 0. -1.
        -11    1    3    3    0    0 -0.11654055682E+01 -0.93027663763E+01 -0.28938320810E+01  0.98119262515E+01  0.51100000000E-03 0.  1.
        -12    1    3    3    0    0  0.26947437926E+02 -0.12772569733E+02  0.25125285954E+02  0.38994652744E+02  0.00000000000E+00 0.  1.
</event>
<event>
 7    1  0.2490895E-015  0.9000780E+02  0.7816164E-02  0.1186339E+00
        -11   -1    0    0    0    0  0.00000000000E+00  0.00000000000E+00  0.45593999997E+02  0.45594000000E+02  0.51100000000E-03 0. -1.
         11   -1    0    0    0    0 -0.00000000000E+00 -0.00000000000E+00 -0.45593999997E+02  0.45594000000E+02  0.51100000000E-03 0.  1.
    9900012    2    1    2    0    0 -0.11795230105E+01 -0.38777574897E-01  0.94270264982E-02  0.90007802092E+02  0.90000064280E+02 0.  0.
         12    1    1    2    0    0  0.11795230105E+01  0.38777574897E-01 -0.94270264982E-02  0.11801979077E+01  0.00000000000E+00 0. -1.
         11    1    3    3    0    0 -0.34962026581E+02 -0.21311991042E+02  0.86992890852E+01  0.41859549635E+02  0.51100000000E-03 0. -1.
        -11    1    3    3    0    0  0.74549661035E+01 -0.57942387257E+01 -0.19007209539E+00  0.94438260085E+01  0.51100000000E-03 0.  1.
        -12    1    3    3    0    0  0.26327537467E+02  0.27067452193E+02 -0.84997899633E+01  0.38704426448E+02  0.00000000000E+00 0.  1.
</event>
<event>
 7    1  0.2490895E-015  0.9000768E+02  0.7816164E-02  0.1186339E+00
        -11   -1    0    0    0    0  0.00000000000E+00  0.00000000000E+00  0.45593999997E+02  0.45594000000E+02  0.51100000000E-03 0.  1.
         11   -1    0    0    0    0 -0.00000000000E+00 -0.00000000000E+00 -0.45593999997E+02  0.45594000000E+02  0.51100000000E-03 0. -1.
    9900012    2    1    2    0    0  0.81745543077E+00  0.53403546269E+00  0.66311131942E+00  0.90007684839E+02  0.89999945479E+02 0.  0.
         12    1    1    2    0    0 -0.81745543077E+00 -0.53403546269E+00 -0.66311131942E+00  0.11803151607E+01  0.00000000000E+00 0. -1.
         11    1    3    3    0    0 -0.97411646286E+01  0.17807542374E+02 -0.97897344977E+00  0.20321349438E+02  0.51100000000E-03 0. -1.
        -11    1    3    3    0    0  0.32471399073E+02  0.87083989971E+01  0.92260366410E+01  0.34861837634E+02  0.51100000000E-03 0.  1.
         12    1    3    3    0    0 -0.21912779014E+02 -0.25981905908E+02 -0.75839518718E+01  0.34824497767E+02  0.00000000000E+00 0. -1.
</event>
<event>
 7    1  0.2490895E-015  0.9000774E+02  0.7816164E-02  0.1186339E+00
        -11   -1    0    0    0    0  0.00000000000E+00  0.00000000000E+00  0.45593999997E+02  0.45594000000E+02  0.51100000000E-03 0. -1.
         11   -1    0    0    0    0 -0.00000000000E+00 -0.00000000000E+00 -0.45593999997E+02  0.45594000000E+02  0.51100000000E-03 0.  1.
    9900012    2    1    2    0    0  0.79564942000E+00  0.60262050401E+00 -0.62992757688E+00  0.90007738070E+02  0.89999999412E+02 0.  0.
         12    1    1    2    0    0 -0.79564942000E+00 -0.60262050401E+00  0.62992757688E+00  0.11802619300E+01  0.00000000000E+00 0. -1.
         11    1    3    3    0    0 -0.65046581059E+01 -0.63970032802E+01 -0.28141050198E+01  0.95473250372E+01  0.51100000000E-03 0. -1.
        -11    1    3    3    0    0  0.36647689245E+02 -0.58218134648E+01 -0.19368202254E+02  0.41857781808E+02  0.51100000000E-03 0.  1.
         12    1    3    3    0    0 -0.29347381719E+02  0.12821437249E+02  0.21552379697E+02  0.38602631225E+02  0.00000000000E+00 0. -1.
</event>
<event>
 7    1  0.2490895E-015  0.9000769E+02  0.7816164E-02  0.1186339E+00
        -11   -1    0    0    0    0  0.00000000000E+00  0.00000000000E+00  0.45593999997E+02  0.45594000000E+02  0.51100000000E-03 0.  1.
         11   -1    0    0    0    0 -0.00000000000E+00 -0.00000000000E+00 -0.45593999997E+02  0.45594000000E+02  0.51100000000E-03 0. -1.
    9900012    2    1    2    0    0 -0.78772177811E+00  0.62506807591E+00  0.61798963298E+00  0.90007692038E+02  0.89999952773E+02 0.  0.
         12    1    1    2    0    0  0.78772177811E+00 -0.62506807591E+00 -0.61798963298E+00  0.11803079622E+01  0.00000000000E+00 0. -1.
         11    1    3    3    0    0  0.36067704446E+02  0.74230673009E+01 -0.11802782185E+02  0.38668939729E+02  0.51100000000E-03 0. -1.
        -11    1    3    3    0    0 -0.80730367541E+00 -0.42139651550E-01 -0.88862714057E+01  0.89229667001E+01  0.51100000000E-03 0.  1.
        -12    1    3    3    0    0 -0.36048122549E+02 -0.67558595734E+01  0.21307043224E+02  0.42415785609E+02  0.00000000000E+00 0.  1.
</event>
<event>
 7    1  0.2490895E-015  0.9000760E+02  0.7816164E-02  0.1186339E+00
        -11   -1    0    0    0    0  0.00000000000E+00  0.00000000000E+00  0.45593999997E+02  0.45594000000E+02  0.51100000000E-03 0. -1.
         11   -1    0    0    0    0 -0.00000000000E+00 -0.00000000000E+00 -0.45593999997E+02  0.45594000000E+02  0.51100000000E-03 0.  1.
    9900012    2    1    2    0    0  0.70711118803E+00 -0.54527547187E+00 -0.77202537650E+00  0.90007595512E+02  0.89999854973E+02 0.  0.
         12    1    1    2    0    0 -0.70711118803E+00  0.54527547187E+00  0.77202537650E+00  0.11804044876E+01  0.00000000000E+00 0. -1.
         11    1    3    3    0    0 -0.95947566621E+01  0.99578651906E+01  0.11333372189E+02  0.17879143156E+02  0.51100000000E-03 0. -1.
        -11    1    3    3    0    0  0.95475015305E+01 -0.40169427585E+02 -0.92789594649E+01  0.42318279585E+02  0.51100000000E-03 0.  1.
         12    1    3    3    0    0  0.75436631958E+00  0.29666286923E+02 -0.28264381001E+01  0.29810172772E+02  0.00000000000E+00 0. -1.
</event>
<event>
 7    1  0.2490895E-015  0.9000776E+02  0.7816164E-02  0.1186339E+00
        -11   -1    0    0    0    0  0.00000000000E+00  0.00000000000E+00  0.45593999997E+02  0.45594000000E+02  0.51100000000E-03 0. -1.
         11   -1    0    0    0    0 -0.00000000000E+00 -0.00000000000E+00 -0.45593999997E+02  0.45594000000E+02  0.51100000000E-03 0.  1.
    9900012    2    1    2    0    0  0.57102034063E+00  0.84387467795E+00 -0.59562339134E+00  0.90007764462E+02  0.90000026153E+02 0.  0.
         12    1    1    2    0    0 -0.57102034063E+00 -0.84387467795E+00  0.59562339134E+00  0.11802355383E+01  0.00000000000E+00 0. -1.
         11    1    3    3    0    0  0.20165895168E+02  0.16114052887E+02  0.26828998618E+02  0.37230648604E+02  0.51100000000E-03 0. -1.
        -11    1    3    3    0    0 -0.64399273698E+00 -0.28690883351E+01  0.92317237402E+01  0.96887108532E+01  0.51100000000E-03 0.  1.
        -12    1    3    3    0    0 -0.18950882091E+02 -0.12401089874E+02 -0.36656345750E+02  0.43088405004E+02  0.00000000000E+00 0.  1.
</event>
<event>
 7    1  0.2490895E-015  0.9000783E+02  0.7816164E-02  0.1186339E+00
        -11   -1    0    0    0    0  0.00000000000E+00  0.00000000000E+00  0.45593999997E+02  0.45594000000E+02  0.51100000000E-03 0.  1.
         11   -1    0    0    0    0 -0.00000000000E+00 -0.00000000000E+00 -0.45593999997E+02  0.45594000000E+02  0.51100000000E-03 0. -1.
    9900012    2    1    2    0    0 -0.78735187304E+00  0.59676736901E+00  0.64556670913E+00  0.90007826013E+02  0.90000088516E+02 0.  0.
         12    1    1    2    0    0  0.78735187304E+00 -0.59676736901E+00 -0.64556670913E+00  0.11801739874E+01  0.00000000000E+00 0. -1.
         11    1    3    3    0    0  0.95299187464E+01  0.13075062952E+01 -0.14320553634E+02  0.17251295044E+02  0.51100000000E-03 0. -1.
        -11    1    3    3    0    0  0.18589373390E+02 -0.25778212068E+02  0.13317307256E+02  0.34459130768E+02  0.51100000000E-03 0.  1.
         12    1    3    3    0    0 -0.28906644009E+02  0.25067473142E+02  0.16488130872E+01  0.38297400201E+02  0.00000000000E+00 0. -1.
</event>
<event>
 7    1  0.2490895E-015  0.9000773E+02  0.7816164E-02  0.1186339E+00
        -11   -1    0    0    0    0  0.00000000000E+00  0.00000000000E+00  0.45593999997E+02  0.45594000000E+02  0.51100000000E-03 0.  1.
         11   -1    0    0    0    0 -0.00000000000E+00 -0.00000000000E+00 -0.45593999997E+02  0.45594000000E+02  0.51100000000E-03 0. -1.
    9900012    2    1    2    0    0 -0.63727847671E+00  0.43796906980E+00  0.89167960325E+00  0.90007731692E+02  0.89999992951E+02 0.  0.
         12    1    1    2    0    0  0.63727847671E+00 -0.43796906980E+00 -0.89167960325E+00  0.11802683076E+01  0.00000000000E+00 0. -1.
         11    1    3    3    0    0 -0.40335988102E+01  0.22612888391E+02  0.36464209947E+02  0.43095837944E+02  0.51100000000E-03 0. -1.
        -11    1    3    3    0    0  0.75230877298E+01 -0.61561670075E+01 -0.26631691618E+01  0.10079072946E+02  0.51100000000E-03 0.  1.
        -12    1    3    3    0    0 -0.41267673963E+01 -0.16018752313E+02 -0.32909361182E+02  0.36832820802E+02  0.00000000000E+00 0.  1.
</event>
<event>
 7    1  0.2490895E-015  0.9000770E+02  0.7816164E-02  0.1186339E+00
        -11   -1    0    0    0    0  0.00000000000E+00  0.00000000000E+00  0.45593999997E+02  0.45594000000E+02  0.51100000000E-03 0. -1.
         11   -1    0    0    0    0 -0.00000000000E+00 -0.00000000000E+00 -0.45593999997E+02  0.45594000000E+02  0.51100000000E-03 0.  1.
    9900012    2    1    2    0    0  0.30971304367E+00  0.10911947413E+01  0.32631737296E+00  0.90007698699E+02  0.89999959522E+02 0.  0.
         12    1    1    2    0    0 -0.30971304367E+00 -0.10911947413E+01 -0.32631737296E+00  0.11803013008E+01  0.00000000000E+00 0. -1.
         11    1    3    3    0    0 -0.11747020786E+01  0.35348018870E+00 -0.10285412878E+02  0.10358310265E+02  0.51100000000E-03 0. -1.
        -11    1    3    3    0    0 -0.23640198186E+02  0.31100650219E+02  0.97221081553E+00  0.39077546091E+02  0.51100000000E-03 0.  1.
         12    1    3    3    0    0  0.25124613309E+02 -0.30362935666E+02  0.96395194353E+01  0.40571842343E+02  0.00000000000E+00 0. -1.
</event>
<event>
 7    1  0.2490895E-015  0.9000780E+02  0.7816164E-02  0.1186339E+00
        -11   -1    0    0    0    0  0.00000000000E+00  0.00000000000E+00  0.45593999997E+02  0.45594000000E+02  0.51100000000E-03 0. -1.
         11   -1    0    0    0    0 -0.00000000000E+00 -0.00000000000E+00 -0.45593999997E+02  0.45594000000E+02  0.51100000000E-03 0.  1.
    9900012    2    1    2    0    0 -0.67338530705E-01  0.26727256172E-01 -0.11779711484E+01  0.90007803046E+02  0.90000065246E+02 0.  0.
         12    1    1    2    0    0  0.67338530705E-01 -0.26727256172E-01  0.11779711484E+01  0.11801969541E+01  0.00000000000E+00 0. -1.
         11    1    3    3    0    0  0.28336113450E+02  0.25063021368E+02 -0.20181262785E+02  0.42876260721E+02  0.51100000000E-03 0. -1.
        -11    1    3    3    0    0 -0.79586298051E+01  0.26316812849E+01  0.14393525506E+01  0.85051320263E+01  0.51100000000E-03 0.  1.
        -12    1    3    3    0    0 -0.20444822176E+02 -0.27667975396E+02  0.17563939087E+02  0.38626410299E+02  0.00000000000E+00 0.  1.
</event>
<event>
 7    1  0.2490895E-015  0.9000769E+02  0.7816164E-02  0.1186339E+00
        -11   -1    0    0    0    0  0.00000000000E+00  0.00000000000E+00  0.45593999997E+02  0.45594000000E+02  0.51100000000E-03 0.  1.
         11   -1    0    0    0    0 -0.00000000000E+00 -0.00000000000E+00 -0.45593999997E+02  0.45594000000E+02  0.51100000000E-03 0. -1.
    9900012    2    1    2    0    0  0.22137556997E+00 -0.11506246475E+01 -0.14212299712E+00  0.90007685140E+02  0.89999945784E+02 0.  0.
         12    1    1    2    0    0 -0.22137556997E+00  0.11506246475E+01  0.14212299712E+00  0.11803148600E+01  0.00000000000E+00 0. -1.
         11    1    3    3    0    0  0.14729196157E+02 -0.36038158018E+02  0.62068087291E+01  0.39423629052E+02  0.51100000000E-03 0. -1.
        -11    1    3    3    0    0 -0.72738802664E+01 -0.54824750997E+01 -0.21321477053E+01  0.93548341218E+01  0.51100000000E-03 0.  1.
        -12    1    3    3    0    0 -0.72339403202E+01  0.40370008470E+02 -0.42167840209E+01  0.41229221966E+02  0.00000000000E+00 0.  1.
</event>
<event>
 7    1  0.2490895E-015  0.9000771E+02  0.7816164E-02  0.1186339E+00
        -11   -1    0    0    0    0  0.00000000000E+00  0.00000000000E+00  0.45593999997E+02  0.45594000000E+02  0.51100000000E-03 0. -1.
         11   -1    0    0    0    0 -0.00000000000E+00 -0.00000000000E+00 -0.45593999997E+02  0.45594000000E+02  0.51100000000E-03 0.  1.
    9900012    2    1    2    0    0  0.13397927097E+00  0.11652322750E+01 -0.13180944000E+00  0.90007707482E+02  0.89999968421E+02 0.  0.
         12    1    1    2    0    0 -0.13397927097E+00 -0.11652322750E+01  0.13180944000E+00  0.11802925181E+01  0.00000000000E+00 0. -1.
         11    1    3    3    0    0  0.10563521036E+02  0.16451071256E+01  0.23982900718E+01  0.10956557381E+02  0.51100000000E-03 0. -1.
        -11    1    3    3    0    0  0.17504075501E+02 -0.32228604513E+02 -0.25414207342E+01  0.36763221127E+02  0.51100000000E-03 0.  1.
         12    1    3    3    0    0 -0.27933617266E+02  0.31748729662E+02  0.11321222360E-01  0.42287928974E+02  0.00000000000E+00 0. -1.
</event>
<event>
 7    1  0.2490895E-015  0.9000757E+02  0.7816164E-02  0.1186339E+00
        -11   -1    0    0    0    0  0.00000000000E+00  0.00000000000E+00  0.45593999997E+02  0.45594000000E+02  0.51100000000E-03 0.  1.
         11   -1    0    0    0    0 -0.00000000000E+00 -0.00000000000E+00 -0.45593999997E+02  0.45594000000E+02  0.51100000000E-03 0. -1.
    9900012    2    1    2    0    0 -0.95543679775E+00 -0.63464100649E+00 -0.27888946247E+00  0.90007572953E+02  0.89999832116E+02 0.  0.
         12    1    1    2    0    0  0.95543679775E+00  0.63464100649E+00  0.27888946247E+00  0.11804270473E+01  0.00000000000E+00 0. -1.
         11    1    3    3    0    0 -0.57979425969E+01 -0.90740430508E+01 -0.58932862232E+00  0.10784326782E+02  0.51100000000E-03 0. -1.
        -11    1    3    3    0    0 -0.99984337239E+01  0.15140972807E+02 -0.35508984017E+02  0.39876129208E+02  0.51100000000E-03 0.  1.
         12    1    3    3    0    0  0.14840939523E+02 -0.67015707628E+01  0.35819423176E+02  0.39347116963E+02  0.00000000000E+00 0. -1.
</event>
<event>
 7    1  0.2490895E-015  0.9000770E+02  0.7816164E-02  0.1186339E+00
        -11   -1    0    0    0    0  0.00000000000E+00  0.00000000000E+00  0.45593999997E+02  0.45594000000E+02  0.51100000000E-03 0. -1.
         11   -1    0    0    0    0 -0.00000000000E+00 -0.00000000000E+00 -0.45593999997E+02  0.45594000000E+02  0.51100000000E-03 0.  1.
    9900012    2    1    2    0    0 -0.88916956426E+00  0.76889318779E+00  0.10626847204E+00  0.90007698244E+02  0.89999959060E+02 0.  0.
         12    1    1    2    0    0  0.88916956426E+00 -0.76889318779E+00 -0.10626847204E+00  0.11803017565E+01  0.00000000000E+00 0. -1.
         11    1    3    3    0    0  0.13102834100E+02 -0.26277180579E+02 -0.23611124908E+02  0.37678371784E+02  0.51100000000E-03 0. -1.
        -11    1    3    3    0    0 -0.17433884993E+02  0.15973031458E+01  0.20070914402E+00  0.17508055509E+02  0.51100000000E-03 0.  1.
        -12    1    3    3    0    0  0.34418813286E+01  0.25448770621E+02  0.23516684236E+02  0.34821270951E+02  0.00000000000E+00 0.  1.
</event>
<event>
 7    1  0.2490895E-015  0.9000774E+02  0.7816164E-02  0.1186339E+00
        -11   -1    0    0    0    0  0.00000000000E+00  0.00000000000E+00  0.45593999997E+02  0.45594000000E+02  0.51100000000E-03 0. -1.
         11   -1    0    0    0    0 -0.00000000000E+00 -0.00000000000E+00 -0.45593999997E+02  0.45594000000E+02  0.51100000000E-03 0.  1.
    9900012    2    1    2    0    0 -0.44884512508E+00  0.39748183154E+00 -0.10166406620E+01  0.90007740711E+02  0.90000002089E+02 0.  0.
         12    1    1    2    0    0  0.44884512508E+00 -0.39748183154E+00  0.10166406620E+01  0.11802592886E+01  0.00000000000E+00 0. -1.
         11    1    3    3    0    0 -0.22391773154E+02  0.28392352749E+01  0.99241285833E+01  0.24656461431E+02  0.51100000000E-03 0. -1.
        -11    1    3    3    0    0 -0.43630948366E+01  0.25410340833E+02 -0.76791777358E+01  0.26901520194E+02  0.51100000000E-03 0.  1.
        -12    1    3    3    0    0  0.26306022865E+02 -0.27852094277E+02 -0.32615915096E+01  0.38449759086E+02  0.00000000000E+00 0.  1.
</event>
<event>
 7    1  0.2490895E-015  0.9000773E+02  0.7816164E-02  0.1186339E+00
        -11   -1    0    0    0    0  0.00000000000E+00  0.00000000000E+00  0.45593999997E+02  0.45594000000E+02  0.51100000000E-03 0.  1.
         11   -1    0    0    0    0 -0.00000000000E+00 -0.00000000000E+00 -0.45593999997E+02  0.45594000000E+02  0.51100000000E-03 0. -1.
    9900012    2    1    2    0    0 -0.55201050012E+00  0.10061617437E+01 -0.27560983806E+00  0.90007729764E+02  0.89999990997E+02 0.  0.
         12    1    1    2    0    0  0.55201050012E+00 -0.10061617437E+01  0.27560983806E+00  0.11802702359E+01  0.00000000000E+00 0. -1.
         11    1    3    3    0    0  0.17506610430E+01  0.16556782995E+00  0.73522077758E+01  0.75595757972E+01  0.51100000000E-03 0. -1.
        -11    1    3    3    0    0  0.22486211189E+02  0.28953171868E+02  0.13921885171E+02  0.39213961058E+02  0.51100000000E-03 0.  1.
         12    1    3    3    0    0 -0.24788882732E+02 -0.28112577955E+02 -0.21549702785E+02  0.43234192909E+02  0.00000000000E+00 0. -1.
</event>
<event>
 7    1  0.2490895E-015  0.9000748E+02  0.7816164E-02  0.1186340E+00
        -11   -1    0    0    0    0  0.00000000000E+00  0.00000000000E+00  0.45593999997E+02  0.45594000000E+02  0.51100000000E-03 0. -1.
         11   -1    0    0    0    0 -0.00000000000E+00 -0.00000000000E+00 -0.45593999997E+02  0.45594000000E+02  0.51100000000E-03 0.  1.
    9900012    2    1    2    0    0 -0.23848403688E-02 -0.86204543929E+00  0.80654138244E+00  0.90007475952E+02  0.89999733834E+02 0.  0.
         12    1    1    2    0    0  0.23848403688E-02  0.86204543929E+00 -0.80654138244E+00  0.11805240482E+01  0.00000000000E+00 0. -1.
         11    1    3    3    0    0 -0.48823626207E+01  0.18641824729E+02  0.29367870894E+02  0.35125872731E+02  0.51100000000E-03 0. -1.
        -11    1    3    3    0    0 -0.14897309478E+01  0.51932644382E+01  0.83921222548E+01  0.99808321308E+01  0.51100000000E-03 0.  1.
        -12    1    3    3    0    0  0.63697087281E+01 -0.24697134607E+02 -0.36953451766E+02  0.44900771090E+02  0.00000000000E+00 0.  1.
</event>
<event>
 7    1  0.2490895E-015  0.9000779E+02  0.7816164E-02  0.1186339E+00
        -11   -1    0    0    0    0  0.00000000000E+00  0.00000000000E+00  0.45593999997E+02  0.45594000000E+02  0.51100000000E-03 0.  1.
         11   -1    0    0    0    0 -0.00000000000E+00 -0.00000000000E+00 -0.45593999997E+02  0.45594000000E+02  0.51100000000E-03 0. -1.
    9900012    2    1    2    0    0 -0.98489647000E+00 -0.52159746150E+00  0.38833689440E+00  0.90007792174E+02  0.90000054231E+02 0.  0.
         12    1    1    2    0    0  0.98489647000E+00  0.52159746150E+00 -0.38833689440E+00  0.11802078258E+01  0.00000000000E+00 0. -1.
         11    1    3    3    0    0 -0.73290165462E+00 -0.98371816940E+01 -0.12879195431E+01  0.99481669431E+01  0.51100000000E-03 0. -1.
        -11    1    3    3    0    0 -0.33265534883E+02  0.24874337585E+02  0.97838230417E+01  0.42673782056E+02  0.51100000000E-03 0.  1.
         12    1    3    3    0    0  0.33013540068E+02 -0.15558753352E+02 -0.81075666042E+01  0.37385843175E+02  0.00000000000E+00 0. -1.
</event>
<event>
 7    1  0.2490895E-015  0.9000779E+02  0.7816164E-02  0.1186339E+00
        -11   -1    0    0    0    0  0.00000000000E+00  0.00000000000E+00  0.45593999997E+02  0.45594000000E+02  0.51100000000E-03 0. -1.
         11   -1    0    0    0    0 -0.00000000000E+00 -0.00000000000E+00 -0.45593999997E+02  0.45594000000E+02  0.51100000000E-03 0.  1.
    9900012    2    1    2    0    0  0.80085803319E+00 -0.98279162107E-01 -0.86131685717E+00  0.90007788531E+02  0.90000050540E+02 0.  0.
         12    1    1    2    0    0 -0.80085803319E+00  0.98279162107E-01  0.86131685717E+00  0.11802114690E+01  0.00000000000E+00 0. -1.
         11    1    3    3    0    0 -0.80493292681E+01  0.85273534470E+00  0.34297497222E+02  0.35239710203E+02  0.51100000000E-03 0. -1.
        -11    1    3    3    0    0  0.22570219009E+01 -0.39657155585E+01  0.89613877576E+01  0.10056217905E+02  0.51100000000E-03 0.  1.
        -12    1    3    3    0    0  0.65931654004E+01  0.30147010517E+01 -0.44120201836E+02  0.44711860423E+02  0.00000000000E+00 0.  1.
</event>
<event>
 7    1  0.3112755E-015  0.9000842E+02  0.7816164E-02  0.1186338E+00
        -11   -1    0    0    0    0  0.00000000000E+00  0.00000000000E+00  0.45593999997E+02  0.45594000000E+02  0.51100000000E-03 0. -1.
         11   -1    0    0    0    0 -0.00000000000E+00 -0.00000000000E+00 -0.45593999997E+02  0.45594000000E+02  0.51100000000E-03 0.  1.
    9900012    2    1    2    0    0 -0.98725957355E+00 -0.53419747242E+00 -0.36245216275E+00  0.90008415338E+02  0.90000685618E+02 0.  0.
         12    1    1    2    0    0  0.98725957355E+00  0.53419747242E+00  0.36245216275E+00  0.11795846622E+01  0.00000000000E+00 0. -1.
         11    1    3    3    0    0  0.79770310153E+01 -0.37853624610E+02  0.46198599617E+01  0.38959889968E+02  0.51100000000E-03 0. -1.
        -11    1    3    3    0    0  0.22977781257E+01 -0.21108748457E+00  0.91175795257E+01  0.94050305108E+01  0.51100000000E-03 0.  1.
        -12    1    3    3    0    0 -0.11262068715E+02  0.37530514622E+02 -0.14099891650E+02  0.41643494859E+02  0.00000000000E+00 0.  1.
</event>
<event>
 7    1  0.2490895E-015  0.9000783E+02  0.7816164E-02  0.1186339E+00
        -11   -1    0    0    0    0  0.00000000000E+00  0.00000000000E+00  0.45593999997E+02  0.45594000000E+02  0.51100000000E-03 0. -1.
         11   -1    0    0    0    0 -0.00000000000E+00 -0.00000000000E+00 -0.45593999997E+02  0.45594000000E+02  0.51100000000E-03 0.  1.
    9900012    2    1    2    0    0  0.67411551331E+00  0.67532021770E+00 -0.69449393770E+00  0.90007825881E+02  0.90000088383E+02 0.  0.
         12    1    1    2    0    0 -0.67411551331E+00 -0.67532021770E+00  0.69449393770E+00  0.11801741190E+01  0.00000000000E+00 0. -1.
         11    1    3    3    0    0  0.76042780663E+01  0.23304000474E+00  0.47494299247E+01  0.89686363191E+01  0.51100000000E-03 0. -1.
        -11    1    3    3    0    0 -0.21958898583E+02  0.31895310795E+02  0.13936431620E+02  0.41154929282E+02  0.51100000000E-03 0.  1.
         12    1    3    3    0    0  0.15028736030E+02 -0.31453030582E+02 -0.19380355483E+02  0.39884260280E+02  0.00000000000E+00 0. -1.
</event>
<event>
 7    1  0.2490895E-015  0.9000766E+02  0.7816164E-02  0.1186339E+00
        -11   -1    0    0    0    0  0.00000000000E+00  0.00000000000E+00  0.45593999997E+02  0.45594000000E+02  0.51100000000E-03 0.  1.
         11   -1    0    0    0    0 -0.00000000000E+00 -0.00000000000E+00 -0.45593999997E+02  0.45594000000E+02  0.51100000000E-03 0. -1.
    9900012    2    1    2    0    0  0.10706029343E+01  0.43772610582E+00  0.23540621968E+00  0.90007656459E+02  0.89999916724E+02 0.  0.
         12    1    1    2    0    0 -0.10706029343E+01 -0.43772610582E+00 -0.23540621968E+00  0.11803435411E+01  0.00000000000E+00 0. -1.
         11    1    3    3    0    0  0.34819347136E+02 -0.34572004995E+01  0.84022715513E+01  0.35985237776E+02  0.51100000000E-03 0. -1.
        -11    1    3    3    0    0  0.89777235516E+01 -0.28384565671E+01  0.19166168777E+01  0.96088384506E+01  0.51100000000E-03 0.  1.
        -12    1    3    3    0    0 -0.42726467753E+02  0.67333831724E+01 -0.10083482209E+02  0.44413580233E+02  0.00000000000E+00 0.  1.
</event>
<event>
 7    1  0.2490895E-015  0.9000777E+02  0.7816164E-02  0.1186339E+00
        -11   -1    0    0    0    0  0.00000000000E+00  0.00000000000E+00  0.45593999997E+02  0.45594000000E+02  0.51100000000E-03 0. -1.
         11   -1    0    0    0    0 -0.00000000000E+00 -0.00000000000E+00 -0.45593999997E+02  0.45594000000E+02  0.51100000000E-03 0.  1.
    9900012    2    1    2    0    0  0.30880001912E+00 -0.10083522431E+01 -0.52991297806E+00  0.90007771436E+02  0.90000033219E+02 0.  0.
         12    1    1    2    0    0 -0.30880001912E+00  0.10083522431E+01  0.52991297806E+00  0.11802285636E+01  0.00000000000E+00 0. -1.
         11    1    3    3    0    0 -0.87723563939E+01 -0.49006418443E+01  0.37950201695E+01  0.10741168723E+02  0.51100000000E-03 0. -1.
        -11    1    3    3    0    0 -0.13844149741E+02  0.21889245830E+02  0.26354024950E+02  0.36950428906E+02  0.51100000000E-03 0.  1.
         12    1    3    3    0    0  0.22925306154E+02 -0.17996956229E+02 -0.30678958097E+02  0.42316173807E+02  0.00000000000E+00 0. -1.
</event>
<event>
 7    1  0.2490895E-015  0.9000774E+02  0.7816164E-02  0.1186339E+00
        -11   -1    0    0    0    0  0.00000000000E+00  0.00000000000E+00  0.45593999997E+02  0.45594000000E+02  0.51100000000E-03 0.  1.
         11   -1    0    0    0    0 -0.00000000000E+00 -0.00000000000E+00 -0.45593999997E+02  0.45594000000E+02  0.51100000000E-03 0. -1.
    9900012    2    1    2    0    0  0.53947877836E+00 -0.10347822504E+01 -0.17665397977E+00  0.90007738043E+02  0.89999999385E+02 0.  0.
         12    1    1    2    0    0 -0.53947877836E+00  0.10347822504E+01  0.17665397977E+00  0.11802619568E+01  0.00000000000E+00 0. -1.
         11    1    3    3    0    0  0.54625893124E+01 -0.85128001511E+01 -0.17173328988E+01  0.10259477616E+02  0.51100000000E-03 0. -1.
        -11    1    3    3    0    0  0.16497441103E+02 -0.26120370505E+02  0.18974235465E+02  0.36255495170E+02  0.51100000000E-03 0.  1.
         12    1    3    3    0    0 -0.21420551637E+02  0.33598388406E+02 -0.17433556546E+02  0.43492765257E+02  0.00000000000E+00 0. -1.
</event>
<event>
 7    1  0.2490895E-015  0.9000768E+02  0.7816164E-02  0.1186339E+00
        -11   -1    0    0    0    0  0.00000000000E+00  0.00000000000E+00  0.45593999997E+02  0.45594000000E+02  0.51100000000E-03 0.  1.
         11   -1    0    0    0    0 -0.00000000000E+00 -0.00000000000E+00 -0.45593999997E+02  0.45594000000E+02  0.51100000000E-03 0. -1.
    9900012    2    1    2    0    0 -0.31447237846E+00  0.48452598033E+00  0.10293206080E+01  0.90007678342E+02  0.89999938896E+02 0.  0.
         12    1    1    2    0    0  0.31447237846E+00 -0.48452598033E+00 -0.10293206080E+01  0.11803216580E+01  0.00000000000E+00 0. -1.
         11    1    3    3    0    0  0.31284185816E+01 -0.92507427477E+01  0.18996088063E+01  0.99484550601E+01  0.51100000000E-03 0. -1.
        -11    1    3    3    0    0  0.15239380344E+02  0.23533313808E+02  0.30238993125E+02  0.41236540562E+02  0.51100000000E-03 0.  1.
         12    1    3    3    0    0 -0.18682271304E+02 -0.13798045080E+02 -0.31109281323E+02  0.38822682720E+02  0.00000000000E+00 0. -1.
</event>
<event>
 7    1  0.2490895E-015  0.9000764E+02  0.7816164E-02  0.1186339E+00
        -11   -1    0    0    0    0  0.00000000000E+00  0.00000000000E+00  0.45593999997E+02  0.45594000000E+02  0.51100000000E-03 0.  1.
         11   -1    0    0    0    0 -0.00000000000E+00 -0.00000000000E+00 -0.45593999997E+02  0.45594000000E+02  0.51100000000E-03 0. -1.
    9900012    2    1    2    0    0 -0.31094229753E-01 -0.11626130633E+01  0.20150460212E+00  0.90007644083E+02  0.89999904185E+02 0.  0.
         12    1    1    2    0    0  0.31094229753E-01  0.11626130633E+01 -0.20150460212E+00  0.11803559169E+01  0.00000000000E+00 0. -1.
         11    1    3    3    0    0 -0.77120192824E+01  0.31506202226E+01 -0.49783605119E+00  0.83456270102E+01  0.51100000000E-03 0. -1.
        -11    1    3    3    0    0  0.34927661822E+02 -0.27382447018E+02 -0.75520720969E+01  0.45019704111E+02  0.51100000000E-03 0.  1.
         12    1    3    3    0    0 -0.27246736769E+02  0.23069213732E+02  0.82514127502E+01  0.36642312962E+02  0.00000000000E+00 0. -1.
</event>
<event>
 7    1  0.2490895E-015  0.9000774E+02  0.7816164E-02  0.1186339E+00
        -11   -1    0    0    0    0  0.00000000000E+00  0.00000000000E+00  0.45593999997E+02  0.45594000000E+02  0.51100000000E-03 0.  1.
         11   -1    0    0    0    0 -0.00000000000E+00 -0.00000000000E+00 -0.45593999997E+02  0.45594000000E+02  0.51100000000E-03 0. -1.
    9900012    2    1    2    0    0  0.16929725375E+00 -0.80718940221E+00  0.84426901248E+00  0.90007743055E+02  0.90000004463E+02 0.  0.
         12    1    1    2    0    0 -0.16929725375E+00  0.80718940221E+00 -0.84426901248E+00  0.11802569452E+01  0.00000000000E+00 0. -1.
         11    1    3    3    0    0  0.13407034994E+02 -0.32205833039E+02 -0.60888722723E+01  0.35412407922E+02  0.51100000000E-03 0. -1.
        -11    1    3    3    0    0 -0.23639546676E+01 -0.30105329949E+01 -0.12873577721E+02  0.13430584283E+02  0.51100000000E-03 0.  1.
        -12    1    3    3    0    0 -0.10873783072E+02  0.34409176631E+02  0.19806719006E+02  0.41164750850E+02  0.00000000000E+00 0.  1.
</event>
<event>
 7    1  0.2490895E-015  0.9000773E+02  0.7816164E-02  0.1186339E+00
        -11   -1    0    0    0    0  0.00000000000E+00  0.00000000000E+00  0.45593999997E+02  0.45594000000E+02  0.51100000000E-03 0.  1.
         11   -1    0    0    0    0 -0.00000000000E+00 -0.00000000000E+00 -0.45593999997E+02  0.45594000000E+02  0.51100000000E-03 0. -1.
    9900012    2    1    2    0    0 -0.72774995878E+00 -0.90120873357E+00  0.22636656580E+00  0.90007729266E+02  0.89999990492E+02 0.  0.
         12    1    1    2    0    0  0.72774995878E+00  0.90120873357E+00 -0.22636656580E+00  0.11802707342E+01  0.00000000000E+00 0. -1.
         11    1    3    3    0    0 -0.33719495476E+02  0.12544295972E+02 -0.44351202303E+01  0.36249607285E+02  0.51100000000E-03 0. -1.
        -11    1    3    3    0    0 -0.81788130482E+01  0.14610285787E+01 -0.38426187510E+01  0.91538683906E+01  0.51100000000E-03 0.  1.
        -12    1    3    3    0    0  0.41170558566E+02 -0.14906533285E+02  0.85041055472E+01  0.44604253590E+02  0.00000000000E+00 0.  1.
</event>
<event>
 7    1  0.2490895E-015  0.9000770E+02  0.7816164E-02  0.1186339E+00
        -11   -1    0    0    0    0  0.00000000000E+00  0.00000000000E+00  0.45593999997E+02  0.45594000000E+02  0.51100000000E-03 0. -1.
         11   -1    0    0    0    0 -0.00000000000E+00 -0.00000000000E+00 -0.45593999997E+02  0.45594000000E+02  0.51100000000E-03 0.  1.
    9900012    2    1    2    0    0  0.86442664736E+00 -0.69577909509E+00  0.40220892003E+00  0.90007697499E+02  0.89999958306E+02 0.  0.
         12    1    1    2    0    0 -0.86442664736E+00  0.69577909509E+00 -0.40220892003E+00  0.11803025007E+01  0.00000000000E+00 0. -1.
         11    1    3    3    0    0  0.85118925554E+01  0.85447613435E+01 -0.22096331052E+01  0.12261636922E+02  0.51100000000E-03 0. -1.
        -11    1    3    3    0    0 -0.27379758703E+02  0.20210622192E+02 -0.16114373771E+02  0.37653598477E+02  0.51100000000E-03 0.  1.
         12    1    3    3    0    0  0.19732292795E+02 -0.29451162630E+02  0.18726215796E+02  0.40092462100E+02  0.00000000000E+00 0. -1.
</event>
<event>
 7    1  0.2490895E-015  0.9000783E+02  0.7816164E-02  0.1186339E+00
        -11   -1    0    0    0    0  0.00000000000E+00  0.00000000000E+00  0.45593999997E+02  0.45594000000E+02  0.51100000000E-03 0. -1.
         11   -1    0    0    0    0 -0.00000000000E+00 -0.00000000000E+00 -0.45593999997E+02  0.45594000000E+02  0.51100000000E-03 0.  1.
    9900012    2    1    2    0    0 -0.36401662440E+00  0.19484821991E+00 -0.11055909753E+01  0.90007828260E+02  0.90000090793E+02 0.  0.
         12    1    1    2    0    0  0.36401662440E+00 -0.19484821991E+00  0.11055909753E+01  0.11801717401E+01  0.00000000000E+00 0. -1.
         11    1    3    3    0    0  0.42783155559E+01 -0.24362613000E+01  0.67964188305E+01  0.83922977961E+01  0.51100000000E-03 0. -1.
        -11    1    3    3    0    0  0.30200608406E+02 -0.22956704734E+02 -0.53541516841E+01  0.38311277463E+02  0.51100000000E-03 0.  1.
         12    1    3    3    0    0 -0.34842940586E+02  0.25587814254E+02 -0.25478581216E+01  0.43304253001E+02  0.00000000000E+00 0. -1.
</event>
<event>
 7    1  0.2490895E-015  0.9000783E+02  0.7816164E-02  0.1186339E+00
        -11   -1    0    0    0    0  0.00000000000E+00  0.00000000000E+00  0.45593999997E+02  0.45594000000E+02  0.51100000000E-03 0.  1.
         11   -1    0    0    0    0 -0.00000000000E+00 -0.00000000000E+00 -0.45593999997E+02  0.45594000000E+02  0.51100000000E-03 0. -1.
    9900012    2    1    2    0    0  0.56395886897E+00  0.39732153930E+00 -0.95753786635E+00  0.90007833581E+02  0.90000096184E+02 0.  0.
         12    1    1    2    0    0 -0.56395886897E+00 -0.39732153930E+00  0.95753786635E+00  0.11801664192E+01  0.00000000000E+00 0. -1.
         11    1    3    3    0    0  0.39160584642E+00  0.47379755878E+01 -0.82940933136E+01  0.95600079480E+01  0.51100000000E-03 0. -1.
        -11    1    3    3    0    0  0.92031327660E+00  0.31944075256E+02 -0.17533900559E+02  0.36451455246E+02  0.51100000000E-03 0.  1.
         12    1    3    3    0    0 -0.74796025405E+00 -0.36284729305E+02  0.24870456006E+02  0.43996370387E+02  0.00000000000E+00 0. -1.
</event>
<event>
 7    1  0.2490895E-015  0.9000783E+02  0.7816164E-02  0.1186339E+00
        -11   -1    0    0    0    0  0.00000000000E+00  0.00000000000E+00  0.45593999997E+02  0.45594000000E+02  0.51100000000E-03 0.  1.
         11   -1    0    0    0    0 -0.00000000000E+00 -0.00000000000E+00 -0.45593999997E+02  0.45594000000E+02  0.51100000000E-03 0. -1.
    9900012    2    1    2    0    0  0.32754367853E-01  0.46563405324E+00  0.10839358243E+01  0.90007828491E+02  0.90000091027E+02 0.  0.
         12    1    1    2    0    0 -0.32754367853E-01 -0.46563405324E+00 -0.10839358243E+01  0.11801715093E+01  0.00000000000E+00 0. -1.
         11    1    3    3    0    0  0.17697474096E+02 -0.30126884259E+02  0.66718902903E+01  0.35571672225E+02  0.51100000000E-03 0. -1.
        -11    1    3    3    0    0  0.21762060683E+01 -0.73291381162E+01 -0.86301988455E+01  0.11529634459E+02  0.51100000000E-03 0.  1.
        -12    1    3    3    0    0 -0.19840925796E+02  0.37921656429E+02  0.30422443795E+01  0.42906521807E+02  0.00000000000E+00 0.  1.
</event>
<event>
 7    1  0.2490895E-015  0.9000774E+02  0.7816164E-02  0.1186339E+00
        -11   -1    0    0    0    0  0.00000000000E+00  0.00000000000E+00  0.45593999997E+02  0.45594000000E+02  0.51100000000E-03 0. -1.
         11   -1    0    0    0    0 -0.00000000000E+00 -0.00000000000E+00 -0.45593999997E+02  0.45594000000E+02  0.51100000000E-03 0.  1.
    9900012    2    1    2    0    0 -0.91094275167E+00  0.75010317619E+00  0.23187996840E-01  0.90007741912E+02  0.90000003305E+02 0.  0.
         12    1    1    2    0    0  0.91094275167E+00 -0.75010317619E+00 -0.23187996840E-01  0.11802580883E+01  0.00000000000E+00 0. -1.
         11    1    3    3    0    0 -0.27935950328E+02  0.29130591267E+02  0.10375105489E+01  0.40374312337E+02  0.51100000000E-03 0. -1.
        -11    1    3    3    0    0  0.57640182822E+01  0.30605972833E+01  0.82940639785E+01  0.10553798370E+02  0.51100000000E-03 0.  1.
        -12    1    3    3    0    0  0.21260989295E+02 -0.31441085374E+02 -0.93083865306E+01  0.39079631205E+02  0.00000000000E+00 0.  1.
</event>
<event>
 7    1  0.2490895E-015  0.9000777E+02  0.7816164E-02  0.1186339E+00
        -11   -1    0    0    0    0  0.00000000000E+00  0.00000000000E+00  0.45593999997E+02  0.45594000000E+02  0.51100000000E-03 0.  1.
         11   -1    0    0    0    0 -0.00000000000E+00 -0.00000000000E+00 -0.45593999997E+02  0.45594000000E+02  0.51100000000E-03 0. -1.
    9900012    2    1    2    0    0 -0.71495334701E+00  0.16248408858E+00  0.92487455283E+00  0.90007765995E+02  0.90000027706E+02 0.  0.
         12    1    1    2    0    0  0.71495334701E+00 -0.16248408858E+00 -0.92487455283E+00  0.11802340047E+01  0.00000000000E+00 0. -1.
         11    1    3    3    0    0  0.25636166383E+01  0.10972825725E+01  0.42987721308E+01  0.51240219950E+01  0.51100000000E-03 0. -1.
        -11    1    3    3    0    0 -0.42091219866E+02  0.10201478733E+02 -0.86396321470E+01  0.44163154349E+02  0.51100000000E-03 0.  1.
         12    1    3    3    0    0  0.38812649881E+02 -0.11136277217E+02  0.52657345691E+01  0.40720589651E+02  0.00000000000E+00 0. -1.
</event>
<event>
 7    1  0.2490895E-015  0.9000782E+02  0.7816164E-02  0.1186339E+00
        -11   -1    0    0    0    0  0.00000000000E+00  0.00000000000E+00  0.45593999997E+02  0.45594000000E+02  0.51100000000E-03 0.  1.
         11   -1    0    0    0    0 -0.00000000000E+00 -0.00000000000E+00 -0.45593999997E+02  0.45594000000E+02  0.51100000000E-03 0. -1.
    9900012    2    1    2    0    0  0.61329289269E+00  0.94689940163E+00  0.34652428684E+00  0.90007819620E+02  0.90000082038E+02 0.  0.
         12    1    1    2    0    0 -0.61329289269E+00 -0.94689940163E+00 -0.34652428684E+00  0.11801803805E+01  0.00000000000E+00 0. -1.
         11    1    3    3    0    0 -0.28872284302E+02 -0.70679990543E+01 -0.18991105588E+02  0.35273609160E+02  0.51100000000E-03 0. -1.
        -11    1    3    3    0    0 -0.87849810972E+01 -0.31103716801E+01 -0.19931739090E+01  0.95301126625E+01  0.51100000000E-03 0.  1.
        -12    1    3    3    0    0  0.38270558292E+02  0.11125270136E+02  0.21330803784E+02  0.45204097797E+02  0.00000000000E+00 0.  1.
</event>
<event>
 7    1  0.2490895E-015  0.9000776E+02  0.7816164E-02  0.1186339E+00
        -11   -1    0    0    0    0  0.00000000000E+00  0.00000000000E+00  0.45593999997E+02  0.45594000000E+02  0.51100000000E-03 0.  1.
         11   -1    0    0    0    0 -0.00000000000E+00 -0.00000000000E+00 -0.45593999997E+02  0.45594000000E+02  0.51100000000E-03 0. -1.
    9900012    2    1    2    0    0  0.36164524566E+00  0.10062759510E+01  0.49958358530E+00  0.90007761748E+02  0.90000023403E+02 0.  0.
         12    1    1    2    0    0 -0.36164524566E+00 -0.10062759510E+01 -0.49958358530E+00  0.11802382522E+01  0.00000000000E+00 0. -1.
         11    1    3    3    0    0  0.74307807266E+01 -0.50400787099E+01  0.25144671095E+02  0.26699688769E+02  0.51100000000E-03 0. -1.
        -11    1    3    3    0    0  0.31048688893E+01 -0.17641427632E+02  0.96949227860E+01  0.20367908774E+02  0.51100000000E-03 0.  1.
        -12    1    3    3    0    0 -0.10174004370E+02  0.23687782293E+02 -0.34340010296E+02  0.42940164206E+02  0.00000000000E+00 0.  1.
</event>
<event>
 7    1  0.2490895E-015  0.9000767E+02  0.7816164E-02  0.1186339E+00
        -11   -1    0    0    0    0  0.00000000000E+00  0.00000000000E+00  0.45593999997E+02  0.45594000000E+02  0.51100000000E-03 0. -1.
         11   -1    0    0    0    0 -0.00000000000E+00 -0.00000000000E+00 -0.45593999997E+02  0.45594000000E+02  0.51100000000E-03 0.  1.
    9900012    2    1    2    0    0 -0.27327151522E+00 -0.98947702624E+00  0.58260990790E+00  0.90007671058E+02  0.89999931516E+02 0.  0.
         12    1    1    2    0    0  0.27327151522E+00  0.98947702624E+00 -0.58260990790E+00  0.11803289420E+01  0.00000000000E+00 0. -1.
         11    1    3    3    0    0 -0.73135366112E+01  0.38893519098E+01  0.42808425703E+01  0.93241884052E+01  0.51100000000E-03 0. -1.
        -11    1    3    3    0    0 -0.13030537150E+02  0.30570848429E+02 -0.17643765020E+02  0.37625445066E+02  0.51100000000E-03 0.  1.
         12    1    3    3    0    0  0.20070802246E+02 -0.35449677365E+02  0.13945532357E+02  0.43058037587E+02  0.00000000000E+00 0. -1.
</event>
<event>
 7    1  0.2490895E-015  0.9000789E+02  0.7816164E-02  0.1186339E+00
        -11   -1    0    0    0    0  0.00000000000E+00  0.00000000000E+00  0.45593999997E+02  0.45594000000E+02  0.51100000000E-03 0. -1.
         11   -1    0    0    0    0 -0.00000000000E+00 -0.00000000000E+00 -0.45593999997E+02  0.45594000000E+02  0.51100000000E-03 0.  1.
    9900012    2    1    2    0    0  0.54349240571E+00  0.12795001192E+00 -0.10396629406E+01  0.90007892280E+02  0.90000155658E+02 0.  0.
         12    1    1    2    0    0 -0.54349240571E+00 -0.12795001192E+00  0.10396629406E+01  0.11801077199E+01  0.00000000000E+00 0. -1.
         11    1    3    3    0    0  0.47018394805E+01  0.21372589091E+02 -0.78056503035E+01  0.23234092104E+02  0.51100000000E-03 0. -1.
        -11    1    3    3    0    0  0.19558651002E+01  0.90636033978E+01 -0.22416221347E+02  0.24258221175E+02  0.51100000000E-03 0.  1.
         12    1    3    3    0    0 -0.61142121750E+01 -0.30308242477E+02  0.29182208710E+02  0.42515579001E+02  0.00000000000E+00 0. -1.
</event>
<event>
 7    1  0.2490895E-015  0.9000760E+02  0.7816164E-02  0.1186339E+00
        -11   -1    0    0    0    0  0.00000000000E+00  0.00000000000E+00  0.45593999997E+02  0.45594000000E+02  0.51100000000E-03 0.  1.
         11   -1    0    0    0    0 -0.00000000000E+00 -0.00000000000E+00 -0.45593999997E+02  0.45594000000E+02  0.51100000000E-03 0. -1.
    9900012    2    1    2    0    0  0.88472106858E+00  0.25939861478E+00  0.73711085882E+00  0.90007596921E+02  0.89999856400E+02 0.  0.
         12    1    1    2    0    0 -0.88472106858E+00 -0.25939861478E+00 -0.73711085882E+00  0.11804030789E+01  0.00000000000E+00 0. -1.
         11    1    3    3    0    0  0.11041421277E+02  0.34591137131E+02 -0.13269153477E+02  0.38659153975E+02  0.51100000000E-03 0. -1.
        -11    1    3    3    0    0  0.54645563724E+01 -0.18262897987E+02 -0.73126940513E+01  0.20417402229E+02  0.51100000000E-03 0.  1.
        -12    1    3    3    0    0 -0.15621256581E+02 -0.16068840529E+02  0.21318958387E+02  0.30931040717E+02  0.00000000000E+00 0.  1.
</event>
<event>
 7    1  0.2490895E-015  0.9000768E+02  0.7816164E-02  0.1186339E+00
        -11   -1    0    0    0    0  0.00000000000E+00  0.00000000000E+00  0.45593999997E+02  0.45594000000E+02  0.51100000000E-03 0.  1.
         11   -1    0    0    0    0 -0.00000000000E+00 -0.00000000000E+00 -0.45593999997E+02  0.45594000000E+02  0.51100000000E-03 0. -1.
    9900012    2    1    2    0    0 -0.87814596562E+00 -0.65075580996E+00  0.44557284733E+00  0.90007678593E+02  0.89999939151E+02 0.  0.
         12    1    1    2    0    0  0.87814596562E+00  0.65075580996E+00 -0.44557284733E+00  0.11803214068E+01  0.00000000000E+00 0. -1.
         11    1    3    3    0    0 -0.55781984385E+01 -0.36886680809E+02 -0.49669813956E+00  0.37309385256E+02  0.51100000000E-03 0. -1.
        -11    1    3    3    0    0 -0.90585803091E+01 -0.41905620480E+01 -0.11469618047E+00  0.99815751747E+01  0.51100000000E-03 0.  1.
        -12    1    3    3    0    0  0.13758632782E+02  0.40426487047E+02  0.10569671674E+01  0.42716718162E+02  0.00000000000E+00 0.  1.
</event>
<event>
 7    1  0.2490895E-015  0.9000792E+02  0.7816164E-02  0.1186339E+00
        -11   -1    0    0    0    0  0.00000000000E+00  0.00000000000E+00  0.45593999997E+02  0.45594000000E+02  0.51100000000E-03 0. -1.
         11   -1    0    0    0    0 -0.00000000000E+00 -0.00000000000E+00 -0.45593999997E+02  0.45594000000E+02  0.51100000000E-03 0.  1.
    9900012    2    1    2    0    0 -0.31145981497E+00  0.10584833835E+01 -0.41856907545E+00  0.90007917647E+02  0.90000181359E+02 0.  0.
         12    1    1    2    0    0  0.31145981497E+00 -0.10584833835E+01  0.41856907545E+00  0.11800823533E+01  0.00000000000E+00 0. -1.
         11    1    3    3    0    0  0.27325773093E+02 -0.22347192082E+02  0.20524359124E+02  0.40833126096E+02  0.51100000000E-03 0. -1.
        -11    1    3    3    0    0  0.45889982502E+01  0.38624149051E+01 -0.64157001745E+01  0.87828448027E+01  0.51100000000E-03 0.  1.
        -12    1    3    3    0    0 -0.32226231158E+02  0.19543260560E+02 -0.14527228025E+02  0.40391946748E+02  0.00000000000E+00 0.  1.
</event>
<event>
 7    1  0.2490895E-015  0.9000767E+02  0.7816164E-02  0.1186339E+00
        -11   -1    0    0    0    0  0.00000000000E+00  0.00000000000E+00  0.45593999997E+02  0.45594000000E+02  0.51100000000E-03 0. -1.
         11   -1    0    0    0    0 -0.00000000000E+00 -0.00000000000E+00 -0.45593999997E+02  0.45594000000E+02  0.51100000000E-03 0.  1.
    9900012    2    1    2    0    0 -0.61063761403E-01 -0.42560863016E+00 -0.10992270082E+01  0.90007673137E+02  0.89999933622E+02 0.  0.
         12    1    1    2    0    0  0.61063761403E-01  0.42560863016E+00  0.10992270082E+01  0.11803268635E+01  0.00000000000E+00 0. -1.
         11    1    3    3    0    0 -0.87994942046E+01 -0.96371289536E+00  0.30939769692E+01  0.93772349096E+01  0.51100000000E-03 0. -1.
        -11    1    3    3    0    0 -0.35093772196E+02 -0.52688747457E+01 -0.75734135947E+01  0.36286229919E+02  0.51100000000E-03 0.  1.
         12    1    3    3    0    0  0.43832202639E+02  0.58069790109E+01  0.33802096172E+01  0.44344208308E+02  0.00000000000E+00 0. -1.
</event>
<event>
 7    1  0.2490895E-015  0.9000791E+02  0.7816164E-02  0.1186339E+00
        -11   -1    0    0    0    0  0.00000000000E+00  0.00000000000E+00  0.45593999997E+02  0.45594000000E+02  0.51100000000E-03 0. -1.
         11   -1    0    0    0    0 -0.00000000000E+00 -0.00000000000E+00 -0.45593999997E+02  0.45594000000E+02  0.51100000000E-03 0.  1.
    9900012    2    1    2    0    0 -0.46211154122E+00  0.41312685156E+00 -0.10041877321E+01  0.90007909379E+02  0.90000172983E+02 0.  0.
         12    1    1    2    0    0  0.46211154122E+00 -0.41312685156E+00  0.10041877321E+01  0.11800906208E+01  0.00000000000E+00 0. -1.
         11    1    3    3    0    0  0.14855576725E+02 -0.12869329220E+02 -0.19503609181E+02  0.27689322234E+02  0.51100000000E-03 0. -1.
        -11    1    3    3    0    0  0.15871159184E+02 -0.10313554429E+02  0.12671192967E+02  0.22777669553E+02  0.51100000000E-03 0.  1.
         12    1    3    3    0    0 -0.31188847450E+02  0.23596010501E+02  0.58282284823E+01  0.39540917593E+02  0.00000000000E+00 0. -1.
</event>
<event>
 7    1  0.2490895E-015  0.9000774E+02  0.7816164E-02  0.1186339E+00
        -11   -1    0    0    0    0  0.00000000000E+00  0.00000000000E+00  0.45593999997E+02  0.45594000000E+02  0.51100000000E-03 0.  1.
         11   -1    0    0    0    0 -0.00000000000E+00 -0.00000000000E+00 -0.45593999997E+02  0.45594000000E+02  0.51100000000E-03 0. -1.
    9900012    2    1    2    0    0  0.89506416287E+00 -0.40085616726E+00  0.65665743331E+00  0.90007735408E+02  0.89999996715E+02 0.  0.
         12    1    1    2    0    0 -0.89506416287E+00  0.40085616726E+00 -0.65665743331E+00  0.11802645920E+01  0.00000000000E+00 0. -1.
         11    1    3    3    0    0 -0.52926940722E+01 -0.40179474827E+01 -0.73976521167E+01  0.99439312958E+01  0.51100000000E-03 0. -1.
        -11    1    3    3    0    0  0.19763081778E+02 -0.32694591937E+02  0.14310498843E+02  0.40795908136E+02  0.51100000000E-03 0.  1.
         12    1    3    3    0    0 -0.13575323543E+02  0.36311683252E+02 -0.62561892927E+01  0.39267895976E+02  0.00000000000E+00 0. -1.
</event>
<event>
 7    1  0.2490895E-015  0.9000832E+02  0.7816164E-02  0.1186338E+00
        -11   -1    0    0    0    0  0.00000000000E+00  0.00000000000E+00  0.45593999997E+02  0.45594000000E+02  0.51100000000E-03 0. -1.
         11   -1    0    0    0    0 -0.00000000000E+00 -0.00000000000E+00 -0.45593999997E+02  0.45594000000E+02  0.51100000000E-03 0.  1.
    9900012    2    1    2    0    0 -0.69707637159E+00  0.12473124347E+00 -0.94348383432E+00  0.90008324156E+02  0.90000593233E+02 0.  0.
         12    1    1    2    0    0  0.69707637159E+00 -0.12473124347E+00  0.94348383432E+00  0.11796758438E+01  0.00000000000E+00 0. -1.
         11    1    3    3    0    0 -0.76878473829E+01  0.56277775280E+01  0.12284414153E+00  0.95283769988E+01  0.51100000000E-03 0. -1.
        -11    1    3    3    0    0 -0.33857029452E+02 -0.52613493218E+01 -0.14885547470E+02  0.37357191593E+02  0.51100000000E-03 0.  1.
         12    1    3    3    0    0  0.40847800463E+02 -0.24169696277E+00  0.13819219494E+02  0.43122755565E+02  0.00000000000E+00 0. -1.
</event>
<event>
 7    1  0.2490895E-015  0.9000765E+02  0.7816164E-02  0.1186339E+00
        -11   -1    0    0    0    0  0.00000000000E+00  0.00000000000E+00  0.45593999997E+02  0.45594000000E+02  0.51100000000E-03 0. -1.
         11   -1    0    0    0    0 -0.00000000000E+00 -0.00000000000E+00 -0.45593999997E+02  0.45594000000E+02  0.51100000000E-03 0.  1.
    9900012    2    1    2    0    0 -0.95459675492E+00 -0.11004215974E+00 -0.68546323566E+00  0.90007650861E+02  0.89999911053E+02 0.  0.
         12    1    1    2    0    0  0.95459675492E+00  0.11004215974E+00  0.68546323566E+00  0.11803491385E+01  0.00000000000E+00 0. -1.
         11    1    3    3    0    0 -0.17439713480E+02  0.38866450141E+02  0.49170483378E+01  0.42882652873E+02  0.51100000000E-03 0. -1.
        -11    1    3    3    0    0  0.41701809945E+01 -0.26037111562E+01 -0.71681772549E+01  0.86920933457E+01  0.51100000000E-03 0.  1.
        -12    1    3    3    0    0  0.12314935731E+02 -0.36372781145E+02  0.15656656814E+01  0.38432904643E+02  0.00000000000E+00 0.  1.
</event>
<event>
 7    1  0.2490895E-015  0.9000765E+02  0.7816164E-02  0.1186339E+00
        -11   -1    0    0    0    0  0.00000000000E+00  0.00000000000E+00  0.45593999997E+02  0.45594000000E+02  0.51100000000E-03 0.  1.
         11   -1    0    0    0    0 -0.00000000000E+00 -0.00000000000E+00 -0.45593999997E+02  0.45594000000E+02  0.51100000000E-03 0. -1.
    9900012    2    1    2    0    0 -0.70762172457E+00  0.22197981946E+00  0.91827080014E+00  0.90007650557E+02  0.89999910744E+02 0.  0.
         12    1    1    2    0    0  0.70762172457E+00 -0.22197981946E+00 -0.91827080014E+00  0.11803494431E+01  0.00000000000E+00 0. -1.
         11    1    3    3    0    0 -0.29248444848E+02 -0.26187661725E+02 -0.12138629112E+02  0.41092717964E+02  0.51100000000E-03 0. -1.
        -11    1    3    3    0    0  0.32730940945E+01 -0.24643052818E+01  0.95433277305E+01  0.10385617454E+02  0.51100000000E-03 0.  1.
        -12    1    3    3    0    0  0.25267729029E+02  0.28873946827E+02  0.35135721821E+01  0.38529315139E+02  0.00000000000E+00 0.  1.
</event>
<event>
 7    1  0.2490895E-015  0.9000773E+02  0.7816164E-02  0.1186339E+00
        -11   -1    0    0    0    0  0.00000000000E+00  0.00000000000E+00  0.45593999997E+02  0.45594000000E+02  0.51100000000E-03 0.  1.
         11   -1    0    0    0    0 -0.00000000000E+00 -0.00000000000E+00 -0.45593999997E+02  0.45594000000E+02  0.51100000000E-03 0. -1.
    9900012    2    1    2    0    0 -0.31170437875E-01  0.52035591667E+00  0.10589085006E+01  0.90007733467E+02  0.89999994749E+02 0.  0.
         12    1    1    2    0    0  0.31170437875E-01 -0.52035591667E+00 -0.10589085006E+01  0.11802665330E+01  0.00000000000E+00 0. -1.
         11    1    3    3    0    0 -0.13015587089E+02  0.10923846186E+02 -0.22230040048E+02  0.27980539730E+02  0.51100000000E-03 0. -1.
        -11    1    3    3    0    0  0.28952727926E+01 -0.26316923206E+02 -0.60506410063E+01  0.27158300912E+02  0.51100000000E-03 0.  1.
        -12    1    3    3    0    0  0.10089143858E+02  0.15913432936E+02  0.29339589555E+02  0.34868892826E+02  0.00000000000E+00 0.  1.
</event>
<event>
 7    1  0.2490895E-015  0.9000789E+02  0.7816164E-02  0.1186339E+00
        -11   -1    0    0    0    0  0.00000000000E+00  0.00000000000E+00  0.45593999997E+02  0.45594000000E+02  0.51100000000E-03 0.  1.
         11   -1    0    0    0    0 -0.00000000000E+00 -0.00000000000E+00 -0.45593999997E+02  0.45594000000E+02  0.51100000000E-03 0. -1.
    9900012    2    1    2    0    0  0.74526225742E+00  0.27531325264E+00 -0.87261291439E+00  0.90007887074E+02  0.90000150383E+02 0.  0.
         12    1    1    2    0    0 -0.74526225742E+00 -0.27531325264E+00  0.87261291439E+00  0.11801129259E+01  0.00000000000E+00 0. -1.
         11    1    3    3    0    0 -0.17665159250E+01  0.65772218867E+01  0.67416914847E+01  0.95828404242E+01  0.51100000000E-03 0. -1.
        -11    1    3    3    0    0 -0.89450128823E+01  0.92895501082E+01  0.33003939813E+02  0.35434009653E+02  0.51100000000E-03 0.  1.
         12    1    3    3    0    0  0.11456791065E+02 -0.15591458742E+02 -0.40618244212E+02  0.44991036997E+02  0.00000000000E+00 0. -1.
</event>
<event>
 7    1  0.2490895E-015  0.9000769E+02  0.7816164E-02  0.1186339E+00
        -11   -1    0    0    0    0  0.00000000000E+00  0.00000000000E+00  0.45593999997E+02  0.45594000000E+02  0.51100000000E-03 0.  1.
         11   -1    0    0    0    0 -0.00000000000E+00 -0.00000000000E+00 -0.45593999997E+02  0.45594000000E+02  0.51100000000E-03 0. -1.
    9900012    2    1    2    0    0  0.77249592553E+00  0.81519891908E+00 -0.36308534379E+00  0.90007690634E+02  0.89999951350E+02 0.  0.
         12    1    1    2    0    0 -0.77249592553E+00 -0.81519891908E+00  0.36308534379E+00  0.11803093660E+01  0.00000000000E+00 0. -1.
         11    1    3    3    0    0  0.28969497578E+02 -0.95432235249E+01 -0.24773271159E+02  0.39294018239E+02  0.51100000000E-03 0. -1.
        -11    1    3    3    0    0  0.69293765775E+01 -0.61587110925E-01  0.79517452751E+01  0.10547526056E+02  0.51100000000E-03 0.  1.
        -12    1    3    3    0    0 -0.35126378230E+02  0.10420009555E+02  0.16458440540E+02  0.40166146339E+02  0.00000000000E+00 0.  1.
</event>
<event>
 7    1  0.2490895E-015  0.9000726E+02  0.7816164E-02  0.1186340E+00
        -11   -1    0    0    0    0  0.00000000000E+00  0.00000000000E+00  0.45593999997E+02  0.45594000000E+02  0.51100000000E-03 0.  1.
         11   -1    0    0    0    0 -0.00000000000E+00 -0.00000000000E+00 -0.45593999997E+02  0.45594000000E+02  0.51100000000E-03 0. -1.
    9900012    2    1    2    0    0 -0.75654455295E-01  0.92660214671E-02  0.11782781828E+01  0.90007259160E+02  0.89999514179E+02 0.  0.
         12    1    1    2    0    0  0.75654455295E-01 -0.92660214671E-02 -0.11782781828E+01  0.11807408403E+01  0.00000000000E+00 0. -1.
         11    1    3    3    0    0 -0.32727194105E+02  0.17262508664E+02 -0.83394717721E+01  0.37929015662E+02  0.51100000000E-03 0. -1.
        -11    1    3    3    0    0 -0.38918808108E+01 -0.18893779441E+01 -0.77209853557E+01  0.88504293899E+01  0.51100000000E-03 0.  1.
        -12    1    3    3    0    0  0.36543420461E+02 -0.15363864698E+02  0.17238735311E+02  0.43227814108E+02  0.00000000000E+00 0.  1.
</event>
<event>
 7    1  0.2490895E-015  0.9000647E+02  0.7816164E-02  0.1186342E+00
        -11   -1    0    0    0    0  0.00000000000E+00  0.00000000000E+00  0.45593999997E+02  0.45594000000E+02  0.51100000000E-03 0.  1.
         11   -1    0    0    0    0 -0.00000000000E+00 -0.00000000000E+00 -0.45593999997E+02  0.45594000000E+02  0.51100000000E-03 0. -1.
    9900012    2    1    2    0    0  0.82220530962E+00 -0.52964216785E+00  0.66292616309E+00  0.90006469850E+02  0.89998714443E+02 0.  0.
         12    1    1    2    0    0 -0.82220530962E+00  0.52964216785E+00 -0.66292616309E+00  0.11815301498E+01  0.00000000000E+00 0. -1.
         11    1    3    3    0    0 -0.45668171345E+01 -0.88480237973E+01  0.37134542465E+01  0.10626998003E+02  0.51100000000E-03 0. -1.
        -11    1    3    3    0    0  0.27457591181E+02 -0.15695160760E+02 -0.24789585933E+02  0.40184337195E+02  0.51100000000E-03 0.  1.
         12    1    3    3    0    0 -0.22068568737E+02  0.24013542390E+02  0.21739057850E+02  0.39195134652E+02  0.00000000000E+00 0. -1.
</event>
<event>
 7    1  0.2490895E-015  0.9000771E+02  0.7816164E-02  0.1186339E+00
        -11   -1    0    0    0    0  0.00000000000E+00  0.00000000000E+00  0.45593999997E+02  0.45594000000E+02  0.51100000000E-03 0.  1.
         11   -1    0    0    0    0 -0.00000000000E+00 -0.00000000000E+00 -0.45593999997E+02  0.45594000000E+02  0.51100000000E-03 0. -1.
    9900012    2    1    2    0    0 -0.73533655201E+00  0.69178694085E+00  0.61139675479E+00  0.90007705542E+02  0.89999966455E+02 0.  0.
         12    1    1    2    0    0  0.73533655201E+00 -0.69178694085E+00 -0.61139675479E+00  0.11802944582E+01  0.00000000000E+00 0. -1.
         11    1    3    3    0    0 -0.23454998171E+01  0.14833952511E+01 -0.96807140465E+01  0.10070653185E+02  0.51100000000E-03 0. -1.
        -11    1    3    3    0    0 -0.13779033668E+02  0.27150963500E+02  0.29751813857E+02  0.42570024851E+02  0.51100000000E-03 0.  1.
         12    1    3    3    0    0  0.15389196933E+02 -0.27942571810E+02 -0.19459703056E+02  0.37367027506E+02  0.00000000000E+00 0. -1.
</event>
<event>
 7    1  0.2490895E-015  0.9000772E+02  0.7816164E-02  0.1186339E+00
        -11   -1    0    0    0    0  0.00000000000E+00  0.00000000000E+00  0.45593999997E+02  0.45594000000E+02  0.51100000000E-03 0.  1.
         11   -1    0    0    0    0 -0.00000000000E+00 -0.00000000000E+00 -0.45593999997E+02  0.45594000000E+02  0.51100000000E-03 0. -1.
    9900012    2    1    2    0    0 -0.97656181637E+00 -0.29414984429E+00  0.59402009332E+00  0.90007721650E+02  0.89999982776E+02 0.  0.
         12    1    1    2    0    0  0.97656181637E+00  0.29414984429E+00 -0.59402009332E+00  0.11802783499E+01  0.00000000000E+00 0. -1.
         11    1    3    3    0    0 -0.93466974959E+00  0.24183036354E+02 -0.32761910763E+02  0.40731261360E+02  0.51100000000E-03 0. -1.
        -11    1    3    3    0    0  0.86633340730E+01 -0.66121472249E+01  0.53954638498E+00  0.10911689088E+02  0.51100000000E-03 0.  1.
        -12    1    3    3    0    0 -0.87052261398E+01 -0.17865038973E+02  0.32816384471E+02  0.38364771203E+02  0.00000000000E+00 0.  1.
</event>
<event>
 7    1  0.2490895E-015  0.9000779E+02  0.7816164E-02  0.1186339E+00
        -11   -1    0    0    0    0  0.00000000000E+00  0.00000000000E+00  0.45593999997E+02  0.45594000000E+02  0.51100000000E-03 0. -1.
         11   -1    0    0    0    0 -0.00000000000E+00 -0.00000000000E+00 -0.45593999997E+02  0.45594000000E+02  0.51100000000E-03 0.  1.
    9900012    2    1    2    0    0 -0.86936369959E+00  0.34236618166E+00  0.72103223487E+00  0.90007790134E+02  0.90000052164E+02 0.  0.
         12    1    1    2    0    0  0.86936369959E+00 -0.34236618166E+00 -0.72103223487E+00  0.11802098662E+01  0.00000000000E+00 0. -1.
         11    1    3    3    0    0 -0.21672085222E+02  0.93499066277E+01  0.31465798634E+02  0.39334418971E+02  0.51100000000E-03 0. -1.
        -11    1    3    3    0    0 -0.10846439448E+01 -0.87805953634E+01  0.39196026329E+01  0.96767035959E+01  0.51100000000E-03 0.  1.
        -12    1    3    3    0    0  0.21887365467E+02 -0.22694508265E+00 -0.34664369032E+02  0.40996667567E+02  0.00000000000E+00 0.  1.
</event>
<event>
 7    1  0.2490895E-015  0.9000776E+02  0.7816164E-02  0.1186339E+00
        -11   -1    0    0    0    0  0.00000000000E+00  0.00000000000E+00  0.45593999997E+02  0.45594000000E+02  0.51100000000E-03 0.  1.
         11   -1    0    0    0    0 -0.00000000000E+00 -0.00000000000E+00 -0.45593999997E+02  0.45594000000E+02  0.51100000000E-03 0. -1.
    9900012    2    1    2    0    0 -0.10887405840E+01 -0.41650306303E+00 -0.18477819501E+00  0.90007756872E+02  0.90000018462E+02 0.  0.
         12    1    1    2    0    0  0.10887405840E+01  0.41650306303E+00  0.18477819501E+00  0.11802431284E+01  0.00000000000E+00 0. -1.
         11    1    3    3    0    0  0.97665158672E+01  0.62578489931E+01  0.84017807315E+01  0.14322549561E+02  0.51100000000E-03 0. -1.
        -11    1    3    3    0    0  0.67034972115E+01  0.11386356311E+01  0.30969713365E+02  0.31707357382E+02  0.51100000000E-03 0.  1.
         12    1    3    3    0    0 -0.17558753663E+02 -0.78129876872E+01 -0.39556272291E+02  0.43977849929E+02  0.00000000000E+00 0. -1.
</event>
<event>
 7    1  0.2490895E-015  0.9000778E+02  0.7816164E-02  0.1186339E+00
        -11   -1    0    0    0    0  0.00000000000E+00  0.00000000000E+00  0.45593999997E+02  0.45594000000E+02  0.51100000000E-03 0. -1.
         11   -1    0    0    0    0 -0.00000000000E+00 -0.00000000000E+00 -0.45593999997E+02  0.45594000000E+02  0.51100000000E-03 0.  1.
    9900012    2    1    2    0    0  0.54632603322E+00  0.73142450490E+00  0.74797011665E+00  0.90007782547E+02  0.90000044477E+02 0.  0.
         12    1    1    2    0    0 -0.54632603322E+00 -0.73142450490E+00 -0.74797011665E+00  0.11802174530E+01  0.00000000000E+00 0. -1.
         11    1    3    3    0    0 -0.95338947014E+01 -0.19453745506E+01  0.79696154040E+00  0.97629287756E+01  0.51100000000E-03 0. -1.
        -11    1    3    3    0    0 -0.26426669991E+02  0.20657052758E+02 -0.15194532713E+02  0.36823315169E+02  0.51100000000E-03 0.  1.
         12    1    3    3    0    0  0.36506890725E+02 -0.17980253702E+02  0.15145541289E+02  0.43421538602E+02  0.00000000000E+00 0. -1.
</event>
<event>
 7    1  0.2490895E-015  0.9000779E+02  0.7816164E-02  0.1186339E+00
        -11   -1    0    0    0    0  0.00000000000E+00  0.00000000000E+00  0.45593999997E+02  0.45594000000E+02  0.51100000000E-03 0. -1.
         11   -1    0    0    0    0 -0.00000000000E+00 -0.00000000000E+00 -0.45593999997E+02  0.45594000000E+02  0.51100000000E-03 0.  1.
    9900012    2    1    2    0    0 -0.14296624835E+00 -0.44874069530E+00 -0.10821631544E+01  0.90007794657E+02  0.90000056746E+02 0.  0.
         12    1    1    2    0    0  0.14296624835E+00  0.44874069530E+00  0.10821631544E+01  0.11802053434E+01  0.00000000000E+00 0. -1.
         11    1    3    3    0    0 -0.89493024230E+01 -0.58157492558E+01  0.11279707515E+01  0.10732440149E+02  0.51100000000E-03 0. -1.
        -11    1    3    3    0    0 -0.34043600551E+02  0.10983571954E+02 -0.41741097716E+01  0.36014285832E+02  0.51100000000E-03 0.  1.
         12    1    3    3    0    0  0.42849936726E+02 -0.56165633931E+01  0.19639758657E+01  0.43261068676E+02  0.00000000000E+00 0. -1.
</event>
<event>
 7    1  0.2490895E-015  0.9000775E+02  0.7816164E-02  0.1186339E+00
        -11   -1    0    0    0    0  0.00000000000E+00  0.00000000000E+00  0.45593999997E+02  0.45594000000E+02  0.51100000000E-03 0.  1.
         11   -1    0    0    0    0 -0.00000000000E+00 -0.00000000000E+00 -0.45593999997E+02  0.45594000000E+02  0.51100000000E-03 0. -1.
    9900012    2    1    2    0    0  0.36601658957E+00  0.76192902375E+00  0.82369556573E+00  0.90007754955E+02  0.90000016520E+02 0.  0.
         12    1    1    2    0    0 -0.36601658957E+00 -0.76192902375E+00 -0.82369556573E+00  0.11802450449E+01  0.00000000000E+00 0. -1.
         11    1    3    3    0    0 -0.11843641400E+02 -0.31273206999E+02 -0.21948148192E+02  0.40000081587E+02  0.51100000000E-03 0. -1.
        -11    1    3    3    0    0  0.88894222156E+00 -0.47011725039E+01  0.69505998854E+01  0.84381325074E+01  0.51100000000E-03 0.  1.
        -12    1    3    3    0    0  0.11320715768E+02  0.36736308527E+02  0.15821243873E+02  0.41569540861E+02  0.00000000000E+00 0.  1.
</event>
<event>
 7    1  0.2490895E-015  0.9000771E+02  0.7816164E-02  0.1186339E+00
        -11   -1    0    0    0    0  0.00000000000E+00  0.00000000000E+00  0.45593999997E+02  0.45594000000E+02  0.51100000000E-03 0.  1.
         11   -1    0    0    0    0 -0.00000000000E+00 -0.00000000000E+00 -0.45593999997E+02  0.45594000000E+02  0.51100000000E-03 0. -1.
    9900012    2    1    2    0    0  0.62457058029E+00 -0.97667393548E+00  0.22161712502E+00  0.90007705742E+02  0.89999966658E+02 0.  0.
         12    1    1    2    0    0 -0.62457058029E+00  0.97667393548E+00 -0.22161712502E+00  0.11802942583E+01  0.00000000000E+00 0. -1.
         11    1    3    3    0    0  0.30886123297E+02  0.20946942603E+02 -0.12039624860E+02  0.39213257755E+02  0.51100000000E-03 0. -1.
        -11    1    3    3    0    0 -0.26493609129E+01  0.80862462608E+01  0.23278871793E+01  0.88218790979E+01  0.51100000000E-03 0.  1.
        -12    1    3    3    0    0 -0.27612191804E+02 -0.30009862799E+02  0.99333548059E+01  0.41972568889E+02  0.00000000000E+00 0.  1.
</event>
<event>
 7    1  0.2490895E-015  0.9000771E+02  0.7816164E-02  0.1186339E+00
        -11   -1    0    0    0    0  0.00000000000E+00  0.00000000000E+00  0.45593999997E+02  0.45594000000E+02  0.51100000000E-03 0.  1.
         11   -1    0    0    0    0 -0.00000000000E+00 -0.00000000000E+00 -0.45593999997E+02  0.45594000000E+02  0.51100000000E-03 0. -1.
    9900012    2    1    2    0    0  0.20033361159E+00 -0.40834029542E+00  0.10891312664E+01  0.90007710939E+02  0.89999971923E+02 0.  0.
         12    1    1    2    0    0 -0.20033361159E+00  0.40834029542E+00 -0.10891312664E+01  0.11802890613E+01  0.00000000000E+00 0. -1.
         11    1    3    3    0    0  0.57655321667E+01 -0.26305214555E+01 -0.34558137413E+02  0.35134397192E+02  0.51100000000E-03 0. -1.
        -11    1    3    3    0    0 -0.95165151071E+00  0.12617418740E+02 -0.42802696064E+01  0.13357604741E+02  0.51100000000E-03 0.  1.
        -12    1    3    3    0    0 -0.46135470445E+01 -0.10395237580E+02  0.39927538286E+02  0.41515709006E+02  0.00000000000E+00 0.  1.
</event>
<event>
 7    1  0.2490895E-015  0.9000811E+02  0.7816164E-02  0.1186338E+00
        -11   -1    0    0    0    0  0.00000000000E+00  0.00000000000E+00  0.45593999997E+02  0.45594000000E+02  0.51100000000E-03 0. -1.
         11   -1    0    0    0    0 -0.00000000000E+00 -0.00000000000E+00 -0.45593999997E+02  0.45594000000E+02  0.51100000000E-03 0.  1.
    9900012    2    1    2    0    0 -0.11463121482E+01 -0.56289280098E-01  0.27374406453E+00  0.90008111939E+02  0.90000378216E+02 0.  0.
         12    1    1    2    0    0  0.11463121482E+01  0.56289280098E-01 -0.27374406453E+00  0.11798880612E+01  0.00000000000E+00 0. -1.
         11    1    3    3    0    0  0.23422818544E+01  0.20059162846E+01 -0.90834419326E+01  0.95926483325E+01  0.51100000000E-03 0. -1.
        -11    1    3    3    0    0  0.11579147817E+02 -0.20258172960E+00 -0.33236802716E+02  0.35196629932E+02  0.51100000000E-03 0.  1.
         12    1    3    3    0    0 -0.15067741820E+02 -0.18596238351E+01  0.42593988713E+02  0.45218833674E+02  0.00000000000E+00 0. -1.
</event>
<event>
 7    1  0.2490895E-015  0.9000790E+02  0.7816164E-02  0.1186339E+00
        -11   -1    0    0    0    0  0.00000000000E+00  0.00000000000E+00  0.45593999997E+02  0.45594000000E+02  0.51100000000E-03 0.  1.
         11   -1    0    0    0    0 -0.00000000000E+00 -0.00000000000E+00 -0.45593999997E+02  0.45594000000E+02  0.51100000000E-03 0. -1.
    9900012    2    1    2    0    0 -0.58802584339E+00 -0.42942981838E+00  0.92868225347E+00  0.90007900390E+02  0.90000163875E+02 0.  0.
         12    1    1    2    0    0  0.58802584339E+00  0.42942981838E+00 -0.92868225347E+00  0.11800996099E+01  0.00000000000E+00 0. -1.
         11    1    3    3    0    0 -0.13921636562E+02  0.41225891143E+02 -0.22388521566E+01  0.43570615378E+02  0.51100000000E-03 0. -1.
        -11    1    3    3    0    0  0.76930432144E+01 -0.55756472858E+01  0.28451204726E+01  0.99179366462E+01  0.51100000000E-03 0.  1.
        -12    1    3    3    0    0  0.56405675047E+01 -0.36079673676E+02  0.32241393751E+00  0.36519348366E+02  0.00000000000E+00 0.  1.
</event>
<event>
 7    1  0.2490895E-015  0.9000722E+02  0.7816164E-02  0.1186340E+00
        -11   -1    0    0    0    0  0.00000000000E+00  0.00000000000E+00  0.45593999997E+02  0.45594000000E+02  0.51100000000E-03 0. -1.
         11   -1    0    0    0    0 -0.00000000000E+00 -0.00000000000E+00 -0.45593999997E+02  0.45594000000E+02  0.51100000000E-03 0.  1.
    9900012    2    1    2    0    0  0.89570862745E+00 -0.76685921346E+00 -0.62206087979E-01  0.90007222038E+02  0.89999476567E+02 0.  0.
         12    1    1    2    0    0 -0.89570862745E+00  0.76685921346E+00  0.62206087979E-01  0.11807779622E+01  0.00000000000E+00 0. -1.
         11    1    3    3    0    0  0.64104700293E+01 -0.11756123854E+02 -0.77752191944E+01  0.15484011362E+02  0.51100000000E-03 0. -1.
        -11    1    3    3    0    0  0.31309759886E+02 -0.82510267254E+01  0.60700202928E+01  0.32942763284E+02  0.51100000000E-03 0.  1.
         12    1    3    3    0    0 -0.36824521288E+02  0.19240291366E+02  0.16429928136E+01  0.41580447392E+02  0.00000000000E+00 0. -1.
</event>
<event>
 7    1  0.2490895E-015  0.9000774E+02  0.7816164E-02  0.1186339E+00
        -11   -1    0    0    0    0  0.00000000000E+00  0.00000000000E+00  0.45593999997E+02  0.45594000000E+02  0.51100000000E-03 0.  1.
         11   -1    0    0    0    0 -0.00000000000E+00 -0.00000000000E+00 -0.45593999997E+02  0.45594000000E+02  0.51100000000E-03 0. -1.
    9900012    2    1    2    0    0 -0.53440247165E+00 -0.68355395279E+00  0.80011445414E+00  0.90007739373E+02  0.90000000733E+02 0.  0.
         12    1    1    2    0    0  0.53440247165E+00  0.68355395279E+00 -0.80011445414E+00  0.11802606271E+01  0.00000000000E+00 0. -1.
         11    1    3    3    0    0 -0.26507662304E+02  0.22315595414E+02 -0.10904221641E+02  0.36325528342E+02  0.51100000000E-03 0. -1.
        -11    1    3    3    0    0 -0.15921139740E+01  0.94050179038E+01  0.44488040143E+01  0.10525257531E+02  0.51100000000E-03 0.  1.
        -12    1    3    3    0    0  0.27565373806E+02 -0.32404167271E+02  0.72555320809E+01  0.43156953499E+02  0.00000000000E+00 0.  1.
</event>
<event>
 7    1  0.2490895E-015  0.9000771E+02  0.7816164E-02  0.1186339E+00
        -11   -1    0    0    0    0  0.00000000000E+00  0.00000000000E+00  0.45593999997E+02  0.45594000000E+02  0.51100000000E-03 0. -1.
         11   -1    0    0    0    0 -0.00000000000E+00 -0.00000000000E+00 -0.45593999997E+02  0.45594000000E+02  0.51100000000E-03 0.  1.
    9900012    2    1    2    0    0 -0.83052920279E+00  0.76923103023E+00 -0.33406735603E+00  0.90007705065E+02  0.89999965972E+02 0.  0.
         12    1    1    2    0    0  0.83052920279E+00 -0.76923103023E+00  0.33406735603E+00  0.11802949347E+01  0.00000000000E+00 0. -1.
         11    1    3    3    0    0  0.10059108333E+01 -0.91326151048E+01  0.14527441176E+01  0.93019880127E+01  0.51100000000E-03 0. -1.
        -11    1    3    3    0    0  0.10175599435E+02 -0.95839906959E+01 -0.36522305646E+02  0.39105939593E+02  0.51100000000E-03 0.  1.
         12    1    3    3    0    0 -0.12012039471E+02  0.19485836831E+02  0.34735494172E+02  0.41599777459E+02  0.00000000000E+00 0. -1.
</event>
<event>
 7    1  0.2490895E-015  0.9000785E+02  0.7816164E-02  0.1186339E+00
        -11   -1    0    0    0    0  0.00000000000E+00  0.00000000000E+00  0.45593999997E+02  0.45594000000E+02  0.51100000000E-03 0.  1.
         11   -1    0    0    0    0 -0.00000000000E+00 -0.00000000000E+00 -0.45593999997E+02  0.45594000000E+02  0.51100000000E-03 0. -1.
    9900012    2    1    2    0    0  0.10974625473E+00  0.75205141040E+00 -0.90284635298E+00  0.90007848696E+02  0.90000111498E+02 0.  0.
         12    1    1    2    0    0 -0.10974625473E+00 -0.75205141040E+00  0.90284635298E+00  0.11801513045E+01  0.00000000000E+00 0. -1.
         11    1    3    3    0    0 -0.81415907912E+01  0.47024766892E+01  0.63528168193E+00  0.94235009790E+01  0.51100000000E-03 0. -1.
        -11    1    3    3    0    0 -0.92906825451E+01  0.33492652148E+02  0.12471092852E+02  0.36926991310E+02  0.51100000000E-03 0.  1.
         12    1    3    3    0    0  0.17542019591E+02 -0.37443077427E+02 -0.14009220887E+02  0.43657356406E+02  0.00000000000E+00 0. -1.
</event>
<event>
 7    1  0.2490895E-015  0.9000775E+02  0.7816164E-02  0.1186339E+00
        -11   -1    0    0    0    0  0.00000000000E+00  0.00000000000E+00  0.45593999997E+02  0.45594000000E+02  0.51100000000E-03 0.  1.
         11   -1    0    0    0    0 -0.00000000000E+00 -0.00000000000E+00 -0.45593999997E+02  0.45594000000E+02  0.51100000000E-03 0. -1.
    9900012    2    1    2    0    0  0.62795710344E+00  0.99251398193E+00  0.11655099178E+00  0.90007746526E+02  0.90000007981E+02 0.  0.
         12    1    1    2    0    0 -0.62795710344E+00 -0.99251398193E+00 -0.11655099178E+00  0.11802534735E+01  0.00000000000E+00 0. -1.
         11    1    3    3    0    0  0.21628299624E+02  0.30099365982E+02 -0.42744189092E+01  0.37309862428E+02  0.51100000000E-03 0. -1.
        -11    1    3    3    0    0  0.77215456702E+01  0.15533794186E+01 -0.54133405401E+01  0.95571706702E+01  0.51100000000E-03 0.  1.
        -12    1    3    3    0    0 -0.28721888190E+02 -0.30660231419E+02  0.98043104411E+01  0.43140713428E+02  0.00000000000E+00 0.  1.
</event>
<event>
 7    1  0.2490895E-015  0.9000766E+02  0.7816164E-02  0.1186339E+00
        -11   -1    0    0    0    0  0.00000000000E+00  0.00000000000E+00  0.45593999997E+02  0.45594000000E+02  0.51100000000E-03 0.  1.
         11   -1    0    0    0    0 -0.00000000000E+00 -0.00000000000E+00 -0.45593999997E+02  0.45594000000E+02  0.51100000000E-03 0. -1.
    9900012    2    1    2    0    0  0.54478777064E+00 -0.41509888191E+00  0.96130223607E+00  0.90007659886E+02  0.89999920196E+02 0.  0.
         12    1    1    2    0    0 -0.54478777064E+00  0.41509888191E+00 -0.96130223607E+00  0.11803401145E+01  0.00000000000E+00 0. -1.
         11    1    3    3    0    0 -0.25549636704E+02  0.17953614054E+02  0.18454743125E+02  0.36272492847E+02  0.51100000000E-03 0. -1.
        -11    1    3    3    0    0 -0.66131375470E+01  0.17068596140E+00  0.63871467547E+01  0.91955622906E+01  0.51100000000E-03 0.  1.
        -12    1    3    3    0    0  0.32707562022E+02 -0.18539398897E+02 -0.23880587644E+02  0.44539604748E+02  0.00000000000E+00 0.  1.
</event>
<event>
 7    1  0.2490895E-015  0.9000773E+02  0.7816164E-02  0.1186339E+00
        -11   -1    0    0    0    0  0.00000000000E+00  0.00000000000E+00  0.45593999997E+02  0.45594000000E+02  0.51100000000E-03 0. -1.
         11   -1    0    0    0    0 -0.00000000000E+00 -0.00000000000E+00 -0.45593999997E+02  0.45594000000E+02  0.51100000000E-03 0.  1.
    9900012    2    1    2    0    0  0.98919619969E+00 -0.52657455498E+00 -0.37046310397E+00  0.90007731897E+02  0.89999993158E+02 0.  0.
         12    1    1    2    0    0 -0.98919619969E+00  0.52657455498E+00  0.37046310397E+00  0.11802681030E+01  0.00000000000E+00 0. -1.
         11    1    3    3    0    0 -0.33094430626E+02 -0.21345521634E+02  0.45485196784E+01  0.39642927034E+02  0.51100000000E-03 0. -1.
        -11    1    3    3    0    0  0.25422230717E+01 -0.23350892917E+01  0.83605516667E+01  0.90451293291E+01  0.51100000000E-03 0.  1.
        -12    1    3    3    0    0  0.31541403754E+02  0.23154036371E+02 -0.13279534449E+02  0.41319675534E+02  0.00000000000E+00 0.  1.
</event>
<event>
 7    1  0.2490895E-015  0.9000777E+02  0.7816164E-02  0.1186339E+00
        -11   -1    0    0    0    0  0.00000000000E+00  0.00000000000E+00  0.45593999997E+02  0.45594000000E+02  0.51100000000E-03 0. -1.
         11   -1    0    0    0    0 -0.00000000000E+00 -0.00000000000E+00 -0.45593999997E+02  0.45594000000E+02  0.51100000000E-03 0.  1.
    9900012    2    1    2    0    0 -0.94649246284E+00 -0.39433729430E+00 -0.58444955960E+00  0.90007774949E+02  0.90000036778E+02 0.  0.
         12    1    1    2    0    0  0.94649246284E+00  0.39433729430E+00  0.58444955960E+00  0.11802250513E+01  0.00000000000E+00 0. -1.
         11    1    3    3    0    0  0.84717617486E+01 -0.39320902838E+02 -0.73076688378E+01  0.40881611651E+02  0.51100000000E-03 0. -1.
        -11    1    3    3    0    0  0.50520591903E+00 -0.25640880474E+01  0.59049902526E+01  0.64574523366E+01  0.51100000000E-03 0.  1.
        -12    1    3    3    0    0 -0.99234601304E+01  0.41490653591E+02  0.81822902560E+00  0.42668710961E+02  0.00000000000E+00 0.  1.
</event>
<event>
 7    1  0.2490895E-015  0.9000783E+02  0.7816164E-02  0.1186339E+00
        -11   -1    0    0    0    0  0.00000000000E+00  0.00000000000E+00  0.45593999997E+02  0.45594000000E+02  0.51100000000E-03 0. -1.
         11   -1    0    0    0    0 -0.00000000000E+00 -0.00000000000E+00 -0.45593999997E+02  0.45594000000E+02  0.51100000000E-03 0.  1.
    9900012    2    1    2    0    0 -0.60929732933E+00  0.93910130454E+00  0.37369239135E+00  0.90007830309E+02  0.90000092869E+02 0.  0.
         12    1    1    2    0    0  0.60929732933E+00 -0.93910130454E+00 -0.37369239135E+00  0.11801696908E+01  0.00000000000E+00 0. -1.
         11    1    3    3    0    0  0.17144914009E+01  0.16160219617E+02 -0.54454449124E+01  0.17138992076E+02  0.51100000000E-03 0. -1.
        -11    1    3    3    0    0  0.79282040744E+01  0.15723896240E+02 -0.23267363935E+02  0.29179917024E+02  0.51100000000E-03 0.  1.
        -12    1    3    3    0    0 -0.10251992805E+02 -0.30945014552E+02  0.29086501238E+02  0.43688921209E+02  0.00000000000E+00 0.  1.
</event>
<event>
 7    1  0.2490895E-015  0.9000785E+02  0.7816164E-02  0.1186339E+00
        -11   -1    0    0    0    0  0.00000000000E+00  0.00000000000E+00  0.45593999997E+02  0.45594000000E+02  0.51100000000E-03 0.  1.
         11   -1    0    0    0    0 -0.00000000000E+00 -0.00000000000E+00 -0.45593999997E+02  0.45594000000E+02  0.51100000000E-03 0. -1.
    9900012    2    1    2    0    0 -0.97082786483E+00  0.65430909289E+00 -0.14876375503E+00  0.90007848405E+02  0.90000111204E+02 0.  0.
         12    1    1    2    0    0  0.97082786483E+00 -0.65430909289E+00  0.14876375503E+00  0.11801515949E+01  0.00000000000E+00 0. -1.
         11    1    3    3    0    0  0.36131372707E+01  0.15933573928E+02 -0.20724628294E+02  0.26390220864E+02  0.51100000000E-03 0. -1.
        -11    1    3    3    0    0 -0.13666022832E+02  0.14635340150E+02  0.25013854323E+02  0.32041321285E+02  0.51100000000E-03 0.  1.
        -12    1    3    3    0    0  0.90820576965E+01 -0.29914604985E+02 -0.44379897841E+01  0.31576306256E+02  0.00000000000E+00 0.  1.
</event>
<event>
 7    1  0.2490895E-015  0.9000784E+02  0.7816164E-02  0.1186339E+00
        -11   -1    0    0    0    0  0.00000000000E+00  0.00000000000E+00  0.45593999997E+02  0.45594000000E+02  0.51100000000E-03 0.  1.
         11   -1    0    0    0    0 -0.00000000000E+00 -0.00000000000E+00 -0.45593999997E+02  0.45594000000E+02  0.51100000000E-03 0. -1.
    9900012    2    1    2    0    0 -0.31809731527E+00 -0.37961011641E+00  0.10712083204E+01  0.90007840262E+02  0.90000102953E+02 0.  0.
         12    1    1    2    0    0  0.31809731527E+00  0.37961011641E+00 -0.10712083204E+01  0.11801597384E+01  0.00000000000E+00 0. -1.
         11    1    3    3    0    0 -0.17420910899E+01  0.91843834068E+01 -0.23737428926E+01  0.96448139179E+01  0.51100000000E-03 0. -1.
        -11    1    3    3    0    0 -0.32111850822E+01  0.34895701969E+02 -0.31246790105E+01  0.35182173678E+02  0.51100000000E-03 0.  1.
         12    1    3    3    0    0  0.46351788568E+01 -0.44459695492E+02  0.65696302234E+01  0.45180852665E+02  0.00000000000E+00 0. -1.
</event>
<event>
 7    1  0.2490895E-015  0.9000770E+02  0.7816164E-02  0.1186339E+00
        -11   -1    0    0    0    0  0.00000000000E+00  0.00000000000E+00  0.45593999997E+02  0.45594000000E+02  0.51100000000E-03 0.  1.
         11   -1    0    0    0    0 -0.00000000000E+00 -0.00000000000E+00 -0.45593999997E+02  0.45594000000E+02  0.51100000000E-03 0. -1.
    9900012    2    1    2    0    0  0.80986091985E+00  0.23277999705E+00  0.82645943729E+00  0.90007704936E+02  0.89999965841E+02 0.  0.
         12    1    1    2    0    0 -0.80986091985E+00 -0.23277999705E+00 -0.82645943729E+00  0.11802950640E+01  0.00000000000E+00 0. -1.
         11    1    3    3    0    0  0.69588560488E+01  0.95030096186E+01  0.78458106421E+01  0.14152371328E+02  0.51100000000E-03 0. -1.
        -11    1    3    3    0    0 -0.91736251814E+01 -0.50368933417E+00  0.33268569041E+02  0.34513863710E+02  0.51100000000E-03 0.  1.
         12    1    3    3    0    0  0.30246300524E+01 -0.87665402874E+01 -0.40287920246E+02  0.41341469898E+02  0.00000000000E+00 0. -1.
</event>
<event>
 8    1  0.2490895E-015  0.9000781E+02  0.7816164E-02  0.1186339E+00
        -11   -1    0    0    0    0  0.00000000000E+00  0.00000000000E+00  0.45593999997E+02  0.45594000000E+02  0.51100000000E-03 0.  1.
         11   -1    0    0    0    0 -0.00000000000E+00 -0.00000000000E+00 -0.45593999997E+02  0.45594000000E+02  0.51100000000E-03 0. -1.
    9900012    2    1    2    0    0  0.10841359983E+01 -0.46073273458E+00  0.72190550380E-01  0.90007814849E+02  0.90000077205E+02 0.  0.
         23    2    3    3    0    0 -0.66718929310E+00  0.27908470759E+02  0.19867514671E+01  0.61520196650E+02  0.54785577781E+02 0.  0.
         12    1    1    2    0    0 -0.10841359983E+01  0.46073273458E+00 -0.72190550380E-01  0.11801851512E+01  0.00000000000E+00 0. -1.
         11    1    4    4    0    0  0.81766365563E+01  0.77024877458E+01 -0.24559431421E+02  0.27006506158E+02  0.51100000000E-03 0. -1.
        -11    1    4    4    0    0 -0.88438258494E+01  0.20205983013E+02  0.26546182888E+02  0.34513690492E+02  0.51100000000E-03 0.  1.
         12    1    3    3    0    0  0.17513252914E+01 -0.28369203494E+02 -0.19145609167E+01  0.28487618199E+02  0.00000000000E+00 0. -1.
</event>
<event>
 7    1  0.2490895E-015  0.9000764E+02  0.7816164E-02  0.1186339E+00
        -11   -1    0    0    0    0  0.00000000000E+00  0.00000000000E+00  0.45593999997E+02  0.45594000000E+02  0.51100000000E-03 0.  1.
         11   -1    0    0    0    0 -0.00000000000E+00 -0.00000000000E+00 -0.45593999997E+02  0.45594000000E+02  0.51100000000E-03 0. -1.
    9900012    2    1    2    0    0 -0.10896926080E+01  0.43021327334E+00 -0.14402592432E+00  0.90007636960E+02  0.89999896967E+02 0.  0.
         12    1    1    2    0    0  0.10896926080E+01 -0.43021327334E+00  0.14402592432E+00  0.11803630405E+01  0.00000000000E+00 0. -1.
         11    1    3    3    0    0  0.34389523821E+02  0.11913432429E+02  0.20118764792E+02  0.41585260825E+02  0.51100000000E-03 0. -1.
        -11    1    3    3    0    0 -0.82397951478E+01  0.53751163358E+01  0.11285694188E+01  0.99025132616E+01  0.51100000000E-03 0.  1.
        -12    1    3    3    0    0 -0.27239421281E+02 -0.16858335491E+02 -0.21391360135E+02  0.38519862873E+02  0.00000000000E+00 0.  1.
</event>
<event>
 7    1  0.2490895E-015  0.9000772E+02  0.7816164E-02  0.1186339E+00
        -11   -1    0    0    0    0  0.00000000000E+00  0.00000000000E+00  0.45593999997E+02  0.45594000000E+02  0.51100000000E-03 0.  1.
         11   -1    0    0    0    0 -0.00000000000E+00 -0.00000000000E+00 -0.45593999997E+02  0.45594000000E+02  0.51100000000E-03 0. -1.
    9900012    2    1    2    0    0 -0.10841046151E+01 -0.25033367155E+00 -0.39385602641E+00  0.90007715147E+02  0.89999976187E+02 0.  0.
         12    1    1    2    0    0  0.10841046151E+01  0.25033367155E+00  0.39385602641E+00  0.11802848525E+01  0.00000000000E+00 0. -1.
         11    1    3    3    0    0  0.20382108493E+01  0.82957275018E+01  0.15393789020E+01  0.86800395112E+01  0.51100000000E-03 0. -1.
        -11    1    3    3    0    0 -0.32268056773E+02  0.19323422798E+01  0.24538349991E+02  0.40584381912E+02  0.51100000000E-03 0.  1.
         12    1    3    3    0    0  0.29145741309E+02 -0.10478403453E+02 -0.26471584920E+02  0.40743293725E+02  0.00000000000E+00 0. -1.
</event>
<event>
 7    1  0.2490895E-015  0.9000782E+02  0.7816164E-02  0.1186339E+00
        -11   -1    0    0    0    0  0.00000000000E+00  0.00000000000E+00  0.45593999997E+02  0.45594000000E+02  0.51100000000E-03 0.  1.
         11   -1    0    0    0    0 -0.00000000000E+00 -0.00000000000E+00 -0.45593999997E+02  0.45594000000E+02  0.51100000000E-03 0. -1.
    9900012    2    1    2    0    0  0.11549466203E+01  0.24220420795E+00 -0.16378751726E-01  0.90007816608E+02  0.90000078988E+02 0.  0.
         12    1    1    2    0    0 -0.11549466203E+01 -0.24220420795E+00  0.16378751726E-01  0.11801833915E+01  0.00000000000E+00 0. -1.
         11    1    3    3    0    0 -0.50783636421E+01  0.20277062753E+02 -0.26697773349E+02  0.33907523549E+02  0.51100000000E-03 0. -1.
        -11    1    3    3    0    0 -0.10242514318E+01 -0.18051814685E+00 -0.11986392428E+02  0.12031428905E+02  0.51100000000E-03 0.  1.
        -12    1    3    3    0    0  0.72575616942E+01 -0.19854340398E+02  0.38667787026E+02  0.44068864154E+02  0.00000000000E+00 0.  1.
</event>
<event>
 7    1  0.2490895E-015  0.9000778E+02  0.7816164E-02  0.1186339E+00
        -11   -1    0    0    0    0  0.00000000000E+00  0.00000000000E+00  0.45593999997E+02  0.45594000000E+02  0.51100000000E-03 0.  1.
         11   -1    0    0    0    0 -0.00000000000E+00 -0.00000000000E+00 -0.45593999997E+02  0.45594000000E+02  0.51100000000E-03 0. -1.
    9900012    2    1    2    0    0  0.89556096906E+00 -0.21108348715E+00  0.73913608601E+00  0.90007784833E+02  0.90000046792E+02 0.  0.
         12    1    1    2    0    0 -0.89556096906E+00  0.21108348715E+00 -0.73913608601E+00  0.11802151675E+01  0.00000000000E+00 0. -1.
         11    1    3    3    0    0  0.20156350434E+01 -0.48940938182E+01  0.54634072596E+01  0.76068231263E+01  0.51100000000E-03 0. -1.
        -11    1    3    3    0    0  0.18325395043E+02 -0.17774224381E+02 -0.32774627476E+02  0.41544185661E+02  0.51100000000E-03 0.  1.
         12    1    3    3    0    0 -0.19445469117E+02  0.22457234712E+02  0.28050356303E+02  0.40856776045E+02  0.00000000000E+00 0. -1.
</event>
<event>
 7    1  0.2490895E-015  0.9000772E+02  0.7816164E-02  0.1186339E+00
        -11   -1    0    0    0    0  0.00000000000E+00  0.00000000000E+00  0.45593999997E+02  0.45594000000E+02  0.51100000000E-03 0. -1.
         11   -1    0    0    0    0 -0.00000000000E+00 -0.00000000000E+00 -0.45593999997E+02  0.45594000000E+02  0.51100000000E-03 0.  1.
    9900012    2    1    2    0    0 -0.20673007332E+00 -0.11458841585E+01 -0.19304144030E+00  0.90007723411E+02  0.89999984560E+02 0.  0.
         12    1    1    2    0    0  0.20673007332E+00  0.11458841585E+01  0.19304144030E+00  0.11802765886E+01  0.00000000000E+00 0. -1.
         11    1    3    3    0    0 -0.28176613805E+02 -0.78342573798E+01  0.22909501566E+02  0.37150268054E+02  0.51100000000E-03 0. -1.
        -11    1    3    3    0    0 -0.20036829994E+01  0.49948080317E+01  0.79921462820E+01  0.96352091461E+01  0.51100000000E-03 0.  1.
        -12    1    3    3    0    0  0.29973566731E+02  0.16935651896E+01 -0.31094689288E+02  0.43222246211E+02  0.00000000000E+00 0.  1.
</event>
<event>
 7    1  0.2490895E-015  0.9000770E+02  0.7816164E-02  0.1186339E+00
        -11   -1    0    0    0    0  0.00000000000E+00  0.00000000000E+00  0.45593999997E+02  0.45594000000E+02  0.51100000000E-03 0.  1.
         11   -1    0    0    0    0 -0.00000000000E+00 -0.00000000000E+00 -0.45593999997E+02  0.45594000000E+02  0.51100000000E-03 0. -1.
    9900012    2    1    2    0    0  0.47464937342E+00 -0.68846025588E+00  0.83297151993E+00  0.90007698723E+02  0.89999959546E+02 0.  0.
         12    1    1    2    0    0 -0.47464937342E+00  0.68846025588E+00 -0.83297151993E+00  0.11803012771E+01  0.00000000000E+00 0. -1.
         11    1    3    3    0    0  0.75240795971E+01 -0.25290040144E+01 -0.52021006477E+01  0.94904945339E+01  0.51100000000E-03 0. -1.
        -11    1    3    3    0    0  0.22083110465E+02  0.29966924361E+02  0.12997473499E+02  0.39428601815E+02  0.51100000000E-03 0.  1.
         12    1    3    3    0    0 -0.29132540689E+02 -0.28126380602E+02 -0.69624013315E+01  0.41088602374E+02  0.00000000000E+00 0. -1.
</event>
<event>
 7    1  0.2490895E-015  0.9000772E+02  0.7816164E-02  0.1186339E+00
        -11   -1    0    0    0    0  0.00000000000E+00  0.00000000000E+00  0.45593999997E+02  0.45594000000E+02  0.51100000000E-03 0. -1.
         11   -1    0    0    0    0 -0.00000000000E+00 -0.00000000000E+00 -0.45593999997E+02  0.45594000000E+02  0.51100000000E-03 0.  1.
    9900012    2    1    2    0    0  0.88340168907E+00 -0.77919822042E+00 -0.74199499018E-01  0.90007722924E+02  0.89999984066E+02 0.  0.
         12    1    1    2    0    0 -0.88340168907E+00  0.77919822042E+00  0.74199499018E-01  0.11802770762E+01  0.00000000000E+00 0. -1.
         11    1    3    3    0    0  0.16079464630E+01 -0.99382642510E+01  0.34211489322E+02  0.35662032892E+02  0.51100000000E-03 0. -1.
        -11    1    3    3    0    0  0.28414550987E+01 -0.10070339366E+02  0.41213645926E+01  0.11245943641E+02  0.51100000000E-03 0.  1.
        -12    1    3    3    0    0 -0.35659998726E+01  0.19229405396E+02 -0.38407053413E+02  0.43099746390E+02  0.00000000000E+00 0.  1.
</event>
<event>
 7    1  0.2490895E-015  0.9000769E+02  0.7816164E-02  0.1186339E+00
        -11   -1    0    0    0    0  0.00000000000E+00  0.00000000000E+00  0.45593999997E+02  0.45594000000E+02  0.51100000000E-03 0.  1.
         11   -1    0    0    0    0 -0.00000000000E+00 -0.00000000000E+00 -0.45593999997E+02  0.45594000000E+02  0.51100000000E-03 0. -1.
    9900012    2    1    2    0    0  0.56296241098E+00 -0.28245757476E+00  0.99821352793E+00  0.90007686819E+02  0.89999947485E+02 0.  0.
         12    1    1    2    0    0 -0.56296241098E+00  0.28245757476E+00 -0.99821352793E+00  0.11803131809E+01  0.00000000000E+00 0. -1.
         11    1    3    3    0    0  0.29569425174E+02  0.32308042781E+02  0.82034408741E+01  0.44558466938E+02  0.51100000000E-03 0. -1.
        -11    1    3    3    0    0 -0.81165080692E+01 -0.42505090637E+01  0.12336378787E+01  0.92448035790E+01  0.51100000000E-03 0.  1.
        -12    1    3    3    0    0 -0.20889954693E+02 -0.28339991292E+02 -0.84388652249E+01  0.36204416302E+02  0.00000000000E+00 0.  1.
</event>
<event>
 7    1  0.2490895E-015  0.9000776E+02  0.7816164E-02  0.1186339E+00
        -11   -1    0    0    0    0  0.00000000000E+00  0.00000000000E+00  0.45593999997E+02  0.45594000000E+02  0.51100000000E-03 0. -1.
         11   -1    0    0    0    0 -0.00000000000E+00 -0.00000000000E+00 -0.45593999997E+02  0.45594000000E+02  0.51100000000E-03 0.  1.
    9900012    2    1    2    0    0 -0.76462153721E+00 -0.82648423688E+00 -0.35389853413E+00  0.90007759998E+02  0.90000021630E+02 0.  0.
         12    1    1    2    0    0  0.76462153721E+00  0.82648423688E+00  0.35389853413E+00  0.11802400016E+01  0.00000000000E+00 0. -1.
         11    1    3    3    0    0  0.22883538059E+02 -0.27465419070E+02  0.56726535344E+01  0.36196471612E+02  0.51100000000E-03 0. -1.
        -11    1    3    3    0    0  0.64512393797E+01 -0.61378627756E+01 -0.20198025205E+01  0.91307968693E+01  0.51100000000E-03 0.  1.
        -12    1    3    3    0    0 -0.30099398976E+02  0.32776797609E+02 -0.40067495480E+01  0.44680491517E+02  0.00000000000E+00 0.  1.
</event>
<event>
 7    1  0.2490895E-015  0.9000775E+02  0.7816164E-02  0.1186339E+00
        -11   -1    0    0    0    0  0.00000000000E+00  0.00000000000E+00  0.45593999997E+02  0.45594000000E+02  0.51100000000E-03 0.  1.
         11   -1    0    0    0    0 -0.00000000000E+00 -0.00000000000E+00 -0.45593999997E+02  0.45594000000E+02  0.51100000000E-03 0. -1.
    9900012    2    1    2    0    0  0.88988613584E+00  0.44813503334E+00  0.63266543609E+00  0.90007750917E+02  0.90000012430E+02 0.  0.
         12    1    1    2    0    0 -0.88988613584E+00 -0.44813503334E+00 -0.63266543609E+00  0.11802490826E+01  0.00000000000E+00 0. -1.
         11    1    3    3    0    0 -0.45437577528E+01 -0.12254491623E+01 -0.85590429337E+01  0.97675317439E+01  0.51100000000E-03 0. -1.
        -11    1    3    3    0    0  0.10175537104E+02 -0.34189556118E+02  0.21946573675E+02  0.41882208624E+02  0.51100000000E-03 0.  1.
         12    1    3    3    0    0 -0.47418932154E+01  0.35863140313E+02 -0.12754865305E+02  0.38358010550E+02  0.00000000000E+00 0. -1.
</event>
<event>
 7    1  0.2490895E-015  0.9000777E+02  0.7816164E-02  0.1186339E+00
        -11   -1    0    0    0    0  0.00000000000E+00  0.00000000000E+00  0.45593999997E+02  0.45594000000E+02  0.51100000000E-03 0.  1.
         11   -1    0    0    0    0 -0.00000000000E+00 -0.00000000000E+00 -0.45593999997E+02  0.45594000000E+02  0.51100000000E-03 0. -1.
    9900012    2    1    2    0    0  0.55972358939E+00 -0.97216599549E+00  0.36679755396E+00  0.90007772198E+02  0.90000033991E+02 0.  0.
         12    1    1    2    0    0 -0.55972358939E+00  0.97216599549E+00 -0.36679755396E+00  0.11802278021E+01  0.00000000000E+00 0. -1.
         11    1    3    3    0    0 -0.14481449221E+00 -0.30212166377E+01 -0.10220471741E+02  0.10658647385E+02  0.51100000000E-03 0. -1.
        -11    1    3    3    0    0 -0.68058750662E+01 -0.28410023477E+02  0.30466426405E+02  0.42209625769E+02  0.51100000000E-03 0.  1.
         12    1    3    3    0    0  0.75104131478E+01  0.30459074119E+02 -0.19879157110E+02  0.37139499044E+02  0.00000000000E+00 0. -1.
</event>
<event>
 7    1  0.2490895E-015  0.9000772E+02  0.7816164E-02  0.1186339E+00
        -11   -1    0    0    0    0  0.00000000000E+00  0.00000000000E+00  0.45593999997E+02  0.45594000000E+02  0.51100000000E-03 0.  1.
         11   -1    0    0    0    0 -0.00000000000E+00 -0.00000000000E+00 -0.45593999997E+02  0.45594000000E+02  0.51100000000E-03 0. -1.
    9900012    2    1    2    0    0  0.44443399326E+00 -0.19810817521E+00  0.10753123274E+01  0.90007718243E+02  0.89999979324E+02 0.  0.
         12    1    1    2    0    0 -0.44443399326E+00  0.19810817521E+00 -0.10753123274E+01  0.11802817566E+01  0.00000000000E+00 0. -1.
         11    1    3    3    0    0 -0.21403943196E+02  0.11191554810E+02  0.24391507630E+01  0.24276102242E+02  0.51100000000E-03 0. -1.
        -11    1    3    3    0    0 -0.13203813249E+02  0.15949142237E+02  0.35511009296E+01  0.21007763814E+02  0.51100000000E-03 0.  1.
         12    1    3    3    0    0  0.35052190438E+02 -0.27338805222E+02 -0.49149393652E+01  0.44723852187E+02  0.00000000000E+00 0. -1.
</event>
<event>
 7    1  0.2490895E-015  0.9000771E+02  0.7816164E-02  0.1186339E+00
        -11   -1    0    0    0    0  0.00000000000E+00  0.00000000000E+00  0.45593999997E+02  0.45594000000E+02  0.51100000000E-03 0.  1.
         11   -1    0    0    0    0 -0.00000000000E+00 -0.00000000000E+00 -0.45593999997E+02  0.45594000000E+02  0.51100000000E-03 0. -1.
    9900012    2    1    2    0    0 -0.84019434559E+00 -0.45456917965E+00  0.69320147351E+00  0.90007708527E+02  0.89999969480E+02 0.  0.
         12    1    1    2    0    0  0.84019434559E+00  0.45456917965E+00 -0.69320147351E+00  0.11802914726E+01  0.00000000000E+00 0. -1.
         11    1    3    3    0    0  0.12385379895E+02 -0.18341914147E+02 -0.33783472763E+02  0.40387454511E+02  0.51100000000E-03 0. -1.
        -11    1    3    3    0    0  0.80708916882E+01  0.17768837532E+01  0.42690587621E+01  0.93016918617E+01  0.51100000000E-03 0.  1.
        -12    1    3    3    0    0 -0.21296465928E+02  0.16110461214E+02  0.30207615475E+02  0.40318562155E+02  0.00000000000E+00 0.  1.
</event>
<event>
 7    1  0.2490895E-015  0.9000777E+02  0.7816164E-02  0.1186339E+00
        -11   -1    0    0    0    0  0.00000000000E+00  0.00000000000E+00  0.45593999997E+02  0.45594000000E+02  0.51100000000E-03 0.  1.
         11   -1    0    0    0    0 -0.00000000000E+00 -0.00000000000E+00 -0.45593999997E+02  0.45594000000E+02  0.51100000000E-03 0. -1.
    9900012    2    1    2    0    0  0.79569751819E+00 -0.75397079274E+00  0.43741900861E+00  0.90007770410E+02  0.90000032179E+02 0.  0.
         12    1    1    2    0    0 -0.79569751819E+00  0.75397079274E+00 -0.43741900861E+00  0.11802295903E+01  0.00000000000E+00 0. -1.
         11    1    3    3    0    0  0.22256638698E+02 -0.11332885522E+02 -0.84079485075E+01  0.26353099604E+02  0.51100000000E-03 0. -1.
        -11    1    3    3    0    0 -0.16960069482E+02 -0.22611680104E+02  0.10415972582E+02  0.30123487830E+02  0.51100000000E-03 0.  1.
         12    1    3    3    0    0 -0.45008716981E+01  0.33190594834E+02 -0.15706050656E+01  0.33531182975E+02  0.00000000000E+00 0. -1.
</event>
<event>
 7    1  0.2490895E-015  0.9000771E+02  0.7816164E-02  0.1186339E+00
        -11   -1    0    0    0    0  0.00000000000E+00  0.00000000000E+00  0.45593999997E+02  0.45594000000E+02  0.51100000000E-03 0. -1.
         11   -1    0    0    0    0 -0.00000000000E+00 -0.00000000000E+00 -0.45593999997E+02  0.45594000000E+02  0.51100000000E-03 0.  1.
    9900012    2    1    2    0    0 -0.73519765548E-01 -0.11630370320E+01 -0.18714663311E+00  0.90007710139E+02  0.89999971113E+02 0.  0.
         12    1    1    2    0    0  0.73519765548E-01  0.11630370320E+01  0.18714663311E+00  0.11802898610E+01  0.00000000000E+00 0. -1.
         11    1    3    3    0    0 -0.17767016916E+00  0.23751898543E+01  0.94740291745E+01  0.97688444861E+01  0.51100000000E-03 0. -1.
        -11    1    3    3    0    0 -0.30301030778E+01  0.22529743754E+02 -0.36303327140E+02  0.42833426666E+02  0.51100000000E-03 0.  1.
         12    1    3    3    0    0  0.31342534814E+01 -0.26067970640E+02  0.26642151332E+02  0.37405438987E+02  0.00000000000E+00 0. -1.
</event>
<event>
 7    1  0.2910915E-015  0.9000768E+02  0.7816164E-02  0.1186339E+00
        -11   -1    0    0    0    0  0.00000000000E+00  0.00000000000E+00  0.45593999997E+02  0.45594000000E+02  0.51100000000E-03 0. -1.
         11   -1    0    0    0    0 -0.00000000000E+00 -0.00000000000E+00 -0.45593999997E+02  0.45594000000E+02  0.51100000000E-03 0.  1.
    9900012    2    1    2    0    0  0.92530215994E+00  0.44069321977E+00 -0.58545077651E+00  0.90007683427E+02  0.89999944048E+02 0.  0.
         12    1    1    2    0    0 -0.92530215994E+00 -0.44069321977E+00  0.58545077651E+00  0.11803165732E+01  0.00000000000E+00 0. -1.
         11    1    3    3    0    0  0.24083287838E+02  0.99513266782E+01  0.29961916342E+02  0.39708312567E+02  0.51100000000E-03 0. -1.
        -11    1    3    3    0    0 -0.89681378483E+00  0.95907287095E+01 -0.30778204940E+01  0.10112335606E+02  0.51100000000E-03 0.  1.
        -12    1    3    3    0    0 -0.22261171894E+02 -0.19101362168E+02 -0.27469546625E+02  0.40187035254E+02  0.00000000000E+00 0.  1.
</event>
<event>
 7    1  0.2490895E-015  0.9000777E+02  0.7816164E-02  0.1186339E+00
        -11   -1    0    0    0    0  0.00000000000E+00  0.00000000000E+00  0.45593999997E+02  0.45594000000E+02  0.51100000000E-03 0.  1.
         11   -1    0    0    0    0 -0.00000000000E+00 -0.00000000000E+00 -0.45593999997E+02  0.45594000000E+02  0.51100000000E-03 0. -1.
    9900012    2    1    2    0    0  0.10756726751E+01  0.43924723088E+00  0.20718995034E+00  0.90007772264E+02  0.90000034058E+02 0.  0.
         12    1    1    2    0    0 -0.10756726751E+01 -0.43924723088E+00 -0.20718995034E+00  0.11802277362E+01  0.00000000000E+00 0. -1.
         11    1    3    3    0    0  0.93795190728E+01 -0.30105787665E+01  0.17339897176E+01  0.10002283897E+02  0.51100000000E-03 0. -1.
        -11    1    3    3    0    0  0.15966540003E+02  0.15692559469E+02  0.30604101589E+02  0.37918305035E+02  0.51100000000E-03 0.  1.
         12    1    3    3    0    0 -0.24270386400E+02 -0.12242733471E+02 -0.32130901357E+02  0.42087183333E+02  0.00000000000E+00 0. -1.
</event>
<event>
 7    1  0.2490895E-015  0.9000773E+02  0.7816164E-02  0.1186339E+00
        -11   -1    0    0    0    0  0.00000000000E+00  0.00000000000E+00  0.45593999997E+02  0.45594000000E+02  0.51100000000E-03 0.  1.
         11   -1    0    0    0    0 -0.00000000000E+00 -0.00000000000E+00 -0.45593999997E+02  0.45594000000E+02  0.51100000000E-03 0. -1.
    9900012    2    1    2    0    0 -0.37041182390E+00 -0.59745587154E+00  0.94809559631E+00  0.90007727278E+02  0.89999988478E+02 0.  0.
         12    1    1    2    0    0  0.37041182390E+00  0.59745587154E+00 -0.94809559631E+00  0.11802727216E+01  0.00000000000E+00 0. -1.
         11    1    3    3    0    0 -0.18130996740E+02  0.27536951788E+01 -0.33947398889E+02  0.38584216612E+02  0.51100000000E-03 0. -1.
        -11    1    3    3    0    0  0.56588521027E+01 -0.19648442443E+01 -0.61640353091E+01  0.85952633222E+01  0.51100000000E-03 0.  1.
        -12    1    3    3    0    0  0.12101732813E+02 -0.13863068060E+01  0.41059529795E+02  0.42828247345E+02  0.00000000000E+00 0.  1.
</event>
<event>
 7    1  0.2490895E-015  0.9000710E+02  0.7816164E-02  0.1186340E+00
        -11   -1    0    0    0    0  0.00000000000E+00  0.00000000000E+00  0.45593999997E+02  0.45594000000E+02  0.51100000000E-03 0.  1.
         11   -1    0    0    0    0 -0.00000000000E+00 -0.00000000000E+00 -0.45593999997E+02  0.45594000000E+02  0.51100000000E-03 0. -1.
    9900012    2    1    2    0    0 -0.10825504002E+00  0.11206339410E+01 -0.35633442985E+00  0.90007104658E+02  0.89999357637E+02 0.  0.
         12    1    1    2    0    0  0.10825504002E+00 -0.11206339410E+01  0.35633442985E+00  0.11808953422E+01  0.00000000000E+00 0. -1.
         11    1    3    3    0    0 -0.10202130074E+02  0.13874585320E+01 -0.40235874659E+02  0.41532326074E+02  0.51100000000E-03 0. -1.
        -11    1    3    3    0    0 -0.89250413580E+00  0.84841185494E+01  0.30532103613E+01  0.90608457091E+01  0.51100000000E-03 0.  1.
        -12    1    3    3    0    0  0.10986379170E+02 -0.87509431404E+01  0.36826329868E+02  0.39413932875E+02  0.00000000000E+00 0.  1.
</event>
<event>
 7    1  0.2490895E-015  0.9000771E+02  0.7816164E-02  0.1186339E+00
        -11   -1    0    0    0    0  0.00000000000E+00  0.00000000000E+00  0.45593999997E+02  0.45594000000E+02  0.51100000000E-03 0.  1.
         11   -1    0    0    0    0 -0.00000000000E+00 -0.00000000000E+00 -0.45593999997E+02  0.45594000000E+02  0.51100000000E-03 0. -1.
    9900012    2    1    2    0    0  0.98320248301E+00  0.57251493431E+00 -0.31403085674E+00  0.90007713657E+02  0.89999974677E+02 0.  0.
         12    1    1    2    0    0 -0.98320248301E+00 -0.57251493431E+00  0.31403085674E+00  0.11802863430E+01  0.00000000000E+00 0. -1.
         11    1    3    3    0    0  0.81968271423E+01  0.34318888126E+02  0.10186217545E+02  0.36725101573E+02  0.51100000000E-03 0. -1.
        -11    1    3    3    0    0  0.46186677726E+01  0.77703426097E+01 -0.11560824878E+01  0.91130040736E+01  0.51100000000E-03 0.  1.
        -12    1    3    3    0    0 -0.11832292432E+02 -0.41516715802E+02 -0.93441659143E+01  0.44169608010E+02  0.00000000000E+00 0.  1.
</event>
<event>
 7    1  0.2490895E-015  0.9000771E+02  0.7816164E-02  0.1186339E+00
        -11   -1    0    0    0    0  0.00000000000E+00  0.00000000000E+00  0.45593999997E+02  0.45594000000E+02  0.51100000000E-03 0.  1.
         11   -1    0    0    0    0 -0.00000000000E+00 -0.00000000000E+00 -0.45593999997E+02  0.45594000000E+02  0.51100000000E-03 0. -1.
    9900012    2    1    2    0    0  0.83723766558E+00  0.49992625063E+00 -0.66496978201E+00  0.90007712757E+02  0.89999973766E+02 0.  0.
         12    1    1    2    0    0 -0.83723766558E+00 -0.49992625063E+00  0.66496978201E+00  0.11802872429E+01  0.00000000000E+00 0. -1.
         11    1    3    3    0    0 -0.31383034594E+02  0.64759931265E+01 -0.19788881171E+02  0.37662091890E+02  0.51100000000E-03 0. -1.
        -11    1    3    3    0    0 -0.25362552594E+01 -0.35622358852E+01  0.16875543051E+02  0.17432901903E+02  0.51100000000E-03 0.  1.
        -12    1    3    3    0    0  0.34756527519E+02 -0.24138309907E+01  0.22483683378E+01  0.34912718963E+02  0.00000000000E+00 0.  1.
</event>
<event>
 7    1  0.2490895E-015  0.9000773E+02  0.7816164E-02  0.1186339E+00
        -11   -1    0    0    0    0  0.00000000000E+00  0.00000000000E+00  0.45593999997E+02  0.45594000000E+02  0.51100000000E-03 0. -1.
         11   -1    0    0    0    0 -0.00000000000E+00 -0.00000000000E+00 -0.45593999997E+02  0.45594000000E+02  0.51100000000E-03 0.  1.
    9900012    2    1    2    0    0 -0.10345572414E+01 -0.54652434479E+00  0.15501163122E+00  0.90007734712E+02  0.89999996010E+02 0.  0.
         12    1    1    2    0    0  0.10345572414E+01  0.54652434479E+00 -0.15501163122E+00  0.11802652884E+01  0.00000000000E+00 0. -1.
         11    1    3    3    0    0 -0.73703021703E+01 -0.21169592539E+01 -0.27005821943E+00  0.76730569050E+01  0.51100000000E-03 0. -1.
        -11    1    3    3    0    0  0.31775405984E+02  0.29424939386E+02 -0.70519595310E+01  0.43877484167E+02  0.51100000000E-03 0.  1.
         12    1    3    3    0    0 -0.25439661055E+02 -0.27854504477E+02  0.74770293817E+01  0.38457193640E+02  0.00000000000E+00 0. -1.
</event>
<event>
 7    1  0.2490895E-015  0.9000768E+02  0.7816164E-02  0.1186339E+00
        -11   -1    0    0    0    0  0.00000000000E+00  0.00000000000E+00  0.45593999997E+02  0.45594000000E+02  0.51100000000E-03 0.  1.
         11   -1    0    0    0    0 -0.00000000000E+00 -0.00000000000E+00 -0.45593999997E+02  0.45594000000E+02  0.51100000000E-03 0. -1.
    9900012    2    1    2    0    0  0.36435628728E+00 -0.62654030614E+00  0.93157927270E+00  0.90007683008E+02  0.89999943624E+02 0.  0.
         12    1    1    2    0    0 -0.36435628728E+00  0.62654030614E+00 -0.93157927270E+00  0.11803169916E+01  0.00000000000E+00 0. -1.
         11    1    3    3    0    0 -0.46263220110E+01  0.25691933593E+00  0.73986294578E+01  0.87297526316E+01  0.51100000000E-03 0. -1.
        -11    1    3    3    0    0  0.13582950756E+02 -0.35836497389E+02  0.12859002489E+02  0.40424065129E+02  0.51100000000E-03 0.  1.
         12    1    3    3    0    0 -0.85922724573E+01  0.34953037747E+02 -0.19326052674E+02  0.40853865247E+02  0.00000000000E+00 0. -1.
</event>
<event>
 7    1  0.2490895E-015  0.9000777E+02  0.7816164E-02  0.1186339E+00
        -11   -1    0    0    0    0  0.00000000000E+00  0.00000000000E+00  0.45593999997E+02  0.45594000000E+02  0.51100000000E-03 0.  1.
         11   -1    0    0    0    0 -0.00000000000E+00 -0.00000000000E+00 -0.45593999997E+02  0.45594000000E+02  0.51100000000E-03 0. -1.
    9900012    2    1    2    0    0 -0.81117566558E+00  0.85703481036E+00 -0.20724408817E-01  0.90007769460E+02  0.90000031217E+02 0.  0.
         12    1    1    2    0    0  0.81117566558E+00 -0.85703481036E+00  0.20724408817E-01  0.11802305401E+01  0.00000000000E+00 0. -1.
         11    1    3    3    0    0 -0.32440087140E+02 -0.10216838267E+02 -0.71538617112E+01  0.34755154660E+02  0.51100000000E-03 0. -1.
        -11    1    3    3    0    0 -0.88190297867E+01 -0.23669277196E+01 -0.56702787811E+01  0.10748474074E+02  0.51100000000E-03 0.  1.
        -12    1    3    3    0    0  0.40447941261E+02  0.13440800797E+02  0.12803416083E+02  0.44504140725E+02  0.00000000000E+00 0.  1.
</event>
<event>
 7    1  0.2490895E-015  0.9000727E+02  0.7816164E-02  0.1186340E+00
        -11   -1    0    0    0    0  0.00000000000E+00  0.00000000000E+00  0.45593999997E+02  0.45594000000E+02  0.51100000000E-03 0.  1.
         11   -1    0    0    0    0 -0.00000000000E+00 -0.00000000000E+00 -0.45593999997E+02  0.45594000000E+02  0.51100000000E-03 0. -1.
    9900012    2    1    2    0    0  0.51553662500E+00 -0.10506689553E+01  0.15632907231E+00  0.90007270546E+02  0.89999525716E+02 0.  0.
         12    1    1    2    0    0 -0.51553662500E+00  0.10506689553E+01 -0.15632907231E+00  0.11807294543E+01  0.00000000000E+00 0. -1.
         11    1    3    3    0    0 -0.38935983994E+02  0.10090307303E+02 -0.99102688364E+01  0.41425096013E+02  0.51100000000E-03 0. -1.
        -11    1    3    3    0    0  0.67073754824E+01  0.54047561844E+01 -0.37297636958E+01  0.93867679615E+01  0.51100000000E-03 0.  1.
        -12    1    3    3    0    0  0.32744145136E+02 -0.16545732442E+02  0.13796361604E+02  0.39195406571E+02  0.00000000000E+00 0.  1.
</event>
<event>
 7    1  0.2490895E-015  0.9000775E+02  0.7816164E-02  0.1186339E+00
        -11   -1    0    0    0    0  0.00000000000E+00  0.00000000000E+00  0.45593999997E+02  0.45594000000E+02  0.51100000000E-03 0. -1.
         11   -1    0    0    0    0 -0.00000000000E+00 -0.00000000000E+00 -0.45593999997E+02  0.45594000000E+02  0.51100000000E-03 0.  1.
    9900012    2    1    2    0    0 -0.11461476161E+01 -0.68749437023E-01 -0.27314930924E+00  0.90007749438E+02  0.90000010931E+02 0.  0.
         12    1    1    2    0    0  0.11461476161E+01  0.68749437023E-01  0.27314930924E+00  0.11802505616E+01  0.00000000000E+00 0. -1.
         11    1    3    3    0    0 -0.77119332740E+00  0.50169998552E+01 -0.82071486423E+01  0.96499904556E+01  0.51100000000E-03 0. -1.
        -11    1    3    3    0    0 -0.26588572481E+02  0.12762485745E+02 -0.21964278371E+02  0.36773125426E+02  0.51100000000E-03 0.  1.
         12    1    3    3    0    0  0.26213618192E+02 -0.17848235037E+02  0.29898277704E+02  0.43584633557E+02  0.00000000000E+00 0. -1.
</event>
<event>
 7    1  0.2490895E-015  0.9000776E+02  0.7816164E-02  0.1186339E+00
        -11   -1    0    0    0    0  0.00000000000E+00  0.00000000000E+00  0.45593999997E+02  0.45594000000E+02  0.51100000000E-03 0. -1.
         11   -1    0    0    0    0 -0.00000000000E+00 -0.00000000000E+00 -0.45593999997E+02  0.45594000000E+02  0.51100000000E-03 0.  1.
    9900012    2    1    2    0    0 -0.11207873647E+01  0.34704471220E+00 -0.12794682128E+00  0.90007756492E+02  0.90000018078E+02 0.  0.
         12    1    1    2    0    0  0.11207873647E+01 -0.34704471220E+00  0.12794682128E+00  0.11802435081E+01  0.00000000000E+00 0. -1.
         11    1    3    3    0    0 -0.42406843906E+01 -0.67654108153E+01  0.29550805182E+02  0.30610525556E+02  0.51100000000E-03 0. -1.
        -11    1    3    3    0    0 -0.42714038438E+01 -0.55525959963E+01  0.12726976974E+02  0.14527634228E+02  0.51100000000E-03 0.  1.
        -12    1    3    3    0    0  0.73913008696E+01  0.12665051524E+02 -0.42405728978E+02  0.44869596709E+02  0.00000000000E+00 0.  1.
</event>
<event>
 7    1  0.2490895E-015  0.9000777E+02  0.7816164E-02  0.1186339E+00
        -11   -1    0    0    0    0  0.00000000000E+00  0.00000000000E+00  0.45593999997E+02  0.45594000000E+02  0.51100000000E-03 0.  1.
         11   -1    0    0    0    0 -0.00000000000E+00 -0.00000000000E+00 -0.45593999997E+02  0.45594000000E+02  0.51100000000E-03 0. -1.
    9900012    2    1    2    0    0  0.92732807709E+00 -0.72950924082E+00  0.28822371166E-01  0.90007766199E+02  0.90000027913E+02 0.  0.
         12    1    1    2    0    0 -0.92732807709E+00  0.72950924082E+00 -0.28822371166E-01  0.11802338006E+01  0.00000000000E+00 0. -1.
         11    1    3    3    0    0 -0.11621853570E+01 -0.28264859515E+02  0.20611220926E+02  0.35001076934E+02  0.51100000000E-03 0. -1.
        -11    1    3    3    0    0 -0.11896278583E+01 -0.10197021632E+02  0.26132963972E+01  0.10593572717E+02  0.51100000000E-03 0.  1.
        -12    1    3    3    0    0  0.32791412924E+01  0.37732371906E+02 -0.23195694952E+02  0.44413116548E+02  0.00000000000E+00 0.  1.
</event>
<event>
 7    1  0.2490895E-015  0.9000780E+02  0.7816164E-02  0.1186339E+00
        -11   -1    0    0    0    0  0.00000000000E+00  0.00000000000E+00  0.45593999997E+02  0.45594000000E+02  0.51100000000E-03 0.  1.
         11   -1    0    0    0    0 -0.00000000000E+00 -0.00000000000E+00 -0.45593999997E+02  0.45594000000E+02  0.51100000000E-03 0. -1.
    9900012    2    1    2    0    0 -0.87679476321E+00 -0.23268680355E+00  0.75495117787E+00  0.90007803624E+02  0.90000065832E+02 0.  0.
         12    1    1    2    0    0  0.87679476321E+00  0.23268680355E+00 -0.75495117787E+00  0.11801963762E+01  0.00000000000E+00 0. -1.
         11    1    3    3    0    0 -0.52392603640E+01 -0.94474906727E+01 -0.23521597873E+02  0.25883788284E+02  0.51100000000E-03 0. -1.
        -11    1    3    3    0    0 -0.18376074323E+02 -0.82080692006E+01 -0.73746311810E+01  0.21434497728E+02  0.51100000000E-03 0.  1.
        -12    1    3    3    0    0  0.22738539924E+02  0.17422873070E+02  0.31651180232E+02  0.42689517612E+02  0.00000000000E+00 0.  1.
</event>
<event>
 7    1  0.2490895E-015  0.9000783E+02  0.7816164E-02  0.1186339E+00
        -11   -1    0    0    0    0  0.00000000000E+00  0.00000000000E+00  0.45593999997E+02  0.45594000000E+02  0.51100000000E-03 0. -1.
         11   -1    0    0    0    0 -0.00000000000E+00 -0.00000000000E+00 -0.45593999997E+02  0.45594000000E+02  0.51100000000E-03 0.  1.
    9900012    2    1    2    0    0 -0.52396725857E+00 -0.93819918862E-01 -0.10533091605E+01  0.90007828804E+02  0.90000091344E+02 0.  0.
         12    1    1    2    0    0  0.52396725857E+00  0.93819918862E-01  0.10533091605E+01  0.11801711964E+01  0.00000000000E+00 0. -1.
         11    1    3    3    0    0  0.14228094877E+01 -0.19315332113E+01 -0.78028620290E+01  0.81633242916E+01  0.51100000000E-03 0. -1.
        -11    1    3    3    0    0  0.10870571214E+02  0.38280431205E+02 -0.78242159491E+01  0.40555876112E+02  0.51100000000E-03 0.  1.
         12    1    3    3    0    0 -0.12817347960E+02 -0.36442717912E+02  0.14573768818E+02  0.41288628400E+02  0.00000000000E+00 0. -1.
</event>
<event>
 7    1  0.2490895E-015  0.9000773E+02  0.7816164E-02  0.1186339E+00
        -11   -1    0    0    0    0  0.00000000000E+00  0.00000000000E+00  0.45593999997E+02  0.45594000000E+02  0.51100000000E-03 0. -1.
         11   -1    0    0    0    0 -0.00000000000E+00 -0.00000000000E+00 -0.45593999997E+02  0.45594000000E+02  0.51100000000E-03 0.  1.
    9900012    2    1    2    0    0 -0.83956727945E-01 -0.31935357076E+00 -0.11331406260E+01  0.90007727526E+02  0.89999988729E+02 0.  0.
         12    1    1    2    0    0  0.83956727945E-01  0.31935357076E+00  0.11331406260E+01  0.11802724744E+01  0.00000000000E+00 0. -1.
         11    1    3    3    0    0  0.83137119344E+00  0.55462331002E+01  0.44605768141E+01  0.71657955202E+01  0.51100000000E-03 0. -1.
        -11    1    3    3    0    0 -0.33242038670E+02 -0.85304325578E+01 -0.27265744219E+02  0.43831749026E+02  0.51100000000E-03 0.  1.
         12    1    3    3    0    0  0.32326710748E+02  0.26648458869E+01  0.21672026779E+02  0.39010182980E+02  0.00000000000E+00 0. -1.
</event>
<event>
 7    1  0.3358833E-015  0.9000820E+02  0.7816164E-02  0.1186338E+00
        -11   -1    0    0    0    0  0.00000000000E+00  0.00000000000E+00  0.45593999997E+02  0.45594000000E+02  0.51100000000E-03 0.  1.
         11   -1    0    0    0    0 -0.00000000000E+00 -0.00000000000E+00 -0.45593999997E+02  0.45594000000E+02  0.51100000000E-03 0. -1.
    9900012    2    1    2    0    0 -0.26808411218E+00 -0.11234466036E+01  0.24070134727E+00  0.90008195567E+02  0.90000462947E+02 0.  0.
         12    1    1    2    0    0  0.26808411218E+00  0.11234466036E+01 -0.24070134727E+00  0.11798044334E+01  0.00000000000E+00 0. -1.
         11    1    3    3    0    0  0.35127465451E+02  0.11376117574E+01 -0.10844398770E+02  0.36780891432E+02  0.51100000000E-03 0. -1.
        -11    1    3    3    0    0  0.36272055177E+01  0.54280674060E+00 -0.86593483676E+01  0.94040190046E+01  0.51100000000E-03 0.  1.
        -12    1    3    3    0    0 -0.39022755081E+02 -0.28038651016E+01  0.19744448485E+02  0.43823285130E+02  0.00000000000E+00 0.  1.
</event>
<event>
 7    1  0.2490895E-015  0.9000771E+02  0.7816164E-02  0.1186339E+00
        -11   -1    0    0    0    0  0.00000000000E+00  0.00000000000E+00  0.45593999997E+02  0.45594000000E+02  0.51100000000E-03 0.  1.
         11   -1    0    0    0    0 -0.00000000000E+00 -0.00000000000E+00 -0.45593999997E+02  0.45594000000E+02  0.51100000000E-03 0. -1.
    9900012    2    1    2    0    0 -0.11013121082E+01 -0.39754532134E+00  0.14882355128E+00  0.90007712284E+02  0.89999973287E+02 0.  0.
         12    1    1    2    0    0  0.11013121082E+01  0.39754532134E+00 -0.14882355128E+00  0.11802877156E+01  0.00000000000E+00 0. -1.
         11    1    3    3    0    0 -0.13349252980E+02 -0.25508724908E+02  0.33864852611E+02  0.44449137722E+02  0.51100000000E-03 0. -1.
        -11    1    3    3    0    0 -0.22156535387E+01  0.73957417336E+01 -0.74095698856E+01  0.10700833731E+02  0.51100000000E-03 0.  1.
        -12    1    3    3    0    0  0.14463594410E+02  0.17715437853E+02 -0.26306459175E+02  0.34857740832E+02  0.00000000000E+00 0.  1.
</event>
<event>
 7    1  0.2490895E-015  0.9000780E+02  0.7816164E-02  0.1186339E+00
        -11   -1    0    0    0    0  0.00000000000E+00  0.00000000000E+00  0.45593999997E+02  0.45594000000E+02  0.51100000000E-03 0.  1.
         11   -1    0    0    0    0 -0.00000000000E+00 -0.00000000000E+00 -0.45593999997E+02  0.45594000000E+02  0.51100000000E-03 0. -1.
    9900012    2    1    2    0    0  0.11695213005E+01  0.77158262575E-01  0.13837932421E+00  0.90007795650E+02  0.90000057753E+02 0.  0.
         12    1    1    2    0    0 -0.11695213005E+01 -0.77158262575E-01 -0.13837932421E+00  0.11802043497E+01  0.00000000000E+00 0. -1.
         11    1    3    3    0    0 -0.15225619959E+01  0.50962988285E+01  0.77814310603E+01  0.94255570864E+01  0.51100000000E-03 0. -1.
        -11    1    3    3    0    0  0.25432817045E+02 -0.12866286420E+01  0.28183391710E+02  0.37984038288E+02  0.51100000000E-03 0.  1.
         12    1    3    3    0    0 -0.22740733749E+02 -0.37325119240E+01 -0.35826443446E+02  0.42598200276E+02  0.00000000000E+00 0. -1.
</event>
<event>
 7    1  0.2490895E-015  0.9000774E+02  0.7816164E-02  0.1186339E+00
        -11   -1    0    0    0    0  0.00000000000E+00  0.00000000000E+00  0.45593999997E+02  0.45594000000E+02  0.51100000000E-03 0. -1.
         11   -1    0    0    0    0 -0.00000000000E+00 -0.00000000000E+00 -0.45593999997E+02  0.45594000000E+02  0.51100000000E-03 0.  1.
    9900012    2    1    2    0    0 -0.10252588403E+01  0.58201813615E+00 -0.55816631885E-01  0.90007738886E+02  0.90000000239E+02 0.  0.
         12    1    1    2    0    0  0.10252588403E+01 -0.58201813615E+00  0.55816631885E-01  0.11802611139E+01  0.00000000000E+00 0. -1.
         11    1    3    3    0    0  0.23617552217E+02  0.31290500046E+01  0.92615081089E+01  0.25560814919E+02  0.51100000000E-03 0. -1.
        -11    1    3    3    0    0 -0.12034320117E+02  0.23369061253E+02  0.11704988277E+02  0.28774027097E+02  0.51100000000E-03 0.  1.
        -12    1    3    3    0    0 -0.12608490940E+02 -0.25916093122E+02 -0.21022313018E+02  0.35672896870E+02  0.00000000000E+00 0.  1.
</event>
<event>
 7    1  0.2818743E-015  0.9000772E+02  0.7816164E-02  0.1186339E+00
        -11   -1    0    0    0    0  0.00000000000E+00  0.00000000000E+00  0.45593999997E+02  0.45594000000E+02  0.51100000000E-03 0. -1.
         11   -1    0    0    0    0 -0.00000000000E+00 -0.00000000000E+00 -0.45593999997E+02  0.45594000000E+02  0.51100000000E-03 0.  1.
    9900012    2    1    2    0    0 -0.11568663960E+01 -0.16558433756E+00 -0.16521786599E+00  0.90007722501E+02  0.89999983638E+02 0.  0.
         12    1    1    2    0    0  0.11568663960E+01  0.16558433756E+00  0.16521786599E+00  0.11802774988E+01  0.00000000000E+00 0. -1.
         11    1    3    3    0    0  0.10204175746E+02  0.38060383673E+02  0.10747945410E+02  0.40844049001E+02  0.51100000000E-03 0. -1.
        -11    1    3    3    0    0  0.58415672699E+01 -0.62287858770E+01  0.45561794371E+01  0.96788663072E+01  0.51100000000E-03 0.  1.
        -12    1    3    3    0    0 -0.17202609412E+02 -0.31997182134E+02 -0.15469342713E+02  0.39484807193E+02  0.00000000000E+00 0.  1.
</event>
<event>
 7    1  0.2490895E-015  0.9000774E+02  0.7816164E-02  0.1186339E+00
        -11   -1    0    0    0    0  0.00000000000E+00  0.00000000000E+00  0.45593999997E+02  0.45594000000E+02  0.51100000000E-03 0. -1.
         11   -1    0    0    0    0 -0.00000000000E+00 -0.00000000000E+00 -0.45593999997E+02  0.45594000000E+02  0.51100000000E-03 0.  1.
    9900012    2    1    2    0    0 -0.82825331704E-01 -0.11326315106E+01  0.32141337398E+00  0.90007737008E+02  0.89999998336E+02 0.  0.
         12    1    1    2    0    0  0.82825331704E-01  0.11326315106E+01 -0.32141337398E+00  0.11802629925E+01  0.00000000000E+00 0. -1.
         11    1    3    3    0    0 -0.39263276792E-01 -0.23311115053E+02  0.31630401252E+02  0.39292389979E+02  0.51100000000E-03 0. -1.
        -11    1    3    3    0    0  0.88259911480E+01  0.86321174631E+00  0.29999959459E+01  0.93617963127E+01  0.51100000000E-03 0.  1.
        -12    1    3    3    0    0 -0.88695532030E+01  0.21315271796E+02 -0.34308983824E+02  0.41353550716E+02  0.00000000000E+00 0.  1.
</event>
<event>
 7    1  0.2490895E-015  0.9000788E+02  0.7816164E-02  0.1186339E+00
        -11   -1    0    0    0    0  0.00000000000E+00  0.00000000000E+00  0.45593999997E+02  0.45594000000E+02  0.51100000000E-03 0.  1.
         11   -1    0    0    0    0 -0.00000000000E+00 -0.00000000000E+00 -0.45593999997E+02  0.45594000000E+02  0.51100000000E-03 0. -1.
    9900012    2    1    2    0    0 -0.55627125103E-02  0.11716610204E+01  0.14095352494E+00  0.90007877809E+02  0.90000140996E+02 0.  0.
         12    1    1    2    0    0  0.55627125103E-02 -0.11716610204E+01 -0.14095352494E+00  0.11801221914E+01  0.00000000000E+00 0. -1.
         11    1    3    3    0    0 -0.27100130968E+02 -0.15285302295E+02 -0.19829919017E+02  0.36895572272E+02  0.51100000000E-03 0. -1.
        -11    1    3    3    0    0 -0.77913335162E+00 -0.94829467625E+01 -0.11269291268E+01  0.95814037384E+01  0.51100000000E-03 0.  1.
        -12    1    3    3    0    0  0.27873701607E+02  0.25939910078E+02  0.21097801669E+02  0.43530901799E+02  0.00000000000E+00 0.  1.
</event>
<event>
 7    1  0.2490895E-015  0.9000774E+02  0.7816164E-02  0.1186339E+00
        -11   -1    0    0    0    0  0.00000000000E+00  0.00000000000E+00  0.45593999997E+02  0.45594000000E+02  0.51100000000E-03 0.  1.
         11   -1    0    0    0    0 -0.00000000000E+00 -0.00000000000E+00 -0.45593999997E+02  0.45594000000E+02  0.51100000000E-03 0. -1.
    9900012    2    1    2    0    0  0.90206735586E+00  0.71632981313E+00 -0.25721230650E+00  0.90007740670E+02  0.90000002047E+02 0.  0.
         12    1    1    2    0    0 -0.90206735586E+00 -0.71632981313E+00  0.25721230650E+00  0.11802593301E+01  0.00000000000E+00 0. -1.
         11    1    3    3    0    0 -0.12726170280E+02 -0.28585553188E+01  0.11142453561E+02  0.17154620955E+02  0.51100000000E-03 0. -1.
        -11    1    3    3    0    0 -0.75923087179E+01 -0.30412161250E+02 -0.58308841871E+00  0.31350960048E+02  0.51100000000E-03 0.  1.
         12    1    3    3    0    0  0.21220546354E+02  0.33987046382E+02 -0.10816577448E+02  0.41502159667E+02  0.00000000000E+00 0. -1.
</event>
<event>
 7    1  0.2490895E-015  0.9000771E+02  0.7816164E-02  0.1186339E+00
        -11   -1    0    0    0    0  0.00000000000E+00  0.00000000000E+00  0.45593999997E+02  0.45594000000E+02  0.51100000000E-03 0.  1.
         11   -1    0    0    0    0 -0.00000000000E+00 -0.00000000000E+00 -0.45593999997E+02  0.45594000000E+02  0.51100000000E-03 0. -1.
    9900012    2    1    2    0    0  0.86299060028E+00 -0.53765414257E+00 -0.59938093424E+00  0.90007710943E+02  0.89999971928E+02 0.  0.
         12    1    1    2    0    0 -0.86299060028E+00  0.53765414257E+00  0.59938093424E+00  0.11802890568E+01  0.00000000000E+00 0. -1.
         11    1    3    3    0    0 -0.69643631684E+01 -0.44092040377E+01  0.40766693693E+01  0.91957962132E+01  0.51100000000E-03 0. -1.
        -11    1    3    3    0    0 -0.35424272765E+02 -0.39816846518E+01  0.44248118504E+01  0.35920911371E+02  0.51100000000E-03 0.  1.
         12    1    3    3    0    0  0.43251626533E+02  0.78532345470E+01 -0.91008621539E+01  0.44891003359E+02  0.00000000000E+00 0. -1.
</event>
<event>
 7    1  0.2490895E-015  0.9000768E+02  0.7816164E-02  0.1186339E+00
        -11   -1    0    0    0    0  0.00000000000E+00  0.00000000000E+00  0.45593999997E+02  0.45594000000E+02  0.51100000000E-03 0.  1.
         11   -1    0    0    0    0 -0.00000000000E+00 -0.00000000000E+00 -0.45593999997E+02  0.45594000000E+02  0.51100000000E-03 0. -1.
    9900012    2    1    2    0    0 -0.49742933744E+00 -0.83514758464E+00  0.66951217673E+00  0.90007680557E+02  0.89999941140E+02 0.  0.
         12    1    1    2    0    0  0.49742933744E+00  0.83514758464E+00 -0.66951217673E+00  0.11803194435E+01  0.00000000000E+00 0. -1.
         11    1    3    3    0    0 -0.34237517840E+02  0.37087727980E+01 -0.22960048924E+02  0.41389931993E+02  0.51100000000E-03 0. -1.
        -11    1    3    3    0    0  0.17235199749E+01  0.68853032583E+01  0.93652269139E+01  0.11750974320E+02  0.51100000000E-03 0.  1.
        -12    1    3    3    0    0  0.32016568528E+02 -0.11429223641E+02  0.14264334186E+02  0.36866774244E+02  0.00000000000E+00 0.  1.
</event>
<event>
 7    1  0.2812104E-015  0.9000779E+02  0.7816164E-02  0.1186339E+00
        -11   -1    0    0    0    0  0.00000000000E+00  0.00000000000E+00  0.45593999997E+02  0.45594000000E+02  0.51100000000E-03 0. -1.
         11   -1    0    0    0    0 -0.00000000000E+00 -0.00000000000E+00 -0.45593999997E+02  0.45594000000E+02  0.51100000000E-03 0.  1.
    9900012    2    1    2    0    0 -0.84157375102E+00  0.73552407291E+00 -0.37902734903E+00  0.90007786557E+02  0.90000048539E+02 0.  0.
         12    1    1    2    0    0  0.84157375102E+00 -0.73552407291E+00  0.37902734903E+00  0.11802134432E+01  0.00000000000E+00 0. -1.
         11    1    3    3    0    0  0.93558612490E+01  0.81122527142E+01  0.33329736249E+02  0.35555760469E+02  0.51100000000E-03 0. -1.
        -11    1    3    3    0    0  0.38193977294E+01  0.51349907201E+01  0.70801297747E+01  0.95438025230E+01  0.51100000000E-03 0.  1.
        -12    1    3    3    0    0 -0.14016832729E+02 -0.12511719361E+02 -0.40788893373E+02  0.44908223565E+02  0.00000000000E+00 0.  1.
</event>
<event>
 7    1  0.2713319E-015  0.9000795E+02  0.7816164E-02  0.1186339E+00
        -11   -1    0    0    0    0  0.00000000000E+00  0.00000000000E+00  0.45593999997E+02  0.45594000000E+02  0.51100000000E-03 0. -1.
         11   -1    0    0    0    0 -0.00000000000E+00 -0.00000000000E+00 -0.45593999997E+02  0.45594000000E+02  0.51100000000E-03 0.  1.
    9900012    2    1    2    0    0 -0.67621016536E-01  0.11311678467E+01  0.32924810142E+00  0.90007950166E+02  0.90000214308E+02 0.  0.
         12    1    1    2    0    0  0.67621016536E-01 -0.11311678467E+01 -0.32924810142E+00  0.11800498344E+01  0.00000000000E+00 0. -1.
         11    1    3    3    0    0 -0.36732709642E+02  0.13151611275E+02  0.51613797613E+01  0.39356024673E+02  0.51100000000E-03 0. -1.
        -11    1    3    3    0    0 -0.11332969280E+01 -0.36874021146E+01  0.88056483683E+01  0.96135706025E+01  0.51100000000E-03 0.  1.
        -12    1    3    3    0    0  0.37798385553E+02 -0.83330413142E+01 -0.13637780028E+02  0.41038354890E+02  0.00000000000E+00 0.  1.
</event>
<event>
 7    1  0.2490895E-015  0.9000776E+02  0.7816164E-02  0.1186339E+00
        -11   -1    0    0    0    0  0.00000000000E+00  0.00000000000E+00  0.45593999997E+02  0.45594000000E+02  0.51100000000E-03 0.  1.
         11   -1    0    0    0    0 -0.00000000000E+00 -0.00000000000E+00 -0.45593999997E+02  0.45594000000E+02  0.51100000000E-03 0. -1.
    9900012    2    1    2    0    0  0.80725565447E+00 -0.29204922498E+00  0.80994324154E+00  0.90007761678E+02  0.90000023332E+02 0.  0.
         12    1    1    2    0    0 -0.80725565447E+00  0.29204922498E+00 -0.80994324154E+00  0.11802383217E+01  0.00000000000E+00 0. -1.
         11    1    3    3    0    0  0.38450936998E+02  0.14858114315E+02 -0.86845175489E-01  0.41221907517E+02  0.51100000000E-03 0. -1.
        -11    1    3    3    0    0  0.39955878782E+01 -0.38792497333E+01 -0.73521919497E+00  0.56172812384E+01  0.51100000000E-03 0.  1.
        -12    1    3    3    0    0 -0.41639269222E+02 -0.11270913807E+02  0.16320076120E+01  0.43168572923E+02  0.00000000000E+00 0.  1.
</event>
<event>
 7    1  0.2490895E-015  0.9000771E+02  0.7816164E-02  0.1186339E+00
        -11   -1    0    0    0    0  0.00000000000E+00  0.00000000000E+00  0.45593999997E+02  0.45594000000E+02  0.51100000000E-03 0.  1.
         11   -1    0    0    0    0 -0.00000000000E+00 -0.00000000000E+00 -0.45593999997E+02  0.45594000000E+02  0.51100000000E-03 0. -1.
    9900012    2    1    2    0    0  0.39241299286E+00 -0.67489545198E+00  0.88521963923E+00  0.90007709511E+02  0.89999970477E+02 0.  0.
         12    1    1    2    0    0 -0.39241299286E+00  0.67489545198E+00 -0.88521963923E+00  0.11802904887E+01  0.00000000000E+00 0. -1.
         11    1    3    3    0    0  0.26527848626E+02 -0.21886540018E+02 -0.26523094599E+02  0.43430656616E+02  0.51100000000E-03 0. -1.
        -11    1    3    3    0    0 -0.73441336073E+00 -0.21503206139E+01  0.48266779911E+01  0.53347973174E+01  0.51100000000E-03 0.  1.
        -12    1    3    3    0    0 -0.25401022273E+02  0.23361965180E+02  0.22581636247E+02  0.41242255578E+02  0.00000000000E+00 0.  1.
</event>
<event>
 7    1  0.2490895E-015  0.9000772E+02  0.7816164E-02  0.1186339E+00
        -11   -1    0    0    0    0  0.00000000000E+00  0.00000000000E+00  0.45593999997E+02  0.45594000000E+02  0.51100000000E-03 0.  1.
         11   -1    0    0    0    0 -0.00000000000E+00 -0.00000000000E+00 -0.45593999997E+02  0.45594000000E+02  0.51100000000E-03 0. -1.
    9900012    2    1    2    0    0  0.57023200741E+00 -0.62309075795E+00  0.82440523934E+00  0.90007724340E+02  0.89999985501E+02 0.  0.
         12    1    1    2    0    0 -0.57023200741E+00  0.62309075795E+00 -0.82440523934E+00  0.11802756600E+01  0.00000000000E+00 0. -1.
         11    1    3    3    0    0  0.62412930236E+01 -0.41348892326E+00 -0.14714473003E+01  0.64257193461E+01  0.51100000000E-03 0. -1.
        -11    1    3    3    0    0  0.34836111205E+02  0.16920108689E+02  0.69844173709E+01  0.39352595953E+02  0.51100000000E-03 0.  1.
         12    1    3    3    0    0 -0.40507172221E+02 -0.17129710524E+02 -0.46885648312E+01  0.44229409041E+02  0.00000000000E+00 0. -1.
</event>
<event>
 7    1  0.2490895E-015  0.9000733E+02  0.7816164E-02  0.1186340E+00
        -11   -1    0    0    0    0  0.00000000000E+00  0.00000000000E+00  0.45593999997E+02  0.45594000000E+02  0.51100000000E-03 0. -1.
         11   -1    0    0    0    0 -0.00000000000E+00 -0.00000000000E+00 -0.45593999997E+02  0.45594000000E+02  0.51100000000E-03 0.  1.
    9900012    2    1    2    0    0  0.87053650770E+00 -0.58855936983E+00 -0.53828753107E+00  0.90007326714E+02  0.89999582625E+02 0.  0.
         12    1    1    2    0    0 -0.87053650770E+00  0.58855936983E+00  0.53828753107E+00  0.11806732864E+01  0.00000000000E+00 0. -1.
         11    1    3    3    0    0 -0.88727878126E+01 -0.13111762412E+01  0.31516472580E-01  0.89691995324E+01  0.51100000000E-03 0. -1.
        -11    1    3    3    0    0 -0.12958249033E+02 -0.17083130029E+02 -0.31906874590E+02  0.38442140887E+02  0.51100000000E-03 0.  1.
         12    1    3    3    0    0  0.22701573353E+02  0.17805746901E+02  0.31337070587E+02  0.42595986294E+02  0.00000000000E+00 0. -1.
</event>
<event>
 7    1  0.2490895E-015  0.9000773E+02  0.7816164E-02  0.1186339E+00
        -11   -1    0    0    0    0  0.00000000000E+00  0.00000000000E+00  0.45593999997E+02  0.45594000000E+02  0.51100000000E-03 0. -1.
         11   -1    0    0    0    0 -0.00000000000E+00 -0.00000000000E+00 -0.45593999997E+02  0.45594000000E+02  0.51100000000E-03 0.  1.
    9900012    2    1    2    0    0  0.21139616095E+00 -0.11100334222E+01 -0.34083158544E+00  0.90007733630E+02  0.89999994914E+02 0.  0.
         12    1    1    2    0    0 -0.21139616095E+00  0.11100334222E+01  0.34083158544E+00  0.11802663703E+01  0.00000000000E+00 0. -1.
         11    1    3    3    0    0  0.39709049709E+02  0.15084418745E+02 -0.63147185858E+01  0.42944429077E+02  0.51100000000E-03 0. -1.
        -11    1    3    3    0    0 -0.12575609246E+02  0.29980527607E+01  0.53590917634E+01  0.13994789496E+02  0.51100000000E-03 0.  1.
        -12    1    3    3    0    0 -0.26922044303E+02 -0.19192504928E+02  0.61479523692E+00  0.33068515056E+02  0.00000000000E+00 0.  1.
</event>
<event>
 7    1  0.2490895E-015  0.9000747E+02  0.7816164E-02  0.1186340E+00
        -11   -1    0    0    0    0  0.00000000000E+00  0.00000000000E+00  0.45593999997E+02  0.45594000000E+02  0.51100000000E-03 0. -1.
         11   -1    0    0    0    0 -0.00000000000E+00 -0.00000000000E+00 -0.45593999997E+02  0.45594000000E+02  0.51100000000E-03 0.  1.
    9900012    2    1    2    0    0  0.75461775030E+00  0.21328231582E+00 -0.88244183088E+00  0.90007474320E+02  0.89999732181E+02 0.  0.
         12    1    1    2    0    0 -0.75461775030E+00 -0.21328231582E+00  0.88244183088E+00  0.11805256796E+01  0.00000000000E+00 0. -1.
         11    1    3    3    0    0 -0.46085879553E+00 -0.73908312886E+01 -0.10178239877E+01  0.74748072816E+01  0.51100000000E-03 0. -1.
        -11    1    3    3    0    0  0.35678701996E+02  0.15624103109E+02 -0.17844100477E+02  0.42842669107E+02  0.51100000000E-03 0.  1.
         12    1    3    3    0    0 -0.34463225450E+02 -0.80199895048E+01  0.17979482634E+02  0.39689997932E+02  0.00000000000E+00 0. -1.
</event>
<event>
 7    1  0.2490895E-015  0.9000758E+02  0.7816164E-02  0.1186339E+00
        -11   -1    0    0    0    0  0.00000000000E+00  0.00000000000E+00  0.45593999997E+02  0.45594000000E+02  0.51100000000E-03 0. -1.
         11   -1    0    0    0    0 -0.00000000000E+00 -0.00000000000E+00 -0.45593999997E+02  0.45594000000E+02  0.51100000000E-03 0.  1.
    9900012    2    1    2    0    0  0.99257258163E-01  0.94405615416E+00 -0.70164242702E+00  0.90007577990E+02  0.89999837220E+02 0.  0.
         12    1    1    2    0    0 -0.99257258163E-01 -0.94405615416E+00  0.70164242702E+00  0.11804220097E+01  0.00000000000E+00 0. -1.
         11    1    3    3    0    0 -0.24562945133E+01  0.29313785463E+02  0.31711260585E+02  0.43254311335E+02  0.51100000000E-03 0. -1.
        -11    1    3    3    0    0  0.92354677076E+01 -0.79574955155E+01 -0.10868099238E+02  0.16331906807E+02  0.51100000000E-03 0.  1.
        -12    1    3    3    0    0 -0.66799159362E+01 -0.20412233793E+02 -0.21544803774E+02  0.30421359848E+02  0.00000000000E+00 0.  1.
</event>
<event>
 7    1  0.2490895E-015  0.9000794E+02  0.7816164E-02  0.1186339E+00
        -11   -1    0    0    0    0  0.00000000000E+00  0.00000000000E+00  0.45593999997E+02  0.45594000000E+02  0.51100000000E-03 0. -1.
         11   -1    0    0    0    0 -0.00000000000E+00 -0.00000000000E+00 -0.45593999997E+02  0.45594000000E+02  0.51100000000E-03 0.  1.
    9900012    2    1    2    0    0 -0.53221897221E+00 -0.78259310373E+00  0.70486807105E+00  0.90007937291E+02  0.90000201263E+02 0.  0.
         12    1    1    2    0    0  0.53221897221E+00  0.78259310373E+00 -0.70486807105E+00  0.11800627093E+01  0.00000000000E+00 0. -1.
         11    1    3    3    0    0 -0.11392772718E+02 -0.75905399983E+01  0.18082125366E+02  0.22679833017E+02  0.51100000000E-03 0. -1.
        -11    1    3    3    0    0  0.12298292405E+02 -0.15175453416E+02  0.17400693481E+02  0.26159635249E+02  0.51100000000E-03 0.  1.
        -12    1    3    3    0    0 -0.14377386591E+01  0.21983400311E+02 -0.34777950776E+02  0.41168469025E+02  0.00000000000E+00 0.  1.
</event>
<event>
 7    1  0.2490895E-015  0.9000794E+02  0.7816164E-02  0.1186339E+00
        -11   -1    0    0    0    0  0.00000000000E+00  0.00000000000E+00  0.45593999997E+02  0.45594000000E+02  0.51100000000E-03 0.  1.
         11   -1    0    0    0    0 -0.00000000000E+00 -0.00000000000E+00 -0.45593999997E+02  0.45594000000E+02  0.51100000000E-03 0. -1.
    9900012    2    1    2    0    0 -0.11791055347E+00  0.50004250217E+00  0.10623547725E+01  0.90007939381E+02  0.90000203380E+02 0.  0.
         12    1    1    2    0    0  0.11791055347E+00 -0.50004250217E+00 -0.10623547725E+01  0.11800606193E+01  0.00000000000E+00 0. -1.
         11    1    3    3    0    0  0.21235905186E+02 -0.24591707161E+02 -0.20347447950E+02  0.38337114765E+02  0.51100000000E-03 0. -1.
        -11    1    3    3    0    0  0.86710848719E+01  0.48284426357E+01  0.70898993002E+00  0.99500873425E+01  0.51100000000E-03 0.  1.
        -12    1    3    3    0    0 -0.30024900611E+02  0.20263307027E+02  0.20700812792E+02  0.41720737274E+02  0.00000000000E+00 0.  1.
</event>
<event>
 7    1  0.2490895E-015  0.9000750E+02  0.7816164E-02  0.1186340E+00
        -11   -1    0    0    0    0  0.00000000000E+00  0.00000000000E+00  0.45593999997E+02  0.45594000000E+02  0.51100000000E-03 0.  1.
         11   -1    0    0    0    0 -0.00000000000E+00 -0.00000000000E+00 -0.45593999997E+02  0.45594000000E+02  0.51100000000E-03 0. -1.
    9900012    2    1    2    0    0 -0.40235114207E+00 -0.98661228824E+00  0.50823008318E+00  0.90007496689E+02  0.89999754845E+02 0.  0.
         12    1    1    2    0    0  0.40235114207E+00  0.98661228824E+00 -0.50823008318E+00  0.11805033106E+01  0.00000000000E+00 0. -1.
         11    1    3    3    0    0 -0.17556865963E+01 -0.17714886830E+01  0.39007569423E+01  0.46299581599E+01  0.51100000000E-03 0. -1.
        -11    1    3    3    0    0 -0.33389141194E+02 -0.87806353654E+01  0.22318503632E+02  0.41110216634E+02  0.51100000000E-03 0.  1.
         12    1    3    3    0    0  0.34742476648E+02  0.95655117601E+01 -0.25711030491E+02  0.44267321895E+02  0.00000000000E+00 0. -1.
</event>
<event>
 7    1  0.2527580E-015  0.9000773E+02  0.7816164E-02  0.1186339E+00
        -11   -1    0    0    0    0  0.00000000000E+00  0.00000000000E+00  0.45593999997E+02  0.45594000000E+02  0.51100000000E-03 0. -1.
         11   -1    0    0    0    0 -0.00000000000E+00 -0.00000000000E+00 -0.45593999997E+02  0.45594000000E+02  0.51100000000E-03 0.  1.
    9900012    2    1    2    0    0  0.10305440023E+01  0.16318764642E+00 -0.55171592804E+00  0.90007728161E+02  0.89999989373E+02 0.  0.
         12    1    1    2    0    0 -0.10305440023E+01 -0.16318764642E+00  0.55171592804E+00  0.11802718390E+01  0.00000000000E+00 0. -1.
         11    1    3    3    0    0 -0.17699597553E+02 -0.34258804139E+02  0.36519220787E+01  0.38733421611E+02  0.51100000000E-03 0. -1.
        -11    1    3    3    0    0  0.72692606747E+00 -0.18148966931E+01 -0.10185871628E+02  0.10371800836E+02  0.51100000000E-03 0.  1.
        -12    1    3    3    0    0  0.18003215488E+02  0.36236888479E+02  0.59822336209E+01  0.40902505713E+02  0.00000000000E+00 0.  1.
</event>
<event>
 7    1  0.2490895E-015  0.9000667E+02  0.7816164E-02  0.1186341E+00
        -11   -1    0    0    0    0  0.00000000000E+00  0.00000000000E+00  0.45593999997E+02  0.45594000000E+02  0.51100000000E-03 0.  1.
         11   -1    0    0    0    0 -0.00000000000E+00 -0.00000000000E+00 -0.45593999997E+02  0.45594000000E+02  0.51100000000E-03 0. -1.
    9900012    2    1    2    0    0  0.11356162868E+01 -0.21810794698E+00  0.24153879928E+00  0.90006671756E+02  0.89998919017E+02 0.  0.
         12    1    1    2    0    0 -0.11356162868E+01  0.21810794698E+00 -0.24153879928E+00  0.11813282435E+01  0.00000000000E+00 0. -1.
         11    1    3    3    0    0  0.32851089004E+02 -0.14834890564E+02 -0.18747763440E+02  0.40629381746E+02  0.51100000000E-03 0. -1.
        -11    1    3    3    0    0 -0.10572949136E+02 -0.30441321121E+01 -0.56938666294E+01  0.12388466862E+02  0.51100000000E-03 0.  1.
        -12    1    3    3    0    0 -0.21142523581E+02  0.17660914729E+02  0.24683168869E+02  0.36988823148E+02  0.00000000000E+00 0.  1.
</event>
<event>
 8    1  0.2490895E-015  0.9000756E+02  0.7816164E-02  0.1186339E+00
        -11   -1    0    0    0    0  0.00000000000E+00  0.00000000000E+00  0.45593999997E+02  0.45594000000E+02  0.51100000000E-03 0.  1.
         11   -1    0    0    0    0 -0.00000000000E+00 -0.00000000000E+00 -0.45593999997E+02  0.45594000000E+02  0.51100000000E-03 0. -1.
    9900012    2    1    2    0    0 -0.51601633392E+00  0.19765728928E+00  0.10431236268E+01  0.90007555947E+02  0.89999814886E+02 0.  0.
         23    2    3    3    0    0  0.26396406444E+02  0.86689086139E+01  0.35650391192E+01  0.61680878476E+02  0.54953626049E+02 0.  0.
         12    1    1    2    0    0  0.51601633392E+00 -0.19765728928E+00 -0.10431236268E+01  0.11804440528E+01  0.00000000000E+00 0. -1.
         11    1    4    4    0    0 -0.56256821441E+01 -0.12510935680E+02 -0.13876325679E+02  0.19512155847E+02  0.51100000000E-03 0. -1.
        -11    1    4    4    0    0  0.32022088589E+02  0.21179844294E+02  0.17441364799E+02  0.42168722629E+02  0.51100000000E-03 0.  1.
         12    1    3    3    0    0 -0.26912422778E+02 -0.84712513246E+01 -0.25219154924E+01  0.28326677471E+02  0.00000000000E+00 0. -1.
</event>
<event>
 7    1  0.2490895E-015  0.9000824E+02  0.7816164E-02  0.1186338E+00
        -11   -1    0    0    0    0  0.00000000000E+00  0.00000000000E+00  0.45593999997E+02  0.45594000000E+02  0.51100000000E-03 0.  1.
         11   -1    0    0    0    0 -0.00000000000E+00 -0.00000000000E+00 -0.45593999997E+02  0.45594000000E+02  0.51100000000E-03 0. -1.
    9900012    2    1    2    0    0 -0.83585255234E+00  0.58018632536E+00  0.59712358649E+00  0.90008244839E+02  0.90000512870E+02 0.  0.
         12    1    1    2    0    0  0.83585255234E+00 -0.58018632536E+00 -0.59712358649E+00  0.11797551606E+01  0.00000000000E+00 0. -1.
         11    1    3    3    0    0  0.14026327225E+02  0.23896514775E+01 -0.10696601895E+02  0.17800718580E+02  0.51100000000E-03 0. -1.
        -11    1    3    3    0    0  0.13728427486E+02 -0.15053393296E+02  0.29473744294E+02  0.35829819619E+02  0.51100000000E-03 0.  1.
         12    1    3    3    0    0 -0.28590607264E+02  0.13243928144E+02 -0.18180018813E+02  0.36377706641E+02  0.00000000000E+00 0. -1.
</event>
<event>
 7    1  0.2490895E-015  0.9000794E+02  0.7816164E-02  0.1186339E+00
        -11   -1    0    0    0    0  0.00000000000E+00  0.00000000000E+00  0.45593999997E+02  0.45594000000E+02  0.51100000000E-03 0.  1.
         11   -1    0    0    0    0 -0.00000000000E+00 -0.00000000000E+00 -0.45593999997E+02  0.45594000000E+02  0.51100000000E-03 0. -1.
    9900012    2    1    2    0    0 -0.10679278529E+00  0.64924064825E+00  0.97960764093E+00  0.90007936761E+02  0.90000200726E+02 0.  0.
         12    1    1    2    0    0  0.10679278529E+00 -0.64924064825E+00 -0.97960764093E+00  0.11800632392E+01  0.00000000000E+00 0. -1.
         11    1    3    3    0    0  0.35534676537E+01 -0.62789410548E+01  0.57892233935E+01  0.92502616664E+01  0.51100000000E-03 0. -1.
        -11    1    3    3    0    0  0.80549279273E+00 -0.35547328666E+02 -0.11834427329E+02  0.37474191978E+02  0.51100000000E-03 0.  1.
         12    1    3    3    0    0 -0.44657532317E+01  0.42475510369E+02  0.70248115769E+01  0.43283483117E+02  0.00000000000E+00 0. -1.
</event>
<event>
 7    1  0.2490895E-015  0.9000770E+02  0.7816164E-02  0.1186339E+00
        -11   -1    0    0    0    0  0.00000000000E+00  0.00000000000E+00  0.45593999997E+02  0.45594000000E+02  0.51100000000E-03 0. -1.
         11   -1    0    0    0    0 -0.00000000000E+00 -0.00000000000E+00 -0.45593999997E+02  0.45594000000E+02  0.51100000000E-03 0.  1.
    9900012    2    1    2    0    0  0.66731969623E+00 -0.80178289791E+00  0.55220591944E+00  0.90007702254E+02  0.89999963123E+02 0.  0.
         12    1    1    2    0    0 -0.66731969623E+00  0.80178289791E+00 -0.55220591944E+00  0.11802977463E+01  0.00000000000E+00 0. -1.
         11    1    3    3    0    0  0.64581281140E+01 -0.26101174421E+02 -0.85697088633E+01  0.28220890049E+02  0.51100000000E-03 0. -1.
        -11    1    3    3    0    0 -0.47039602200E+01 -0.17343289850E+02  0.62803233096E+01  0.19035740220E+02  0.51100000000E-03 0.  1.
        -12    1    3    3    0    0 -0.10868481978E+01  0.42642681374E+02  0.28415914731E+01  0.42751071985E+02  0.00000000000E+00 0.  1.
</event>
<event>
 7    1  0.2490895E-015  0.9000773E+02  0.7816164E-02  0.1186339E+00
        -11   -1    0    0    0    0  0.00000000000E+00  0.00000000000E+00  0.45593999997E+02  0.45594000000E+02  0.51100000000E-03 0. -1.
         11   -1    0    0    0    0 -0.00000000000E+00 -0.00000000000E+00 -0.45593999997E+02  0.45594000000E+02  0.51100000000E-03 0.  1.
    9900012    2    1    2    0    0  0.79805542246E+00 -0.76160403153E+00 -0.41963473413E+00  0.90007734577E+02  0.89999995874E+02 0.  0.
         12    1    1    2    0    0 -0.79805542246E+00  0.76160403153E+00  0.41963473413E+00  0.11802654228E+01  0.00000000000E+00 0. -1.
         11    1    3    3    0    0  0.34305459229E+02 -0.58401055154E+01 -0.15407144121E+02  0.38057212925E+02  0.51100000000E-03 0. -1.
        -11    1    3    3    0    0  0.77654525039E+01  0.16389969066E+01  0.48878719589E+01  0.93209364336E+01  0.51100000000E-03 0.  1.
        -12    1    3    3    0    0 -0.41272856311E+02  0.34395045772E+01  0.10099637428E+02  0.42629585219E+02  0.00000000000E+00 0.  1.
</event>
<event>
 7    1  0.2490895E-015  0.9000818E+02  0.7816164E-02  0.1186338E+00
        -11   -1    0    0    0    0  0.00000000000E+00  0.00000000000E+00  0.45593999997E+02  0.45594000000E+02  0.51100000000E-03 0.  1.
         11   -1    0    0    0    0 -0.00000000000E+00 -0.00000000000E+00 -0.45593999997E+02  0.45594000000E+02  0.51100000000E-03 0. -1.
    9900012    2    1    2    0    0 -0.12138796866E+00  0.43056684865E+00  0.10917193852E+01  0.90008180494E+02  0.90000447676E+02 0.  0.
         12    1    1    2    0    0  0.12138796866E+00 -0.43056684865E+00 -0.10917193852E+01  0.11798195057E+01  0.00000000000E+00 0. -1.
         11    1    3    3    0    0  0.57331030905E+01 -0.30047945460E+02  0.23532055289E+02  0.38594107372E+02  0.51100000000E-03 0. -1.
        -11    1    3    3    0    0  0.68034815747E+01  0.32435205034E+01  0.63163609105E+01  0.98338294782E+01  0.51100000000E-03 0.  1.
        -12    1    3    3    0    0 -0.12657972634E+02  0.27234991806E+02 -0.28756696814E+02  0.41580243644E+02  0.00000000000E+00 0.  1.
</event>
<event>
 7    1  0.2490895E-015  0.9000772E+02  0.7816164E-02  0.1186339E+00
        -11   -1    0    0    0    0  0.00000000000E+00  0.00000000000E+00  0.45593999997E+02  0.45594000000E+02  0.51100000000E-03 0.  1.
         11   -1    0    0    0    0 -0.00000000000E+00 -0.00000000000E+00 -0.45593999997E+02  0.45594000000E+02  0.51100000000E-03 0. -1.
    9900012    2    1    2    0    0 -0.80998071419E+00 -0.26447008410E+00  0.81673128523E+00  0.90007719027E+02  0.89999980118E+02 0.  0.
         12    1    1    2    0    0  0.80998071419E+00  0.26447008410E+00 -0.81673128523E+00  0.11802809729E+01  0.00000000000E+00 0. -1.
         11    1    3    3    0    0 -0.30431368521E+02 -0.15312139373E+02 -0.63400742281E+01  0.34651498434E+02  0.51100000000E-03 0. -1.
        -11    1    3    3    0    0 -0.76937882069E+01 -0.66460468279E+01  0.67275286772E+01  0.12191142595E+02  0.51100000000E-03 0.  1.
        -12    1    3    3    0    0  0.37315176014E+02  0.21693716117E+02  0.42927683616E+00  0.43165077998E+02  0.00000000000E+00 0.  1.
</event>
<event>
 7    1  0.2490895E-015  0.9000776E+02  0.7816164E-02  0.1186339E+00
        -11   -1    0    0    0    0  0.00000000000E+00  0.00000000000E+00  0.45593999997E+02  0.45594000000E+02  0.51100000000E-03 0. -1.
         11   -1    0    0    0    0 -0.00000000000E+00 -0.00000000000E+00 -0.45593999997E+02  0.45594000000E+02  0.51100000000E-03 0.  1.
    9900012    2    1    2    0    0  0.21131581346E+00 -0.11493529722E+01  0.16524747221E+00  0.90007757078E+02  0.90000018671E+02 0.  0.
         12    1    1    2    0    0 -0.21131581346E+00  0.11493529722E+01 -0.16524747221E+00  0.11802429220E+01  0.00000000000E+00 0. -1.
         11    1    3    3    0    0  0.13393554631E+02 -0.59880838061E+00  0.33554537958E+02  0.36133819269E+02  0.51100000000E-03 0. -1.
        -11    1    3    3    0    0  0.10921038709E+02 -0.24625877956E+01  0.16352827055E+01  0.11314043261E+02  0.51100000000E-03 0.  1.
        -12    1    3    3    0    0 -0.24103277526E+02  0.19120432040E+01 -0.35024573191E+02  0.42559894548E+02  0.00000000000E+00 0.  1.
</event>
<event>
 7    1  0.2563914E-015  0.9000818E+02  0.7816164E-02  0.1186338E+00
        -11   -1    0    0    0    0  0.00000000000E+00  0.00000000000E+00  0.45593999997E+02  0.45594000000E+02  0.51100000000E-03 0.  1.
         11   -1    0    0    0    0 -0.00000000000E+00 -0.00000000000E+00 -0.45593999997E+02  0.45594000000E+02  0.51100000000E-03 0. -1.
    9900012    2    1    2    0    0  0.33497806319E+00 -0.35616275165E+00  0.10737396230E+01  0.90008178409E+02  0.90000445563E+02 0.  0.
         12    1    1    2    0    0 -0.33497806319E+00  0.35616275165E+00 -0.10737396230E+01  0.11798215910E+01  0.00000000000E+00 0. -1.
         11    1    3    3    0    0 -0.18006489039E+02  0.53045964180E+01 -0.31836852152E+02  0.36958862886E+02  0.51100000000E-03 0. -1.
        -11    1    3    3    0    0 -0.34410001100E+01 -0.80195552102E+01 -0.44062456773E+01  0.97759270024E+01  0.51100000000E-03 0.  1.
        -12    1    3    3    0    0  0.21782467212E+02  0.23587960405E+01  0.37316837452E+02  0.43273388520E+02  0.00000000000E+00 0.  1.
</event>
<event>
 7    1  0.2490895E-015  0.9000773E+02  0.7816164E-02  0.1186339E+00
        -11   -1    0    0    0    0  0.00000000000E+00  0.00000000000E+00  0.45593999997E+02  0.45594000000E+02  0.51100000000E-03 0.  1.
         11   -1    0    0    0    0 -0.00000000000E+00 -0.00000000000E+00 -0.45593999997E+02  0.45594000000E+02  0.51100000000E-03 0. -1.
    9900012    2    1    2    0    0 -0.94706590027E+00  0.68900191627E+00  0.14621947682E+00  0.90007729863E+02  0.89999991098E+02 0.  0.
         12    1    1    2    0    0  0.94706590027E+00 -0.68900191627E+00 -0.14621947682E+00  0.11802701367E+01  0.00000000000E+00 0. -1.
         11    1    3    3    0    0 -0.16441996564E+02 -0.27372728362E+02 -0.20455500773E+02  0.37921405843E+02  0.51100000000E-03 0. -1.
        -11    1    3    3    0    0  0.61197908386E+00 -0.13413394906E+01 -0.81923727530E+01  0.83239823170E+01  0.51100000000E-03 0.  1.
        -12    1    3    3    0    0  0.14882951580E+02  0.29403069769E+02  0.28794093003E+02  0.43762341704E+02  0.00000000000E+00 0.  1.
</event>
<event>
 7    1  0.2490895E-015  0.9000757E+02  0.7816164E-02  0.1186339E+00
        -11   -1    0    0    0    0  0.00000000000E+00  0.00000000000E+00  0.45593999997E+02  0.45594000000E+02  0.51100000000E-03 0.  1.
         11   -1    0    0    0    0 -0.00000000000E+00 -0.00000000000E+00 -0.45593999997E+02  0.45594000000E+02  0.51100000000E-03 0. -1.
    9900012    2    1    2    0    0  0.10873405661E+01 -0.45409694307E+00 -0.70057741594E-01  0.90007567186E+02  0.89999826273E+02 0.  0.
         12    1    1    2    0    0 -0.10873405661E+01  0.45409694307E+00  0.70057741594E-01  0.11804328136E+01  0.00000000000E+00 0. -1.
         11    1    3    3    0    0 -0.42417395568E+02  0.56620632928E+01 -0.10800042069E+02  0.44135420203E+02  0.51100000000E-03 0. -1.
        -11    1    3    3    0    0  0.84308470970E+01  0.15733628992E+01  0.33937134478E+01  0.92234453873E+01  0.51100000000E-03 0.  1.
        -12    1    3    3    0    0  0.35073889038E+02 -0.76895231351E+01  0.73362708796E+01  0.36648701596E+02  0.00000000000E+00 0.  1.
</event>
<event>
 7    1  0.2490895E-015  0.9000800E+02  0.7816164E-02  0.1186339E+00
        -11   -1    0    0    0    0  0.00000000000E+00  0.00000000000E+00  0.45593999997E+02  0.45594000000E+02  0.51100000000E-03 0.  1.
         11   -1    0    0    0    0 -0.00000000000E+00 -0.00000000000E+00 -0.45593999997E+02  0.45594000000E+02  0.51100000000E-03 0. -1.
    9900012    2    1    2    0    0  0.10056707613E+01  0.89775313649E-01 -0.61071179777E+00  0.90007999073E+02  0.90000263861E+02 0.  0.
         12    1    1    2    0    0 -0.10056707613E+01 -0.89775313649E-01  0.61071179777E+00  0.11800009267E+01  0.00000000000E+00 0. -1.
         11    1    3    3    0    0 -0.48083311595E+01 -0.37264721332E+01 -0.86959802023E+01  0.10612573441E+02  0.51100000000E-03 0. -1.
        -11    1    3    3    0    0 -0.24457841667E+02  0.95988168334E+01  0.31260025626E+02  0.40835187106E+02  0.51100000000E-03 0.  1.
         12    1    3    3    0    0  0.30271843588E+02 -0.57825693865E+01 -0.23174757221E+02  0.38560238526E+02  0.00000000000E+00 0. -1.
</event>
<event>
 7    1  0.2490895E-015  0.9000737E+02  0.7816164E-02  0.1186340E+00
        -11   -1    0    0    0    0  0.00000000000E+00  0.00000000000E+00  0.45593999997E+02  0.45594000000E+02  0.51100000000E-03 0.  1.
         11   -1    0    0    0    0 -0.00000000000E+00 -0.00000000000E+00 -0.45593999997E+02  0.45594000000E+02  0.51100000000E-03 0. -1.
    9900012    2    1    2    0    0 -0.53089423862E+00 -0.61853977532E+00  0.85407632623E+00  0.90007370288E+02  0.89999626775E+02 0.  0.
         12    1    1    2    0    0  0.53089423862E+00  0.61853977532E+00 -0.85407632623E+00  0.11806297122E+01  0.00000000000E+00 0. -1.
         11    1    3    3    0    0  0.88655627214E+01  0.47895884232E+01 -0.40931514481E+01  0.10876224008E+02  0.51100000000E-03 0. -1.
        -11    1    3    3    0    0  0.33335856557E+02 -0.39207706767E+00  0.12196279664E+02  0.35499046391E+02  0.51100000000E-03 0.  1.
         12    1    3    3    0    0 -0.42732313517E+02 -0.50160511308E+01 -0.72490518893E+01  0.43632099889E+02  0.00000000000E+00 0. -1.
</event>
<event>
 7    1  0.2490895E-015  0.9000782E+02  0.7816164E-02  0.1186339E+00
        -11   -1    0    0    0    0  0.00000000000E+00  0.00000000000E+00  0.45593999997E+02  0.45594000000E+02  0.51100000000E-03 0.  1.
         11   -1    0    0    0    0 -0.00000000000E+00 -0.00000000000E+00 -0.45593999997E+02  0.45594000000E+02  0.51100000000E-03 0. -1.
    9900012    2    1    2    0    0  0.20712384567E+00 -0.45815549935E+00  0.10677180187E+01  0.90007818439E+02  0.90000080843E+02 0.  0.
         12    1    1    2    0    0 -0.20712384567E+00  0.45815549935E+00 -0.10677180187E+01  0.11801815608E+01  0.00000000000E+00 0. -1.
         11    1    3    3    0    0 -0.11005274044E+01 -0.77784137775E+01  0.77658783583E+01  0.11046436004E+02  0.51100000000E-03 0. -1.
        -11    1    3    3    0    0  0.95184415769E+01 -0.25494867968E+02  0.21690750820E+02  0.34800541578E+02  0.51100000000E-03 0.  1.
         12    1    3    3    0    0 -0.82107903269E+01  0.32815126246E+02 -0.28388911159E+02  0.44160840856E+02  0.00000000000E+00 0. -1.
</event>
<event>
 7    1  0.2490895E-015  0.9000778E+02  0.7816164E-02  0.1186339E+00
        -11   -1    0    0    0    0  0.00000000000E+00  0.00000000000E+00  0.45593999997E+02  0.45594000000E+02  0.51100000000E-03 0.  1.
         11   -1    0    0    0    0 -0.00000000000E+00 -0.00000000000E+00 -0.45593999997E+02  0.45594000000E+02  0.51100000000E-03 0. -1.
    9900012    2    1    2    0    0 -0.24107635915E+00  0.81552017190E+00  0.81837556640E+00  0.90007775644E+02  0.90000037483E+02 0.  0.
         12    1    1    2    0    0  0.24107635915E+00 -0.81552017190E+00 -0.81837556640E+00  0.11802243555E+01  0.00000000000E+00 0. -1.
         11    1    3    3    0    0 -0.75046071673E+01 -0.39425519236E+01  0.17950155285E+01  0.86651558217E+01  0.51100000000E-03 0. -1.
        -11    1    3    3    0    0 -0.28570501984E+02 -0.39154005797E+01  0.23405749784E+02  0.37140719817E+02  0.51100000000E-03 0.  1.
         12    1    3    3    0    0  0.35834032792E+02  0.86734726752E+01 -0.24382389746E+02  0.44201900006E+02  0.00000000000E+00 0. -1.
</event>
<event>
 7    1  0.2490895E-015  0.9000787E+02  0.7816164E-02  0.1186339E+00
        -11   -1    0    0    0    0  0.00000000000E+00  0.00000000000E+00  0.45593999997E+02  0.45594000000E+02  0.51100000000E-03 0. -1.
         11   -1    0    0    0    0 -0.00000000000E+00 -0.00000000000E+00 -0.45593999997E+02  0.45594000000E+02  0.51100000000E-03 0.  1.
    9900012    2    1    2    0    0  0.46029246381E-01  0.55960752763E+00 -0.10379886845E+01  0.90007872979E+02  0.90000136102E+02 0.  0.
         12    1    1    2    0    0 -0.46029246381E-01 -0.55960752763E+00  0.10379886845E+01  0.11801270210E+01  0.00000000000E+00 0. -1.
         11    1    3    3    0    0 -0.35397662818E+02  0.22484025301E+01  0.22214198196E+01  0.35538493963E+02  0.51100000000E-03 0. -1.
        -11    1    3    3    0    0 -0.91641139998E+01 -0.16256026870E+01  0.20987544316E+01  0.95408773141E+01  0.51100000000E-03 0.  1.
        -12    1    3    3    0    0  0.44607806064E+02 -0.63192315448E-01 -0.53581629358E+01  0.44928501702E+02  0.00000000000E+00 0.  1.
</event>
<event>
 7    1  0.2490895E-015  0.9000781E+02  0.7816164E-02  0.1186339E+00
        -11   -1    0    0    0    0  0.00000000000E+00  0.00000000000E+00  0.45593999997E+02  0.45594000000E+02  0.51100000000E-03 0.  1.
         11   -1    0    0    0    0 -0.00000000000E+00 -0.00000000000E+00 -0.45593999997E+02  0.45594000000E+02  0.51100000000E-03 0. -1.
    9900012    2    1    2    0    0 -0.72948906418E+00 -0.62984137913E+00  0.68116905286E+00  0.90007811144E+02  0.90000073451E+02 0.  0.
         12    1    1    2    0    0  0.72948906418E+00  0.62984137913E+00 -0.68116905286E+00  0.11801888562E+01  0.00000000000E+00 0. -1.
         11    1    3    3    0    0  0.33914555473E+02  0.68411152526E+00  0.20235184003E+02  0.39498452544E+02  0.51100000000E-03 0. -1.
        -11    1    3    3    0    0  0.17667554250E+01 -0.89173709010E+01 -0.16926454036E+01  0.92469442110E+01  0.51100000000E-03 0.  1.
        -12    1    3    3    0    0 -0.36410799962E+02  0.76034179966E+01 -0.17861369546E+02  0.41262414389E+02  0.00000000000E+00 0.  1.
</event>
<event>
 7    1  0.2490895E-015  0.9000769E+02  0.7816164E-02  0.1186339E+00
        -11   -1    0    0    0    0  0.00000000000E+00  0.00000000000E+00  0.45593999997E+02  0.45594000000E+02  0.51100000000E-03 0. -1.
         11   -1    0    0    0    0 -0.00000000000E+00 -0.00000000000E+00 -0.45593999997E+02  0.45594000000E+02  0.51100000000E-03 0.  1.
    9900012    2    1    2    0    0  0.32358608752E+00  0.77983212222E+00 -0.82479614683E+00  0.90007688694E+02  0.89999949385E+02 0.  0.
         12    1    1    2    0    0 -0.32358608752E+00 -0.77983212222E+00  0.82479614683E+00  0.11803113058E+01  0.00000000000E+00 0. -1.
         11    1    3    3    0    0 -0.19886286487E+02  0.20387147545E+02  0.21609711860E+02  0.35750242268E+02  0.51100000000E-03 0. -1.
        -11    1    3    3    0    0 -0.60075832253E+01  0.79647778034E+01  0.21562658110E+00  0.99787392365E+01  0.51100000000E-03 0.  1.
        -12    1    3    3    0    0  0.26217455800E+02 -0.27572093227E+02 -0.22650134588E+02  0.44278707190E+02  0.00000000000E+00 0.  1.
</event>
<event>
 7    1  0.2490895E-015  0.9000768E+02  0.7816164E-02  0.1186339E+00
        -11   -1    0    0    0    0  0.00000000000E+00  0.00000000000E+00  0.45593999997E+02  0.45594000000E+02  0.51100000000E-03 0. -1.
         11   -1    0    0    0    0 -0.00000000000E+00 -0.00000000000E+00 -0.45593999997E+02  0.45594000000E+02  0.51100000000E-03 0.  1.
    9900012    2    1    2    0    0 -0.59842031369E+00 -0.10172963878E+01  0.12763499033E-01  0.90007677282E+02  0.89999937822E+02 0.  0.
         12    1    1    2    0    0  0.59842031369E+00  0.10172963878E+01 -0.12763499033E-01  0.11803227183E+01  0.00000000000E+00 0. -1.
         11    1    3    3    0    0  0.16026931010E+02 -0.26257067989E+02 -0.11765838727E+02  0.32935256158E+02  0.51100000000E-03 0. -1.
        -11    1    3    3    0    0 -0.18681587536E+00 -0.88491765665E+01 -0.10042771125E+02  0.13386563346E+02  0.51100000000E-03 0.  1.
        -12    1    3    3    0    0 -0.16438535449E+02  0.34088948168E+02  0.21821373351E+02  0.43685857778E+02  0.00000000000E+00 0.  1.
</event>
<event>
 7    1  0.3174262E-015  0.9000781E+02  0.7816164E-02  0.1186339E+00
        -11   -1    0    0    0    0  0.00000000000E+00  0.00000000000E+00  0.45593999997E+02  0.45594000000E+02  0.51100000000E-03 0. -1.
         11   -1    0    0    0    0 -0.00000000000E+00 -0.00000000000E+00 -0.45593999997E+02  0.45594000000E+02  0.51100000000E-03 0.  1.
    9900012    2    1    2    0    0 -0.40537618138E+00 -0.92235988732E+00 -0.61463120115E+00  0.90007809709E+02  0.90000071997E+02 0.  0.
         12    1    1    2    0    0  0.40537618138E+00  0.92235988732E+00  0.61463120115E+00  0.11801902913E+01  0.00000000000E+00 0. -1.
         11    1    3    3    0    0  0.24123945715E+02 -0.16254444756E+02  0.24794557382E+02  0.38222268473E+02  0.51100000000E-03 0. -1.
        -11    1    3    3    0    0 -0.13075818737E+01  0.41917774344E+01  0.82840031227E+01  0.93757920420E+01  0.51100000000E-03 0.  1.
        -12    1    3    3    0    0 -0.23221740023E+02  0.11140307434E+02 -0.33693191705E+02  0.42409749194E+02  0.00000000000E+00 0.  1.
</event>
<event>
 7    1  0.2490895E-015  0.9000776E+02  0.7816164E-02  0.1186339E+00
        -11   -1    0    0    0    0  0.00000000000E+00  0.00000000000E+00  0.45593999997E+02  0.45594000000E+02  0.51100000000E-03 0.  1.
         11   -1    0    0    0    0 -0.00000000000E+00 -0.00000000000E+00 -0.45593999997E+02  0.45594000000E+02  0.51100000000E-03 0. -1.
    9900012    2    1    2    0    0  0.28234788393E+00  0.94280898065E+00  0.65142722103E+00  0.90007759971E+02  0.90000021603E+02 0.  0.
         12    1    1    2    0    0 -0.28234788393E+00 -0.94280898065E+00 -0.65142722103E+00  0.11802400289E+01  0.00000000000E+00 0. -1.
         11    1    3    3    0    0  0.28979430570E+01 -0.36845875417E+02  0.90696293980E+01  0.38056205629E+02  0.51100000000E-03 0. -1.
        -11    1    3    3    0    0  0.26571180909E+01 -0.36725120006E+01 -0.90828498118E+01  0.10151146827E+02  0.51100000000E-03 0.  1.
        -12    1    3    3    0    0 -0.52727132640E+01  0.41461196398E+02  0.66464763481E+00  0.41800407515E+02  0.00000000000E+00 0.  1.
</event>
<event>
 7    1  0.2490895E-015  0.9000788E+02  0.7816164E-02  0.1186339E+00
        -11   -1    0    0    0    0  0.00000000000E+00  0.00000000000E+00  0.45593999997E+02  0.45594000000E+02  0.51100000000E-03 0. -1.
         11   -1    0    0    0    0 -0.00000000000E+00 -0.00000000000E+00 -0.45593999997E+02  0.45594000000E+02  0.51100000000E-03 0.  1.
    9900012    2    1    2    0    0 -0.65661831863E+00  0.51815854700E+00 -0.83249789626E+00  0.90007877700E+02  0.90000140885E+02 0.  0.
         12    1    1    2    0    0  0.65661831863E+00 -0.51815854700E+00  0.83249789626E+00  0.11801223002E+01  0.00000000000E+00 0. -1.
         11    1    3    3    0    0  0.13830990830E+01  0.31576008102E+01 -0.14129117181E+02  0.14543567599E+02  0.51100000000E-03 0. -1.
        -11    1    3    3    0    0 -0.19593136943E+02 -0.27429841973E+02 -0.12156787777E+02  0.35833988547E+02  0.51100000000E-03 0.  1.
         12    1    3    3    0    0  0.17553419541E+02  0.24790399709E+02  0.25453407062E+02  0.39630321553E+02  0.00000000000E+00 0. -1.
</event>
<event>
 7    1  0.2490895E-015  0.9000750E+02  0.7816164E-02  0.1186340E+00
        -11   -1    0    0    0    0  0.00000000000E+00  0.00000000000E+00  0.45593999997E+02  0.45594000000E+02  0.51100000000E-03 0.  1.
         11   -1    0    0    0    0 -0.00000000000E+00 -0.00000000000E+00 -0.45593999997E+02  0.45594000000E+02  0.51100000000E-03 0. -1.
    9900012    2    1    2    0    0 -0.35044171847E+00 -0.87437788922E+00  0.71149483012E+00  0.90007503924E+02  0.89999762176E+02 0.  0.
         12    1    1    2    0    0  0.35044171847E+00  0.87437788922E+00 -0.71149483012E+00  0.11804960756E+01  0.00000000000E+00 0. -1.
         11    1    3    3    0    0 -0.13121934367E+01  0.75330617484E+01 -0.62532691689E+01  0.98778664943E+01  0.51100000000E-03 0. -1.
        -11    1    3    3    0    0 -0.32618083201E+02 -0.25924821856E+01 -0.18498471657E+02  0.37587947131E+02  0.51100000000E-03 0.  1.
         12    1    3    3    0    0  0.33579834920E+02 -0.58149574520E+01  0.25463235656E+02  0.42541690299E+02  0.00000000000E+00 0. -1.
</event>
<event>
 7    1  0.2490895E-015  0.9000782E+02  0.7816164E-02  0.1186339E+00
        -11   -1    0    0    0    0  0.00000000000E+00  0.00000000000E+00  0.45593999997E+02  0.45594000000E+02  0.51100000000E-03 0.  1.
         11   -1    0    0    0    0 -0.00000000000E+00 -0.00000000000E+00 -0.45593999997E+02  0.45594000000E+02  0.51100000000E-03 0. -1.
    9900012    2    1    2    0    0 -0.24975266255E+00 -0.39904160106E-01  0.11527582615E+01  0.90007821902E+02  0.90000084351E+02 0.  0.
         12    1    1    2    0    0  0.24975266255E+00  0.39904160106E-01 -0.11527582615E+01  0.11801780984E+01  0.00000000000E+00 0. -1.
         11    1    3    3    0    0  0.28282206562E+01 -0.34492733003E+02 -0.94025369155E+01  0.35863005491E+02  0.51100000000E-03 0. -1.
        -11    1    3    3    0    0  0.11596643837E+00 -0.92641706408E+01  0.14954505616E+01  0.93848110541E+01  0.51100000000E-03 0.  1.
        -12    1    3    3    0    0 -0.31939397571E+01  0.43716999484E+02  0.90598446154E+01  0.44760005357E+02  0.00000000000E+00 0.  1.
</event>
<event>
 7    1  0.2490895E-015  0.9000776E+02  0.7816164E-02  0.1186339E+00
        -11   -1    0    0    0    0  0.00000000000E+00  0.00000000000E+00  0.45593999997E+02  0.45594000000E+02  0.51100000000E-03 0. -1.
         11   -1    0    0    0    0 -0.00000000000E+00 -0.00000000000E+00 -0.45593999997E+02  0.45594000000E+02  0.51100000000E-03 0.  1.
    9900012    2    1    2    0    0  0.98844933194E+00 -0.59895333899E+00 -0.23914534723E+00  0.90007759482E+02  0.90000021107E+02 0.  0.
         12    1    1    2    0    0 -0.98844933194E+00  0.59895333899E+00  0.23914534723E+00  0.11802405184E+01  0.00000000000E+00 0. -1.
         11    1    3    3    0    0 -0.78314912328E+01  0.25952191577E+02  0.35093676147E+02  0.44344273682E+02  0.51100000000E-03 0. -1.
        -11    1    3    3    0    0  0.54551774334E+01 -0.60356843278E+01 -0.97388290711E+01  0.12689887236E+02  0.51100000000E-03 0.  1.
        -12    1    3    3    0    0  0.33647631314E+01 -0.20515460588E+02 -0.25593992423E+02  0.32973598564E+02  0.00000000000E+00 0.  1.
</event>
<event>
 7    1  0.2490895E-015  0.9000776E+02  0.7816164E-02  0.1186339E+00
        -11   -1    0    0    0    0  0.00000000000E+00  0.00000000000E+00  0.45593999997E+02  0.45594000000E+02  0.51100000000E-03 0.  1.
         11   -1    0    0    0    0 -0.00000000000E+00 -0.00000000000E+00 -0.45593999997E+02  0.45594000000E+02  0.51100000000E-03 0. -1.
    9900012    2    1    2    0    0 -0.10175051555E+01  0.59729113679E+00 -0.29722328447E-01  0.90007764066E+02  0.90000025752E+02 0.  0.
         12    1    1    2    0    0  0.10175051555E+01 -0.59729113679E+00  0.29722328447E-01  0.11802359342E+01  0.00000000000E+00 0. -1.
         11    1    3    3    0    0 -0.13240619545E+02 -0.55799978120E+01  0.12457595839E+01  0.14422284795E+02  0.51100000000E-03 0. -1.
        -11    1    3    3    0    0  0.14296038642E+02 -0.32235518598E+02  0.76757299175E+01  0.36089087134E+02  0.51100000000E-03 0.  1.
         12    1    3    3    0    0 -0.20729242523E+01  0.38412807547E+02 -0.89512118298E+01  0.39496392136E+02  0.00000000000E+00 0. -1.
</event>
<event>
 7    1  0.2490895E-015  0.9000777E+02  0.7816164E-02  0.1186339E+00
        -11   -1    0    0    0    0  0.00000000000E+00  0.00000000000E+00  0.45593999997E+02  0.45594000000E+02  0.51100000000E-03 0. -1.
         11   -1    0    0    0    0 -0.00000000000E+00 -0.00000000000E+00 -0.45593999997E+02  0.45594000000E+02  0.51100000000E-03 0.  1.
    9900012    2    1    2    0    0  0.20385470864E-03 -0.97858235522E+00  0.65978436822E+00  0.90007771683E+02  0.90000033469E+02 0.  0.
         12    1    1    2    0    0 -0.20385470864E-03  0.97858235522E+00 -0.65978436822E+00  0.11802283169E+01  0.00000000000E+00 0. -1.
         11    1    3    3    0    0 -0.85161160516E+01  0.22255044873E+00 -0.64304170046E+00  0.85432584062E+01  0.51100000000E-03 0. -1.
        -11    1    3    3    0    0 -0.51598975368E+01  0.75198051022E+00 -0.38748365526E+02  0.39097645050E+02  0.51100000000E-03 0.  1.
         12    1    3    3    0    0  0.13676217443E+02 -0.19531133142E+01  0.40051191595E+02  0.42366868227E+02  0.00000000000E+00 0. -1.
</event>
<event>
 7    1  0.2490895E-015  0.9000757E+02  0.7816164E-02  0.1186339E+00
        -11   -1    0    0    0    0  0.00000000000E+00  0.00000000000E+00  0.45593999997E+02  0.45594000000E+02  0.51100000000E-03 0. -1.
         11   -1    0    0    0    0 -0.00000000000E+00 -0.00000000000E+00 -0.45593999997E+02  0.45594000000E+02  0.51100000000E-03 0.  1.
    9900012    2    1    2    0    0 -0.67051684532E+00  0.97150198848E+00 -0.11640022034E-02  0.90007571981E+02  0.89999831131E+02 0.  0.
         12    1    1    2    0    0  0.67051684532E+00 -0.97150198848E+00  0.11640022034E-02  0.11804280191E+01  0.00000000000E+00 0. -1.
         11    1    3    3    0    0  0.11437723705E+01  0.10269795311E+02  0.38030735650E+02  0.39409564389E+02  0.51100000000E-03 0. -1.
        -11    1    3    3    0    0  0.61324861075E+01 -0.81895038326E+01  0.14282898840E+01  0.10330313216E+02  0.51100000000E-03 0.  1.
        -12    1    3    3    0    0 -0.79467753233E+01 -0.11087894894E+01 -0.39460189536E+02  0.40267694377E+02  0.00000000000E+00 0.  1.
</event>
<event>
 7    1  0.2490895E-015  0.9000791E+02  0.7816164E-02  0.1186339E+00
        -11   -1    0    0    0    0  0.00000000000E+00  0.00000000000E+00  0.45593999997E+02  0.45594000000E+02  0.51100000000E-03 0.  1.
         11   -1    0    0    0    0 -0.00000000000E+00 -0.00000000000E+00 -0.45593999997E+02  0.45594000000E+02  0.51100000000E-03 0. -1.
    9900012    2    1    2    0    0 -0.23033558957E+00  0.10847530423E+01  0.40355542584E+00  0.90007914991E+02  0.90000178669E+02 0.  0.
         12    1    1    2    0    0  0.23033558957E+00 -0.10847530423E+01 -0.40355542584E+00  0.11800850089E+01  0.00000000000E+00 0. -1.
         11    1    3    3    0    0  0.31027635520E+02 -0.18602825952E+02  0.28126161638E+00  0.36178148208E+02  0.51100000000E-03 0. -1.
        -11    1    3    3    0    0  0.91463647075E+00 -0.94111608940E+01  0.40211746844E+01  0.10275035540E+02  0.51100000000E-03 0.  1.
        -12    1    3    3    0    0 -0.32172607581E+02  0.29098739888E+02 -0.38988808749E+01  0.43554731243E+02  0.00000000000E+00 0.  1.
</event>
<event>
 7    1  0.2490895E-015  0.9000782E+02  0.7816164E-02  0.1186339E+00
        -11   -1    0    0    0    0  0.00000000000E+00  0.00000000000E+00  0.45593999997E+02  0.45594000000E+02  0.51100000000E-03 0. -1.
         11   -1    0    0    0    0 -0.00000000000E+00 -0.00000000000E+00 -0.45593999997E+02  0.45594000000E+02  0.51100000000E-03 0.  1.
    9900012    2    1    2    0    0  0.18773726687E+00 -0.11559567615E+01  0.14607441635E+00  0.90007822449E+02  0.90000084906E+02 0.  0.
         12    1    1    2    0    0 -0.18773726687E+00  0.11559567615E+01 -0.14607441635E+00  0.11801775506E+01  0.00000000000E+00 0. -1.
         11    1    3    3    0    0 -0.28588267831E+01 -0.89649869600E+01 -0.34444741643E+00  0.94160780611E+01  0.51100000000E-03 0. -1.
        -11    1    3    3    0    0  0.94913826586E+01  0.14481231000E+02 -0.37596179650E+02  0.41391606885E+02  0.51100000000E-03 0.  1.
         12    1    3    3    0    0 -0.64448186086E+01 -0.66722008020E+01  0.38086701482E+02  0.39200137503E+02  0.00000000000E+00 0. -1.
</event>
<event>
 7    1  0.2490895E-015  0.9000772E+02  0.7816164E-02  0.1186339E+00
        -11   -1    0    0    0    0  0.00000000000E+00  0.00000000000E+00  0.45593999997E+02  0.45594000000E+02  0.51100000000E-03 0.  1.
         11   -1    0    0    0    0 -0.00000000000E+00 -0.00000000000E+00 -0.45593999997E+02  0.45594000000E+02  0.51100000000E-03 0. -1.
    9900012    2    1    2    0    0 -0.15286007168E+00  0.24142502037E-01  0.11700874600E+01  0.90007723030E+02  0.89999984174E+02 0.  0.
         12    1    1    2    0    0  0.15286007168E+00 -0.24142502037E-01 -0.11700874600E+01  0.11802769701E+01  0.00000000000E+00 0. -1.
         11    1    3    3    0    0  0.43050366417E+00  0.34875874864E+02  0.29537367761E+01  0.35003379010E+02  0.51100000000E-03 0. -1.
        -11    1    3    3    0    0  0.14870717233E+00  0.95838844317E+01 -0.42701440936E+01  0.10493192339E+02  0.51100000000E-03 0.  1.
        -12    1    3    3    0    0 -0.73207090818E+00 -0.44435616794E+02  0.24864947775E+01  0.44511151681E+02  0.00000000000E+00 0.  1.
</event>
<event>
 7    1  0.2490895E-015  0.9000776E+02  0.7816164E-02  0.1186339E+00
        -11   -1    0    0    0    0  0.00000000000E+00  0.00000000000E+00  0.45593999997E+02  0.45594000000E+02  0.51100000000E-03 0. -1.
         11   -1    0    0    0    0 -0.00000000000E+00 -0.00000000000E+00 -0.45593999997E+02  0.45594000000E+02  0.51100000000E-03 0.  1.
    9900012    2    1    2    0    0  0.10297888181E+00 -0.42652752418E+00 -0.10956447484E+01  0.90007759434E+02  0.90000021059E+02 0.  0.
         12    1    1    2    0    0 -0.10297888181E+00  0.42652752418E+00  0.10956447484E+01  0.11802405660E+01  0.00000000000E+00 0. -1.
         11    1    3    3    0    0 -0.28991696056E+01 -0.29926144033E+02  0.21967330119E+02  0.37236311228E+02  0.51100000000E-03 0. -1.
        -11    1    3    3    0    0  0.34530929139E+01 -0.86467836916E+01 -0.48343528382E+01  0.10491028858E+02  0.51100000000E-03 0.  1.
        -12    1    3    3    0    0 -0.45094442652E+00  0.38146400200E+02 -0.18228622029E+02  0.42280419347E+02  0.00000000000E+00 0.  1.
</event>
<event>
 7    1  0.2490895E-015  0.9000736E+02  0.7816164E-02  0.1186340E+00
        -11   -1    0    0    0    0  0.00000000000E+00  0.00000000000E+00  0.45593999997E+02  0.45594000000E+02  0.51100000000E-03 0. -1.
         11   -1    0    0    0    0 -0.00000000000E+00 -0.00000000000E+00 -0.45593999997E+02  0.45594000000E+02  0.51100000000E-03 0.  1.
    9900012    2    1    2    0    0 -0.10128628657E+01 -0.60012650656E+00  0.88660200342E-01  0.90007363036E+02  0.89999619428E+02 0.  0.
         12    1    1    2    0    0  0.10128628657E+01  0.60012650656E+00 -0.88660200342E-01  0.11806369636E+01  0.00000000000E+00 0. -1.
         11    1    3    3    0    0 -0.23095945461E+02 -0.31892382831E+02  0.12006812874E+02  0.41166859669E+02  0.51100000000E-03 0. -1.
        -11    1    3    3    0    0 -0.46365190588E+01  0.56598946281E+01  0.42240736099E+01  0.84483438795E+01  0.51100000000E-03 0.  1.
        -12    1    3    3    0    0  0.26719601654E+02  0.25632361697E+02 -0.16142226284E+02  0.40392159488E+02  0.00000000000E+00 0.  1.
</event>
<event>
 7    1  0.2490895E-015  0.9000861E+02  0.7816164E-02  0.1186337E+00
        -11   -1    0    0    0    0  0.00000000000E+00  0.00000000000E+00  0.45593999997E+02  0.45594000000E+02  0.51100000000E-03 0. -1.
         11   -1    0    0    0    0 -0.00000000000E+00 -0.00000000000E+00 -0.45593999997E+02  0.45594000000E+02  0.51100000000E-03 0.  1.
    9900012    2    1    2    0    0  0.10264136226E+01 -0.55020907072E+00 -0.18626380774E+00  0.90008614926E+02  0.90000887839E+02 0.  0.
         12    1    1    2    0    0 -0.10264136226E+01  0.55020907072E+00  0.18626380774E+00  0.11793850737E+01  0.00000000000E+00 0. -1.
         11    1    3    3    0    0 -0.39677041294E+02 -0.12002173347E+00 -0.12933673333E+02  0.41732025079E+02  0.51100000000E-03 0. -1.
        -11    1    3    3    0    0  0.48215449985E+01  0.21181513129E+00  0.11382045030E+02  0.12362973395E+02  0.51100000000E-03 0.  1.
        -12    1    3    3    0    0  0.35881909918E+02 -0.64200246853E+00  0.13653644951E+01  0.35913616453E+02  0.00000000000E+00 0.  1.
</event>
<event>
 7    1  0.2490895E-015  0.9000761E+02  0.7816164E-02  0.1186339E+00
        -11   -1    0    0    0    0  0.00000000000E+00  0.00000000000E+00  0.45593999997E+02  0.45594000000E+02  0.51100000000E-03 0.  1.
         11   -1    0    0    0    0 -0.00000000000E+00 -0.00000000000E+00 -0.45593999997E+02  0.45594000000E+02  0.51100000000E-03 0. -1.
    9900012    2    1    2    0    0  0.49150884146E+00  0.54404035456E+00  0.92507464873E+00  0.90007608559E+02  0.89999868192E+02 0.  0.
         12    1    1    2    0    0 -0.49150884146E+00 -0.54404035456E+00 -0.92507464873E+00  0.11803914412E+01  0.00000000000E+00 0. -1.
         11    1    3    3    0    0 -0.16329989389E+02 -0.26768805544E+02 -0.12727899537E+02  0.33841349420E+02  0.51100000000E-03 0. -1.
        -11    1    3    3    0    0  0.82613898962E+01 -0.11471752184E+02 -0.91924415392E-01  0.14137188955E+02  0.51100000000E-03 0.  1.
        -12    1    3    3    0    0  0.85601083340E+01  0.38784598082E+02  0.13744898601E+02  0.42029070185E+02  0.00000000000E+00 0.  1.
</event>
<event>
 8    1  0.2490895E-015  0.9000769E+02  0.7816164E-02  0.1186339E+00
        -11   -1    0    0    0    0  0.00000000000E+00  0.00000000000E+00  0.45593999997E+02  0.45594000000E+02  0.51100000000E-03 0. -1.
         11   -1    0    0    0    0 -0.00000000000E+00 -0.00000000000E+00 -0.45593999997E+02  0.45594000000E+02  0.51100000000E-03 0.  1.
    9900012    2    1    2    0    0 -0.67223209739E+00 -0.64523311189E+00  0.72450105097E+00  0.90007693457E+02  0.89999954211E+02 0.  0.
         23    2    3    3    0    0  0.10550467704E+01  0.28227963252E+02  0.20580852336E+01  0.61052151547E+02  0.54085103870E+02 0.  0.
         12    1    1    2    0    0  0.67223209739E+00  0.64523311189E+00 -0.72450105097E+00  0.11803065425E+01  0.00000000000E+00 0. -1.
         11    1    4    4    0    0  0.15825131558E+02 -0.58249245906E+01 -0.12697129827E+02  0.21108804832E+02  0.51100000000E-03 0. -1.
        -11    1    4    4    0    0 -0.14770084788E+02  0.34052887843E+02  0.14755215061E+02  0.39943346715E+02  0.51100000000E-03 0.  1.
         12    1    3    3    0    0 -0.17272788678E+01 -0.28873196364E+02 -0.13335841827E+01  0.28955541911E+02  0.00000000000E+00 0. -1.
</event>
<event>
 7    1  0.2490895E-015  0.9000770E+02  0.7816164E-02  0.1186339E+00
        -11   -1    0    0    0    0  0.00000000000E+00  0.00000000000E+00  0.45593999997E+02  0.45594000000E+02  0.51100000000E-03 0. -1.
         11   -1    0    0    0    0 -0.00000000000E+00 -0.00000000000E+00 -0.45593999997E+02  0.45594000000E+02  0.51100000000E-03 0.  1.
    9900012    2    1    2    0    0  0.42487473492E+00 -0.37771359593E+00 -0.10343646978E+01  0.90007704940E+02  0.89999965845E+02 0.  0.
         12    1    1    2    0    0 -0.42487473492E+00  0.37771359593E+00  0.10343646978E+01  0.11802950601E+01  0.00000000000E+00 0. -1.
         11    1    3    3    0    0 -0.14612783871E+02 -0.93867362950E+01 -0.19322691155E+02  0.25980967351E+02  0.51100000000E-03 0. -1.
        -11    1    3    3    0    0  0.23535278827E+02  0.12738670130E+02 -0.14160415333E+02  0.30277061099E+02  0.51100000000E-03 0.  1.
         12    1    3    3    0    0 -0.84976202211E+01 -0.37296474313E+01  0.32448741791E+02  0.33749676490E+02  0.00000000000E+00 0. -1.
</event>
<event>
 7    1  0.2490895E-015  0.9000779E+02  0.7816164E-02  0.1186339E+00
        -11   -1    0    0    0    0  0.00000000000E+00  0.00000000000E+00  0.45593999997E+02  0.45594000000E+02  0.51100000000E-03 0. -1.
         11   -1    0    0    0    0 -0.00000000000E+00 -0.00000000000E+00 -0.45593999997E+02  0.45594000000E+02  0.51100000000E-03 0.  1.
    9900012    2    1    2    0    0  0.70548236232E+00  0.38584192658E+00 -0.86389177717E+00  0.90007793087E+02  0.90000055155E+02 0.  0.
         12    1    1    2    0    0 -0.70548236232E+00 -0.38584192658E+00  0.86389177717E+00  0.11802069134E+01  0.00000000000E+00 0. -1.
         11    1    3    3    0    0  0.53357912601E+01 -0.28508136276E+01 -0.32544718509E+01  0.68694536901E+01  0.51100000000E-03 0. -1.
        -11    1    3    3    0    0  0.19641109851E+02  0.32231447390E+02 -0.16114452366E+02  0.41040406581E+02  0.51100000000E-03 0.  1.
         12    1    3    3    0    0 -0.24271418749E+02 -0.28994791836E+02  0.18505032439E+02  0.42097932815E+02  0.00000000000E+00 0. -1.
</event>
<event>
 7    1  0.2490895E-015  0.9000772E+02  0.7816164E-02  0.1186339E+00
        -11   -1    0    0    0    0  0.00000000000E+00  0.00000000000E+00  0.45593999997E+02  0.45594000000E+02  0.51100000000E-03 0.  1.
         11   -1    0    0    0    0 -0.00000000000E+00 -0.00000000000E+00 -0.45593999997E+02  0.45594000000E+02  0.51100000000E-03 0. -1.
    9900012    2    1    2    0    0  0.11258987201E+01 -0.30430435542E+00 -0.18111081309E+00  0.90007724526E+02  0.89999985689E+02 0.  0.
         12    1    1    2    0    0 -0.11258987201E+01  0.30430435542E+00  0.18111081309E+00  0.11802754743E+01  0.00000000000E+00 0. -1.
         11    1    3    3    0    0  0.12651434781E+01 -0.59118893208E+01 -0.67278070822E+01  0.90451319370E+01  0.51100000000E-03 0. -1.
        -11    1    3    3    0    0  0.16220477054E+02 -0.13917685723E+02  0.36096114767E+02  0.41949199674E+02  0.51100000000E-03 0.  1.
         12    1    3    3    0    0 -0.16359721812E+02  0.19525270688E+02 -0.29549418498E+02  0.39013392915E+02  0.00000000000E+00 0. -1.
</event>
<event>
 7    1  0.2490895E-015  0.9000778E+02  0.7816164E-02  0.1186339E+00
        -11   -1    0    0    0    0  0.00000000000E+00  0.00000000000E+00  0.45593999997E+02  0.45594000000E+02  0.51100000000E-03 0.  1.
         11   -1    0    0    0    0 -0.00000000000E+00 -0.00000000000E+00 -0.45593999997E+02  0.45594000000E+02  0.51100000000E-03 0. -1.
    9900012    2    1    2    0    0  0.58611885096E+00 -0.39851289158E+00  0.94369642689E+00  0.90007783588E+02  0.90000045532E+02 0.  0.
         12    1    1    2    0    0 -0.58611885096E+00  0.39851289158E+00 -0.94369642689E+00  0.11802164116E+01  0.00000000000E+00 0. -1.
         11    1    3    3    0    0  0.27611084273E+01 -0.11950793546E+01 -0.87055755155E+01  0.92108077674E+01  0.51100000000E-03 0. -1.
        -11    1    3    3    0    0  0.35692289556E+02  0.14272686728E+02 -0.32672781572E+01  0.38578805411E+02  0.51100000000E-03 0.  1.
         12    1    3    3    0    0 -0.37867279132E+02 -0.13476120265E+02  0.12916550100E+02  0.42218170410E+02  0.00000000000E+00 0. -1.
</event>
<event>
 7    1  0.2490895E-015  0.9000777E+02  0.7816164E-02  0.1186339E+00
        -11   -1    0    0    0    0  0.00000000000E+00  0.00000000000E+00  0.45593999997E+02  0.45594000000E+02  0.51100000000E-03 0. -1.
         11   -1    0    0    0    0 -0.00000000000E+00 -0.00000000000E+00 -0.45593999997E+02  0.45594000000E+02  0.51100000000E-03 0.  1.
    9900012    2    1    2    0    0  0.53436244801E+00  0.10431619277E+01  0.13860784028E+00  0.90007770291E+02  0.90000032059E+02 0.  0.
         12    1    1    2    0    0 -0.53436244801E+00 -0.10431619277E+01 -0.13860784028E+00  0.11802297092E+01  0.00000000000E+00 0. -1.
         11    1    3    3    0    0  0.90870544100E+01  0.38147358381E+02 -0.90733942704E+01  0.40250739038E+02  0.51100000000E-03 0. -1.
        -11    1    3    3    0    0 -0.59723580804E+01 -0.14812342726E+01 -0.80138760395E+01  0.10103728294E+02  0.51100000000E-03 0.  1.
        -12    1    3    3    0    0 -0.25803338816E+01 -0.35622962180E+02  0.17225878150E+02  0.39653302958E+02  0.00000000000E+00 0.  1.
</event>
<event>
 7    1  0.2490895E-015  0.9000777E+02  0.7816164E-02  0.1186339E+00
        -11   -1    0    0    0    0  0.00000000000E+00  0.00000000000E+00  0.45593999997E+02  0.45594000000E+02  0.51100000000E-03 0.  1.
         11   -1    0    0    0    0 -0.00000000000E+00 -0.00000000000E+00 -0.45593999997E+02  0.45594000000E+02  0.51100000000E-03 0. -1.
    9900012    2    1    2    0    0  0.93330016913E+00 -0.71087737085E+00  0.12867805782E+00  0.90007765326E+02  0.90000027029E+02 0.  0.
         12    1    1    2    0    0 -0.93330016913E+00  0.71087737085E+00 -0.12867805782E+00  0.11802346735E+01  0.00000000000E+00 0. -1.
         11    1    3    3    0    0 -0.45231930190E+01 -0.35228148391E+02  0.60081212510E+01  0.36021927147E+02  0.51100000000E-03 0. -1.
        -11    1    3    3    0    0 -0.12881624800E+02  0.15686705686E+01  0.62114467506E+01  0.14386766691E+02  0.51100000000E-03 0.  1.
        -12    1    3    3    0    0  0.18338117988E+02  0.32948600452E+02 -0.12090889944E+02  0.39599071488E+02  0.00000000000E+00 0.  1.
</event>
<event>
 7    1  0.2490895E-015  0.9000772E+02  0.7816164E-02  0.1186339E+00
        -11   -1    0    0    0    0  0.00000000000E+00  0.00000000000E+00  0.45593999997E+02  0.45594000000E+02  0.51100000000E-03 0.  1.
         11   -1    0    0    0    0 -0.00000000000E+00 -0.00000000000E+00 -0.45593999997E+02  0.45594000000E+02  0.51100000000E-03 0. -1.
    9900012    2    1    2    0    0 -0.30872304158E+00  0.77011892082E+00  0.83944006574E+00  0.90007723468E+02  0.89999984618E+02 0.  0.
         12    1    1    2    0    0  0.30872304158E+00 -0.77011892082E+00 -0.83944006574E+00  0.11802765323E+01  0.00000000000E+00 0. -1.
         11    1    3    3    0    0  0.31979170832E+02 -0.19798220178E+02  0.40256173838E+01  0.37826478621E+02  0.51100000000E-03 0. -1.
        -11    1    3    3    0    0  0.55761678391E+01  0.15841473139E+01 -0.76409137860E+01  0.95909714955E+01  0.51100000000E-03 0.  1.
        -12    1    3    3    0    0 -0.37864061712E+02  0.18984191785E+02  0.44547364679E+01  0.42590273351E+02  0.00000000000E+00 0.  1.
</event>
<event>
 7    1  0.2490895E-015  0.9000774E+02  0.7816164E-02  0.1186339E+00
        -11   -1    0    0    0    0  0.00000000000E+00  0.00000000000E+00  0.45593999997E+02  0.45594000000E+02  0.51100000000E-03 0. -1.
         11   -1    0    0    0    0 -0.00000000000E+00 -0.00000000000E+00 -0.45593999997E+02  0.45594000000E+02  0.51100000000E-03 0.  1.
    9900012    2    1    2    0    0 -0.38845444348E+00 -0.86069859495E+00 -0.70804089921E+00  0.90007736961E+02  0.89999998289E+02 0.  0.
         12    1    1    2    0    0  0.38845444348E+00  0.86069859495E+00  0.70804089921E+00  0.11802630389E+01  0.00000000000E+00 0. -1.
         11    1    3    3    0    0 -0.41408886593E+01  0.14290161639E+00  0.80837791537E+01  0.90837693402E+01  0.51100000000E-03 0. -1.
        -11    1    3    3    0    0  0.36827161511E+02 -0.47386287806E+00  0.15423039614E+02  0.39929118725E+02  0.51100000000E-03 0.  1.
         12    1    3    3    0    0 -0.33074727295E+02 -0.52973733329E+00 -0.24214859667E+02  0.40994848896E+02  0.00000000000E+00 0. -1.
</event>
<event>
 7    1  0.2490895E-015  0.9000786E+02  0.7816164E-02  0.1186339E+00
        -11   -1    0    0    0    0  0.00000000000E+00  0.00000000000E+00  0.45593999997E+02  0.45594000000E+02  0.51100000000E-03 0.  1.
         11   -1    0    0    0    0 -0.00000000000E+00 -0.00000000000E+00 -0.45593999997E+02  0.45594000000E+02  0.51100000000E-03 0. -1.
    9900012    2    1    2    0    0  0.82364408151E+00 -0.15026258545E+00 -0.83171605259E+00  0.90007864410E+02  0.90000127421E+02 0.  0.
         12    1    1    2    0    0 -0.82364408151E+00  0.15026258545E+00  0.83171605259E+00  0.11801355896E+01  0.00000000000E+00 0. -1.
         11    1    3    3    0    0 -0.28873942121E+01 -0.57257994845E+01  0.87061358907E+01  0.10812891726E+02  0.51100000000E-03 0. -1.
        -11    1    3    3    0    0  0.13170265242E+02  0.19162173140E+02  0.29047782656E+02  0.37207773966E+02  0.51100000000E-03 0.  1.
         12    1    3    3    0    0 -0.94592269483E+01 -0.13586636241E+02 -0.38585634599E+02  0.41987198719E+02  0.00000000000E+00 0. -1.
</event>
<event>
 7    1  0.2490895E-015  0.9000778E+02  0.7816164E-02  0.1186339E+00
        -11   -1    0    0    0    0  0.00000000000E+00  0.00000000000E+00  0.45593999997E+02  0.45594000000E+02  0.51100000000E-03 0. -1.
         11   -1    0    0    0    0 -0.00000000000E+00 -0.00000000000E+00 -0.45593999997E+02  0.45594000000E+02  0.51100000000E-03 0.  1.
    9900012    2    1    2    0    0 -0.77419056420E-01 -0.45372564647E+00 -0.10867694195E+01  0.90007776104E+02  0.90000037949E+02 0.  0.
         12    1    1    2    0    0  0.77419056420E-01  0.45372564647E+00  0.10867694195E+01  0.11802238956E+01  0.00000000000E+00 0. -1.
         11    1    3    3    0    0  0.31582219942E+02 -0.21020692300E+02 -0.51268032635E+01  0.38283028005E+02  0.51100000000E-03 0. -1.
        -11    1    3    3    0    0  0.53680883343E+01  0.28540527004E+01  0.84852195748E+01  0.10438435739E+02  0.51100000000E-03 0.  1.
        -12    1    3    3    0    0 -0.37027727333E+02  0.17712913954E+02 -0.44451857308E+01  0.41286312361E+02  0.00000000000E+00 0.  1.
</event>
<event>
 7    1  0.2490895E-015  0.9000775E+02  0.7816164E-02  0.1186339E+00
        -11   -1    0    0    0    0  0.00000000000E+00  0.00000000000E+00  0.45593999997E+02  0.45594000000E+02  0.51100000000E-03 0. -1.
         11   -1    0    0    0    0 -0.00000000000E+00 -0.00000000000E+00 -0.45593999997E+02  0.45594000000E+02  0.51100000000E-03 0.  1.
    9900012    2    1    2    0    0  0.54962821171E+00 -0.87888209172E+00 -0.56432998884E+00  0.90007748654E+02  0.90000010137E+02 0.  0.
         12    1    1    2    0    0 -0.54962821171E+00  0.87888209172E+00  0.56432998884E+00  0.11802513455E+01  0.00000000000E+00 0. -1.
         11    1    3    3    0    0 -0.17154646347E+01  0.73037987133E+01  0.61948770740E+01  0.97295835872E+01  0.51100000000E-03 0. -1.
        -11    1    3    3    0    0 -0.31296737850E+02  0.73854162137E+01 -0.23341851413E+02  0.39735024857E+02  0.51100000000E-03 0.  1.
         12    1    3    3    0    0  0.33561830697E+02 -0.15568097019E+02  0.16582644350E+02  0.40543140211E+02  0.00000000000E+00 0. -1.
</event>
<event>
 7    1  0.2490895E-015  0.9000770E+02  0.7816164E-02  0.1186339E+00
        -11   -1    0    0    0    0  0.00000000000E+00  0.00000000000E+00  0.45593999997E+02  0.45594000000E+02  0.51100000000E-03 0.  1.
         11   -1    0    0    0    0 -0.00000000000E+00 -0.00000000000E+00 -0.45593999997E+02  0.45594000000E+02  0.51100000000E-03 0. -1.
    9900012    2    1    2    0    0 -0.93713437543E+00  0.68848646865E+00  0.20217348292E+00  0.90007699796E+02  0.89999960633E+02 0.  0.
         12    1    1    2    0    0  0.93713437543E+00 -0.68848646865E+00 -0.20217348292E+00  0.11803002043E+01  0.00000000000E+00 0. -1.
         11    1    3    3    0    0  0.32887533519E+01 -0.90979947706E+00 -0.29414239690E+02  0.29611503347E+02  0.51100000000E-03 0. -1.
        -11    1    3    3    0    0 -0.85536503621E+01 -0.16564240487E+01 -0.13975707276E+02  0.16469033647E+02  0.51100000000E-03 0.  1.
        -12    1    3    3    0    0  0.43277626348E+01  0.32547099944E+01  0.43592120449E+02  0.43927162801E+02  0.00000000000E+00 0.  1.
</event>
<event>
 7    1  0.2490895E-015  0.9000766E+02  0.7816164E-02  0.1186339E+00
        -11   -1    0    0    0    0  0.00000000000E+00  0.00000000000E+00  0.45593999997E+02  0.45594000000E+02  0.51100000000E-03 0.  1.
         11   -1    0    0    0    0 -0.00000000000E+00 -0.00000000000E+00 -0.45593999997E+02  0.45594000000E+02  0.51100000000E-03 0. -1.
    9900012    2    1    2    0    0 -0.67296283675E-01  0.57639760938E+00  0.10278380780E+01  0.90007655089E+02  0.89999915336E+02 0.  0.
         12    1    1    2    0    0  0.67296283675E-01 -0.57639760938E+00 -0.10278380780E+01  0.11803449108E+01  0.00000000000E+00 0. -1.
         11    1    3    3    0    0 -0.33643172960E+01 -0.66449850047E+01  0.56966147638E+01  0.93768798974E+01  0.51100000000E-03 0. -1.
        -11    1    3    3    0    0 -0.29216512173E+02 -0.21574242028E+02 -0.75808168469E+01  0.37101499794E+02  0.51100000000E-03 0.  1.
         12    1    3    3    0    0  0.32513533185E+02  0.28795624642E+02  0.29120401610E+01  0.43529275398E+02  0.00000000000E+00 0. -1.
</event>
<event>
 7    1  0.2490895E-015  0.9000753E+02  0.7816164E-02  0.1186339E+00
        -11   -1    0    0    0    0  0.00000000000E+00  0.00000000000E+00  0.45593999997E+02  0.45594000000E+02  0.51100000000E-03 0.  1.
         11   -1    0    0    0    0 -0.00000000000E+00 -0.00000000000E+00 -0.45593999997E+02  0.45594000000E+02  0.51100000000E-03 0. -1.
    9900012    2    1    2    0    0  0.78963300266E+00 -0.37682384109E+00  0.79245936632E+00  0.90007530461E+02  0.89999789062E+02 0.  0.
         12    1    1    2    0    0 -0.78963300266E+00  0.37682384109E+00 -0.79245936632E+00  0.11804695394E+01  0.00000000000E+00 0. -1.
         11    1    3    3    0    0  0.11772582650E+01 -0.35269190626E+02  0.10503011931E+02  0.36818677385E+02  0.51100000000E-03 0. -1.
        -11    1    3    3    0    0  0.42003165588E+01 -0.76353234689E+01 -0.52712850857E+01  0.10184658580E+02  0.51100000000E-03 0.  1.
        -12    1    3    3    0    0 -0.45879418211E+01  0.42527690254E+02 -0.44392674792E+01  0.43004194496E+02  0.00000000000E+00 0.  1.
</event>
<event>
 7    1  0.2490895E-015  0.9000785E+02  0.7816164E-02  0.1186339E+00
        -11   -1    0    0    0    0  0.00000000000E+00  0.00000000000E+00  0.45593999997E+02  0.45594000000E+02  0.51100000000E-03 0.  1.
         11   -1    0    0    0    0 -0.00000000000E+00 -0.00000000000E+00 -0.45593999997E+02  0.45594000000E+02  0.51100000000E-03 0. -1.
    9900012    2    1    2    0    0  0.22988703754E+00 -0.32148660805E-01  0.11570939239E+01  0.90007852579E+02  0.90000115433E+02 0.  0.
         12    1    1    2    0    0 -0.22988703754E+00  0.32148660805E-01 -0.11570939239E+01  0.11801474209E+01  0.00000000000E+00 0. -1.
         11    1    3    3    0    0  0.20591391125E+02 -0.33808580072E+02  0.11125160883E+02  0.41119273825E+02  0.51100000000E-03 0. -1.
        -11    1    3    3    0    0 -0.26507493528E+01 -0.34525641183E+01 -0.60815288939E+01  0.74787475603E+01  0.51100000000E-03 0.  1.
        -12    1    3    3    0    0 -0.17710754735E+02  0.37228995529E+02 -0.38865380655E+01  0.41409831194E+02  0.00000000000E+00 0.  1.
</event>
<event>
 7    1  0.2490895E-015  0.9000780E+02  0.7816164E-02  0.1186339E+00
        -11   -1    0    0    0    0  0.00000000000E+00  0.00000000000E+00  0.45593999997E+02  0.45594000000E+02  0.51100000000E-03 0.  1.
         11   -1    0    0    0    0 -0.00000000000E+00 -0.00000000000E+00 -0.45593999997E+02  0.45594000000E+02  0.51100000000E-03 0. -1.
    9900012    2    1    2    0    0  0.48903194450E+00 -0.10721586857E+01 -0.64808588095E-01  0.90007798050E+02  0.90000060184E+02 0.  0.
         12    1    1    2    0    0 -0.48903194450E+00  0.10721586857E+01  0.64808588095E-01  0.11802019501E+01  0.00000000000E+00 0. -1.
         11    1    3    3    0    0 -0.39244196778E+02 -0.24097583941E+01  0.16104989116E+02  0.42488640729E+02  0.51100000000E-03 0. -1.
        -11    1    3    3    0    0  0.43059269918E+01  0.71800206975E+01 -0.63322193717E+00  0.83961106924E+01  0.51100000000E-03 0.  1.
        -12    1    3    3    0    0  0.35427301731E+02 -0.58424209891E+01 -0.15536575767E+02  0.39123046629E+02  0.00000000000E+00 0.  1.
</event>
<event>
 7    1  0.2490895E-015  0.9000891E+02  0.7816164E-02  0.1186337E+00
        -11   -1    0    0    0    0  0.00000000000E+00  0.00000000000E+00  0.45593999997E+02  0.45594000000E+02  0.51100000000E-03 0.  1.
         11   -1    0    0    0    0 -0.00000000000E+00 -0.00000000000E+00 -0.45593999997E+02  0.45594000000E+02  0.51100000000E-03 0. -1.
    9900012    2    1    2    0    0  0.35072735617E+00  0.96840311978E+00 -0.57395852662E+00  0.90008914477E+02  0.90001191340E+02 0.  0.
         12    1    1    2    0    0 -0.35072735617E+00 -0.96840311978E+00  0.57395852662E+00  0.11790855232E+01  0.00000000000E+00 0. -1.
         11    1    3    3    0    0 -0.15541947159E+02  0.31906555782E+02 -0.43355517998E+00  0.35493216164E+02  0.51100000000E-03 0. -1.
        -11    1    3    3    0    0  0.91794322118E+01  0.69909258510E+01  0.93430881847E+01  0.14846828519E+02  0.51100000000E-03 0.  1.
        -12    1    3    3    0    0  0.67132423032E+01 -0.37929078513E+02 -0.94834915314E+01  0.39668869793E+02  0.00000000000E+00 0.  1.
</event>
<event>
 7    1  0.2490895E-015  0.9000774E+02  0.7816164E-02  0.1186339E+00
        -11   -1    0    0    0    0  0.00000000000E+00  0.00000000000E+00  0.45593999997E+02  0.45594000000E+02  0.51100000000E-03 0. -1.
         11   -1    0    0    0    0 -0.00000000000E+00 -0.00000000000E+00 -0.45593999997E+02  0.45594000000E+02  0.51100000000E-03 0.  1.
    9900012    2    1    2    0    0  0.89485857676E+00 -0.36752562806E+00 -0.67614216891E+00  0.90007739354E+02  0.90000000714E+02 0.  0.
         12    1    1    2    0    0 -0.89485857676E+00  0.36752562806E+00  0.67614216891E+00  0.11802606459E+01  0.00000000000E+00 0. -1.
         11    1    3    3    0    0  0.31695892196E+02 -0.23841725056E+02 -0.73097424977E+01  0.40329762848E+02  0.51100000000E-03 0. -1.
        -11    1    3    3    0    0 -0.32852631230E+00  0.24976744270E+01 -0.91254813067E+01  0.94668218754E+01  0.51100000000E-03 0.  1.
        -12    1    3    3    0    0 -0.30472507307E+02  0.20976525001E+02  0.15759081635E+02  0.40211154630E+02  0.00000000000E+00 0.  1.
</event>
<event>
 7    1  0.2490895E-015  0.9000792E+02  0.7816164E-02  0.1186339E+00
        -11   -1    0    0    0    0  0.00000000000E+00  0.00000000000E+00  0.45593999997E+02  0.45594000000E+02  0.51100000000E-03 0. -1.
         11   -1    0    0    0    0 -0.00000000000E+00 -0.00000000000E+00 -0.45593999997E+02  0.45594000000E+02  0.51100000000E-03 0.  1.
    9900012    2    1    2    0    0  0.83752632507E+00 -0.77996630045E+00 -0.28773616441E+00  0.90007919547E+02  0.90000183285E+02 0.  0.
         12    1    1    2    0    0 -0.83752632507E+00  0.77996630045E+00  0.28773616441E+00  0.11800804529E+01  0.00000000000E+00 0. -1.
         11    1    3    3    0    0  0.95505756679E+01  0.18778393147E+02  0.37199507437E+02  0.42750963715E+02  0.51100000000E-03 0. -1.
        -11    1    3    3    0    0  0.56917522742E+01 -0.21174423972E+01 -0.94386440165E+01  0.11223529186E+02  0.51100000000E-03 0.  1.
        -12    1    3    3    0    0 -0.14404801617E+02 -0.17440917051E+02 -0.28048599585E+02  0.36033426646E+02  0.00000000000E+00 0.  1.
</event>
<event>
 7    1  0.2490895E-015  0.9000777E+02  0.7816164E-02  0.1186339E+00
        -11   -1    0    0    0    0  0.00000000000E+00  0.00000000000E+00  0.45593999997E+02  0.45594000000E+02  0.51100000000E-03 0.  1.
         11   -1    0    0    0    0 -0.00000000000E+00 -0.00000000000E+00 -0.45593999997E+02  0.45594000000E+02  0.51100000000E-03 0. -1.
    9900012    2    1    2    0    0  0.87335339915E+00 -0.77934194901E+00 -0.15107122995E+00  0.90007770128E+02  0.90000031894E+02 0.  0.
         12    1    1    2    0    0 -0.87335339915E+00  0.77934194901E+00  0.15107122995E+00  0.11802298716E+01  0.00000000000E+00 0. -1.
         11    1    3    3    0    0  0.46798735619E+01  0.18825427113E+01  0.84837364344E+01  0.98701047494E+01  0.51100000000E-03 0. -1.
        -11    1    3    3    0    0 -0.15514563015E+02  0.15961650525E+02  0.28992436214E+02  0.36551844152E+02  0.51100000000E-03 0.  1.
         12    1    3    3    0    0  0.11708042852E+02 -0.18623535185E+02 -0.37627243878E+02  0.43585821227E+02  0.00000000000E+00 0. -1.
</event>
<event>
 7    1  0.2490895E-015  0.9000781E+02  0.7816164E-02  0.1186339E+00
        -11   -1    0    0    0    0  0.00000000000E+00  0.00000000000E+00  0.45593999997E+02  0.45594000000E+02  0.51100000000E-03 0. -1.
         11   -1    0    0    0    0 -0.00000000000E+00 -0.00000000000E+00 -0.45593999997E+02  0.45594000000E+02  0.51100000000E-03 0.  1.
    9900012    2    1    2    0    0  0.95300958605E+00 -0.32530373652E+00  0.61546600275E+00  0.90007810103E+02  0.90000072396E+02 0.  0.
         12    1    1    2    0    0 -0.95300958605E+00  0.32530373652E+00 -0.61546600275E+00  0.11801898969E+01  0.00000000000E+00 0. -1.
         11    1    3    3    0    0 -0.33469101492E+02  0.69721655577E+01 -0.63444543063E+01  0.34771309264E+02  0.51100000000E-03 0. -1.
        -11    1    3    3    0    0 -0.60450416347E+01  0.85568259925E+01  0.53042116016E+01  0.11742932360E+02  0.51100000000E-03 0.  1.
        -12    1    3    3    0    0  0.40467152713E+02 -0.15854295287E+02  0.16557087075E+01  0.43493568479E+02  0.00000000000E+00 0.  1.
</event>
<event>
 7    1  0.2490895E-015  0.9000741E+02  0.7816164E-02  0.1186340E+00
        -11   -1    0    0    0    0  0.00000000000E+00  0.00000000000E+00  0.45593999997E+02  0.45594000000E+02  0.51100000000E-03 0.  1.
         11   -1    0    0    0    0 -0.00000000000E+00 -0.00000000000E+00 -0.45593999997E+02  0.45594000000E+02  0.51100000000E-03 0. -1.
    9900012    2    1    2    0    0  0.67544615058E+00 -0.19079634688E+00  0.94929743709E+00  0.90007408465E+02  0.89999665456E+02 0.  0.
         12    1    1    2    0    0 -0.67544615058E+00  0.19079634688E+00 -0.94929743709E+00  0.11805915349E+01  0.00000000000E+00 0. -1.
         11    1    3    3    0    0 -0.28445243525E+00  0.91921996327E+01  0.19176019264E+01  0.93943943224E+01  0.51100000000E-03 0. -1.
        -11    1    3    3    0    0 -0.33058572278E+02  0.16315152375E+02  0.61927740804E+01  0.37381865245E+02  0.51100000000E-03 0.  1.
         12    1    3    3    0    0  0.34018470864E+02 -0.25698148354E+02 -0.71610785697E+01  0.43231148898E+02  0.00000000000E+00 0. -1.
</event>
<event>
 7    1  0.2490895E-015  0.9000762E+02  0.7816164E-02  0.1186339E+00
        -11   -1    0    0    0    0  0.00000000000E+00  0.00000000000E+00  0.45593999997E+02  0.45594000000E+02  0.51100000000E-03 0. -1.
         11   -1    0    0    0    0 -0.00000000000E+00 -0.00000000000E+00 -0.45593999997E+02  0.45594000000E+02  0.51100000000E-03 0.  1.
    9900012    2    1    2    0    0 -0.10152530307E+01 -0.39790755963E+00 -0.45190757523E+00  0.90007623111E+02  0.89999882936E+02 0.  0.
         12    1    1    2    0    0  0.10152530307E+01  0.39790755963E+00  0.45190757523E+00  0.11803768885E+01  0.00000000000E+00 0. -1.
         11    1    3    3    0    0  0.27485647346E+02 -0.21106099514E+02 -0.92576688552E+01  0.35869662385E+02  0.51100000000E-03 0. -1.
        -11    1    3    3    0    0  0.86760911181E+01 -0.13042945996E+01  0.64114913292E+01  0.10866598493E+02  0.51100000000E-03 0.  1.
        -12    1    3    3    0    0 -0.37176991495E+02  0.22012486554E+02  0.23942699508E+01  0.43271362233E+02  0.00000000000E+00 0.  1.
</event>
<event>
 7    1  0.2490895E-015  0.9000819E+02  0.7816164E-02  0.1186338E+00
        -11   -1    0    0    0    0  0.00000000000E+00  0.00000000000E+00  0.45593999997E+02  0.45594000000E+02  0.51100000000E-03 0.  1.
         11   -1    0    0    0    0 -0.00000000000E+00 -0.00000000000E+00 -0.45593999997E+02  0.45594000000E+02  0.51100000000E-03 0. -1.
    9900012    2    1    2    0    0 -0.24932145209E+00 -0.55742961126E-01  0.11518207380E+01  0.90008186677E+02  0.90000453940E+02 0.  0.
         12    1    1    2    0    0  0.24932145209E+00  0.55742961126E-01 -0.11518207380E+01  0.11798133228E+01  0.00000000000E+00 0. -1.
         11    1    3    3    0    0 -0.73198723652E+01  0.19941599238E+02 -0.11946810578E+01  0.21276164474E+02  0.51100000000E-03 0. -1.
        -11    1    3    3    0    0  0.96634054003E+01  0.31618935832E+01  0.30520238803E+02  0.32169301388E+02  0.51100000000E-03 0.  1.
         12    1    3    3    0    0 -0.25928544871E+01 -0.23159235783E+02 -0.28173737007E+02  0.36562720815E+02  0.00000000000E+00 0. -1.
</event>
<event>
 7    1  0.2490895E-015  0.9000770E+02  0.7816164E-02  0.1186339E+00
        -11   -1    0    0    0    0  0.00000000000E+00  0.00000000000E+00  0.45593999997E+02  0.45594000000E+02  0.51100000000E-03 0.  1.
         11   -1    0    0    0    0 -0.00000000000E+00 -0.00000000000E+00 -0.45593999997E+02  0.45594000000E+02  0.51100000000E-03 0. -1.
    9900012    2    1    2    0    0 -0.51588792888E+00 -0.46107735400E+00  0.95623426974E+00  0.90007696370E+02  0.89999957162E+02 0.  0.
         12    1    1    2    0    0  0.51588792888E+00  0.46107735400E+00 -0.95623426974E+00  0.11803036305E+01  0.00000000000E+00 0. -1.
         11    1    3    3    0    0 -0.19770851876E+02 -0.34675014026E+02  0.10277121530E+01  0.39928678592E+02  0.51100000000E-03 0. -1.
        -11    1    3    3    0    0  0.57020421896E+01 -0.41985535016E+01 -0.55260838813E+01  0.89821344881E+01  0.51100000000E-03 0.  1.
        -12    1    3    3    0    0  0.13552921757E+02  0.38412490174E+02  0.54546059980E+01  0.41096883289E+02  0.00000000000E+00 0.  1.
</event>
<event>
 7    1  0.2490895E-015  0.9000787E+02  0.7816164E-02  0.1186339E+00
        -11   -1    0    0    0    0  0.00000000000E+00  0.00000000000E+00  0.45593999997E+02  0.45594000000E+02  0.51100000000E-03 0.  1.
         11   -1    0    0    0    0 -0.00000000000E+00 -0.00000000000E+00 -0.45593999997E+02  0.45594000000E+02  0.51100000000E-03 0. -1.
    9900012    2    1    2    0    0 -0.11492613425E+01  0.17606788160E+00  0.20224208567E+00  0.90007871450E+02  0.90000134553E+02 0.  0.
         12    1    1    2    0    0  0.11492613425E+01 -0.17606788160E+00 -0.20224208567E+00  0.11801285496E+01  0.00000000000E+00 0. -1.
         11    1    3    3    0    0 -0.29485469680E+01 -0.89438836321E+01  0.87851719362E+00  0.94582649766E+01  0.51100000000E-03 0. -1.
        -11    1    3    3    0    0  0.21864921486E+02  0.10065383703E+02  0.33294364605E+02  0.41084077882E+02  0.51100000000E-03 0.  1.
         12    1    3    3    0    0 -0.20065635861E+02 -0.94543218898E+00 -0.33970639713E+02  0.39465528592E+02  0.00000000000E+00 0. -1.
</event>
<event>
 7    1  0.2490895E-015  0.9000774E+02  0.7816164E-02  0.1186339E+00
        -11   -1    0    0    0    0  0.00000000000E+00  0.00000000000E+00  0.45593999997E+02  0.45594000000E+02  0.51100000000E-03 0. -1.
         11   -1    0    0    0    0 -0.00000000000E+00 -0.00000000000E+00 -0.45593999997E+02  0.45594000000E+02  0.51100000000E-03 0.  1.
    9900012    2    1    2    0    0  0.10909606226E+01 -0.44853294212E+00  0.40584271712E-01  0.90007735638E+02  0.89999996949E+02 0.  0.
         12    1    1    2    0    0 -0.10909606226E+01  0.44853294212E+00 -0.40584271712E-01  0.11802643617E+01  0.00000000000E+00 0. -1.
         11    1    3    3    0    0 -0.25132583213E+02 -0.22478948412E+01  0.27342565723E+02  0.37206392875E+02  0.51100000000E-03 0. -1.
        -11    1    3    3    0    0  0.40419607190E+01  0.73878297502E+00  0.91994936713E+01  0.10075412190E+02  0.51100000000E-03 0.  1.
        -12    1    3    3    0    0  0.22181583117E+02  0.10605789241E+01 -0.36501475122E+02  0.42725930573E+02  0.00000000000E+00 0.  1.
</event>
<event>
 7    1  0.2490895E-015  0.9000776E+02  0.7816164E-02  0.1186339E+00
        -11   -1    0    0    0    0  0.00000000000E+00  0.00000000000E+00  0.45593999997E+02  0.45594000000E+02  0.51100000000E-03 0. -1.
         11   -1    0    0    0    0 -0.00000000000E+00 -0.00000000000E+00 -0.45593999997E+02  0.45594000000E+02  0.51100000000E-03 0.  1.
    9900012    2    1    2    0    0 -0.95707324326E+00  0.27518761461E+00 -0.63343773360E+00  0.90007762406E+02  0.90000024070E+02 0.  0.
         12    1    1    2    0    0  0.95707324326E+00 -0.27518761461E+00  0.63343773360E+00  0.11802375941E+01  0.00000000000E+00 0. -1.
         11    1    3    3    0    0  0.17197336697E+01  0.75616911827E+01 -0.17446080552E+01  0.79486045923E+01  0.51100000000E-03 0. -1.
        -11    1    3    3    0    0 -0.22160349635E+02  0.18297576822E+02 -0.26936113957E+02  0.39388280604E+02  0.51100000000E-03 0.  1.
         12    1    3    3    0    0  0.19483542722E+02 -0.25584080390E+02  0.28047284279E+02  0.42670877210E+02  0.00000000000E+00 0. -1.
</event>
<event>
 7    1  0.2490895E-015  0.9000759E+02  0.7816164E-02  0.1186339E+00
        -11   -1    0    0    0    0  0.00000000000E+00  0.00000000000E+00  0.45593999997E+02  0.45594000000E+02  0.51100000000E-03 0.  1.
         11   -1    0    0    0    0 -0.00000000000E+00 -0.00000000000E+00 -0.45593999997E+02  0.45594000000E+02  0.51100000000E-03 0. -1.
    9900012    2    1    2    0    0  0.52860522385E-01 -0.11652781420E+01 -0.18080244766E+00  0.90007594600E+02  0.89999854049E+02 0.  0.
         12    1    1    2    0    0 -0.52860522385E-01  0.11652781420E+01  0.18080244766E+00  0.11804053999E+01  0.00000000000E+00 0. -1.
         11    1    3    3    0    0 -0.76384173528E+01 -0.33893261080E+01  0.86371606487E+01  0.12018048737E+02  0.51100000000E-03 0. -1.
        -11    1    3    3    0    0 -0.20164627032E+02 -0.15597320750E+02  0.21331049372E+02  0.33240070179E+02  0.51100000000E-03 0.  1.
         12    1    3    3    0    0  0.27855904908E+02  0.17821368716E+02 -0.30149012469E+02  0.44749475684E+02  0.00000000000E+00 0. -1.
</event>
<event>
 7    1  0.2490895E-015  0.9000774E+02  0.7816164E-02  0.1186339E+00
        -11   -1    0    0    0    0  0.00000000000E+00  0.00000000000E+00  0.45593999997E+02  0.45594000000E+02  0.51100000000E-03 0.  1.
         11   -1    0    0    0    0 -0.00000000000E+00 -0.00000000000E+00 -0.45593999997E+02  0.45594000000E+02  0.51100000000E-03 0. -1.
    9900012    2    1    2    0    0  0.61040722663E+00 -0.93571122042E+00  0.38059442087E+00  0.90007743848E+02  0.90000005267E+02 0.  0.
         12    1    1    2    0    0 -0.61040722663E+00  0.93571122042E+00 -0.38059442087E+00  0.11802561517E+01  0.00000000000E+00 0. -1.
         11    1    3    3    0    0  0.50920127348E+01  0.38677519783E+01  0.72251827563E+01  0.96483866621E+01  0.51100000000E-03 0. -1.
        -11    1    3    3    0    0  0.15012433088E+02 -0.15592759260E+02  0.30184939112E+02  0.37143476386E+02  0.51100000000E-03 0.  1.
         12    1    3    3    0    0 -0.19494038597E+02  0.10789296062E+02 -0.37029527448E+02  0.43215880800E+02  0.00000000000E+00 0. -1.
</event>
<event>
 7    1  0.2490895E-015  0.9000791E+02  0.7816164E-02  0.1186339E+00
        -11   -1    0    0    0    0  0.00000000000E+00  0.00000000000E+00  0.45593999997E+02  0.45594000000E+02  0.51100000000E-03 0. -1.
         11   -1    0    0    0    0 -0.00000000000E+00 -0.00000000000E+00 -0.45593999997E+02  0.45594000000E+02  0.51100000000E-03 0.  1.
    9900012    2    1    2    0    0  0.35113007797E+00 -0.46844120900E+00 -0.10246368171E+01  0.90007910976E+02  0.90000174601E+02 0.  0.
         12    1    1    2    0    0 -0.35113007797E+00  0.46844120900E+00  0.10246368171E+01  0.11800890241E+01  0.00000000000E+00 0. -1.
         11    1    3    3    0    0  0.32324707551E+02 -0.20657223554E+02 -0.30553144265E+01  0.38483016380E+02  0.51100000000E-03 0. -1.
        -11    1    3    3    0    0 -0.26499499572E+01 -0.89843788681E+01  0.38356188919E+01  0.10121920320E+02  0.51100000000E-03 0.  1.
        -12    1    3    3    0    0 -0.29323627515E+02  0.29173161213E+02 -0.18049412824E+01  0.41402974276E+02  0.00000000000E+00 0.  1.
</event>
<event>
 7    1  0.2490895E-015  0.9000755E+02  0.7816164E-02  0.1186339E+00
        -11   -1    0    0    0    0  0.00000000000E+00  0.00000000000E+00  0.45593999997E+02  0.45594000000E+02  0.51100000000E-03 0.  1.
         11   -1    0    0    0    0 -0.00000000000E+00 -0.00000000000E+00 -0.45593999997E+02  0.45594000000E+02  0.51100000000E-03 0. -1.
    9900012    2    1    2    0    0 -0.51599493492E+00 -0.11709696145E+00 -0.10552258455E+01  0.90007549215E+02  0.89999808064E+02 0.  0.
         12    1    1    2    0    0  0.51599493492E+00  0.11709696145E+00  0.10552258455E+01  0.11804507852E+01  0.00000000000E+00 0. -1.
         11    1    3    3    0    0  0.18976163645E+02 -0.59337908310E+01 -0.26560002897E+02  0.33177378053E+02  0.51100000000E-03 0. -1.
        -11    1    3    3    0    0  0.94613756804E+01 -0.32713167843E+00 -0.78054137447E+01  0.12269846327E+02  0.51100000000E-03 0.  1.
        -12    1    3    3    0    0 -0.28953534260E+02  0.61438255480E+01  0.33310190797E+02  0.44560324835E+02  0.00000000000E+00 0.  1.
</event>
<event>
 7    1  0.2490895E-015  0.9000777E+02  0.7816164E-02  0.1186339E+00
        -11   -1    0    0    0    0  0.00000000000E+00  0.00000000000E+00  0.45593999997E+02  0.45594000000E+02  0.51100000000E-03 0.  1.
         11   -1    0    0    0    0 -0.00000000000E+00 -0.00000000000E+00 -0.45593999997E+02  0.45594000000E+02  0.51100000000E-03 0. -1.
    9900012    2    1    2    0    0 -0.34054425255E+00 -0.80439386295E+00  0.79368295520E+00  0.90007765910E+02  0.90000027620E+02 0.  0.
         12    1    1    2    0    0  0.34054425255E+00  0.80439386295E+00 -0.79368295520E+00  0.11802340904E+01  0.00000000000E+00 0. -1.
         11    1    3    3    0    0  0.12744916839E+01 -0.22976983167E+02 -0.28629935179E+02  0.36731992502E+02  0.51100000000E-03 0. -1.
        -11    1    3    3    0    0  0.13319039767E+01 -0.68759966678E+01 -0.46474565012E+01  0.84054833633E+01  0.51100000000E-03 0.  1.
        -12    1    3    3    0    0 -0.29469399132E+01  0.29048585972E+02  0.34071074636E+02  0.44870290044E+02  0.00000000000E+00 0.  1.
</event>
<event>
 7    1  0.2490895E-015  0.9000771E+02  0.7816164E-02  0.1186339E+00
        -11   -1    0    0    0    0  0.00000000000E+00  0.00000000000E+00  0.45593999997E+02  0.45594000000E+02  0.51100000000E-03 0. -1.
         11   -1    0    0    0    0 -0.00000000000E+00 -0.00000000000E+00 -0.45593999997E+02  0.45594000000E+02  0.51100000000E-03 0.  1.
    9900012    2    1    2    0    0  0.77112585064E+00 -0.25305222327E+00  0.85697427612E+00  0.90007713842E+02  0.89999974865E+02 0.  0.
         12    1    1    2    0    0 -0.77112585064E+00  0.25305222327E+00 -0.85697427612E+00  0.11802861582E+01  0.00000000000E+00 0. -1.
         11    1    3    3    0    0 -0.10924086734E+02  0.27686532930E+02 -0.26416149323E+02  0.39795636971E+02  0.51100000000E-03 0. -1.
        -11    1    3    3    0    0 -0.21707730704E+01 -0.55524643675E+01 -0.55403550000E+01  0.81386516121E+01  0.51100000000E-03 0.  1.
        -12    1    3    3    0    0  0.13865985655E+02 -0.22387120785E+02  0.32813478599E+02  0.42073425259E+02  0.00000000000E+00 0.  1.
</event>
<event>
 7    1  0.2490895E-015  0.9000771E+02  0.7816164E-02  0.1186339E+00
        -11   -1    0    0    0    0  0.00000000000E+00  0.00000000000E+00  0.45593999997E+02  0.45594000000E+02  0.51100000000E-03 0.  1.
         11   -1    0    0    0    0 -0.00000000000E+00 -0.00000000000E+00 -0.45593999997E+02  0.45594000000E+02  0.51100000000E-03 0. -1.
    9900012    2    1    2    0    0 -0.86555210467E+00  0.26508517834E+00  0.75737908851E+00  0.90007714576E+02  0.89999975609E+02 0.  0.
         12    1    1    2    0    0  0.86555210467E+00 -0.26508517834E+00 -0.75737908851E+00  0.11802854237E+01  0.00000000000E+00 0. -1.
         11    1    3    3    0    0 -0.39387634556E+01  0.30714951231E+01 -0.57658360729E+01  0.76284209199E+01  0.51100000000E-03 0. -1.
        -11    1    3    3    0    0 -0.12277799528E+02  0.33089179532E+02  0.20615466131E+02  0.40873409540E+02  0.51100000000E-03 0.  1.
         12    1    3    3    0    0  0.15351010879E+02 -0.35895589477E+02 -0.14092250969E+02  0.41505884116E+02  0.00000000000E+00 0. -1.
</event>
<event>
 7    1  0.2490895E-015  0.9000752E+02  0.7816164E-02  0.1186339E+00
        -11   -1    0    0    0    0  0.00000000000E+00  0.00000000000E+00  0.45593999997E+02  0.45594000000E+02  0.51100000000E-03 0.  1.
         11   -1    0    0    0    0 -0.00000000000E+00 -0.00000000000E+00 -0.45593999997E+02  0.45594000000E+02  0.51100000000E-03 0. -1.
    9900012    2    1    2    0    0 -0.47676805812E+00  0.78246952539E+00  0.74429009448E+00  0.90007519554E+02  0.89999778012E+02 0.  0.
         12    1    1    2    0    0  0.47676805812E+00 -0.78246952539E+00 -0.74429009448E+00  0.11804804463E+01  0.00000000000E+00 0. -1.
         11    1    3    3    0    0 -0.65706180363E+01 -0.28730253576E+00 -0.21184304116E+02  0.22181756135E+02  0.51100000000E-03 0. -1.
        -11    1    3    3    0    0 -0.11698468627E+02  0.26417395443E+02 -0.15951153948E+01  0.28935745084E+02  0.51100000000E-03 0.  1.
        -12    1    3    3    0    0  0.17792318605E+02 -0.25347623382E+02  0.23523709605E+02  0.38890018334E+02  0.00000000000E+00 0.  1.
</event>
<event>
 7    1  0.2490895E-015  0.9000755E+02  0.7816164E-02  0.1186339E+00
        -11   -1    0    0    0    0  0.00000000000E+00  0.00000000000E+00  0.45593999997E+02  0.45594000000E+02  0.51100000000E-03 0. -1.
         11   -1    0    0    0    0 -0.00000000000E+00 -0.00000000000E+00 -0.45593999997E+02  0.45594000000E+02  0.51100000000E-03 0.  1.
    9900012    2    1    2    0    0  0.67850373804E+00  0.38751399723E+00 -0.88483177104E+00  0.90007550220E+02  0.89999809082E+02 0.  0.
         12    1    1    2    0    0 -0.67850373804E+00 -0.38751399723E+00  0.88483177104E+00  0.11804497802E+01  0.00000000000E+00 0. -1.
         11    1    3    3    0    0 -0.13829264892E+02  0.69650345881E+01 -0.93289651083E+01  0.18077330127E+02  0.51100000000E-03 0.  1.
        -11    1    3    3    0    0 -0.20453087052E+02 -0.24653623794E+02  0.25603251336E+01  0.32135419729E+02  0.51100000000E-03 0. -1.
         12    1    3    3    0    0  0.34960855682E+02  0.18076103203E+02  0.58838082037E+01  0.39794800364E+02  0.00000000000E+00 0. -1.
</event>
<event>
 7    1  0.2490895E-015  0.9000772E+02  0.7816164E-02  0.1186339E+00
        -11   -1    0    0    0    0  0.00000000000E+00  0.00000000000E+00  0.45593999997E+02  0.45594000000E+02  0.51100000000E-03 0.  1.
         11   -1    0    0    0    0 -0.00000000000E+00 -0.00000000000E+00 -0.45593999997E+02  0.45594000000E+02  0.51100000000E-03 0. -1.
    9900012    2    1    2    0    0  0.56647926131E+00 -0.99435367381E+00  0.28882601060E+00  0.90007721030E+02  0.89999982148E+02 0.  0.
         12    1    1    2    0    0 -0.56647926131E+00  0.99435367381E+00 -0.28882601060E+00  0.11802789698E+01  0.00000000000E+00 0. -1.
         11    1    3    3    0    0 -0.62239145096E+01 -0.82895644039E+01  0.55538481794E+00  0.10380869057E+02  0.51100000000E-03 0. -1.
        -11    1    3    3    0    0  0.28375229318E+01 -0.14151218383E+02  0.35170781996E+02  0.38017001783E+02  0.51100000000E-03 0.  1.
         12    1    3    3    0    0  0.39528708391E+01  0.21446429113E+02 -0.35437340804E+02  0.41609850190E+02  0.00000000000E+00 0. -1.
</event>
<event>
 7    1  0.2490895E-015  0.9000776E+02  0.7816164E-02  0.1186339E+00
        -11   -1    0    0    0    0  0.00000000000E+00  0.00000000000E+00  0.45593999997E+02  0.45594000000E+02  0.51100000000E-03 0. -1.
         11   -1    0    0    0    0 -0.00000000000E+00 -0.00000000000E+00 -0.45593999997E+02  0.45594000000E+02  0.51100000000E-03 0.  1.
    9900012    2    1    2    0    0  0.12662081397E+00 -0.27921933549E+00 -0.11397269763E+01  0.90007756869E+02  0.90000018460E+02 0.  0.
         12    1    1    2    0    0 -0.12662081397E+00  0.27921933549E+00  0.11397269763E+01  0.11802431310E+01  0.00000000000E+00 0. -1.
         11    1    3    3    0    0  0.54279137483E+01 -0.14210907395E+02 -0.36024943261E+01  0.15632981235E+02  0.51100000000E-03 0. -1.
        -11    1    3    3    0    0 -0.31691243042E+02 -0.51769949192E+01  0.19539663780E+02  0.37589022637E+02  0.51100000000E-03 0.  1.
         12    1    3    3    0    0  0.26389950108E+02  0.19108682979E+02 -0.17076896430E+02  0.36785752997E+02  0.00000000000E+00 0. -1.
</event>
<event>
 7    1  0.2490895E-015  0.9000775E+02  0.7816164E-02  0.1186339E+00
        -11   -1    0    0    0    0  0.00000000000E+00  0.00000000000E+00  0.45593999997E+02  0.45594000000E+02  0.51100000000E-03 0. -1.
         11   -1    0    0    0    0 -0.00000000000E+00 -0.00000000000E+00 -0.45593999997E+02  0.45594000000E+02  0.51100000000E-03 0.  1.
    9900012    2    1    2    0    0 -0.17734447012E+00  0.10382736552E+01  0.53247676986E+00  0.90007748012E+02  0.90000009486E+02 0.  0.
         12    1    1    2    0    0  0.17734447012E+00 -0.10382736552E+01 -0.53247676986E+00  0.11802519878E+01  0.00000000000E+00 0. -1.
         11    1    3    3    0    0  0.11712277411E+02 -0.21192576145E+02  0.36889688457E+02  0.44126543492E+02  0.51100000000E-03 0. -1.
        -11    1    3    3    0    0 -0.38868623618E+01  0.70485978080E+01 -0.34297123280E+01  0.87494775268E+01  0.51100000000E-03 0.  1.
        -12    1    3    3    0    0 -0.80027595189E+01  0.15182251993E+02 -0.32927499359E+02  0.37131726994E+02  0.00000000000E+00 0.  1.
</event>
<event>
 7    1  0.2490895E-015  0.9000780E+02  0.7816164E-02  0.1186339E+00
        -11   -1    0    0    0    0  0.00000000000E+00  0.00000000000E+00  0.45593999997E+02  0.45594000000E+02  0.51100000000E-03 0. -1.
         11   -1    0    0    0    0 -0.00000000000E+00 -0.00000000000E+00 -0.45593999997E+02  0.45594000000E+02  0.51100000000E-03 0.  1.
    9900012    2    1    2    0    0  0.14504428693E+00  0.29764309510E+00 -0.11328073777E+01  0.90007795860E+02  0.90000057965E+02 0.  0.
         12    1    1    2    0    0 -0.14504428693E+00 -0.29764309510E+00  0.11328073777E+01  0.11802041400E+01  0.00000000000E+00 0. -1.
         11    1    3    3    0    0 -0.23434921739E+02  0.92357432867E+01  0.29185107145E+02  0.38552107469E+02  0.51100000000E-03 0. -1.
        -11    1    3    3    0    0 -0.27312511943E+01  0.80075152025E+01 -0.90731951544E+00  0.85090106222E+01  0.51100000000E-03 0.  1.
        -12    1    3    3    0    0  0.26311217220E+02 -0.16945615394E+02 -0.29410595008E+02  0.42946677769E+02  0.00000000000E+00 0.  1.
</event>
<event>
 7    1  0.2490895E-015  0.9000775E+02  0.7816164E-02  0.1186339E+00
        -11   -1    0    0    0    0  0.00000000000E+00  0.00000000000E+00  0.45593999997E+02  0.45594000000E+02  0.51100000000E-03 0. -1.
         11   -1    0    0    0    0 -0.00000000000E+00 -0.00000000000E+00 -0.45593999997E+02  0.45594000000E+02  0.51100000000E-03 0.  1.
    9900012    2    1    2    0    0 -0.55599969176E+00 -0.12753613042E-01 -0.10410084050E+01  0.90007747141E+02  0.90000008603E+02 0.  0.
         12    1    1    2    0    0  0.55599969176E+00  0.12753613042E-01  0.10410084050E+01  0.11802528590E+01  0.00000000000E+00 0. -1.
         11    1    3    3    0    0  0.34259315330E+02 -0.60357800778E+01 -0.79729809507E+01  0.35688930406E+02  0.51100000000E-03 0. -1.
        -11    1    3    3    0    0 -0.10461640689E+02 -0.41347815497E+01 -0.15864618853E+02  0.19448096976E+02  0.51100000000E-03 0.  1.
        -12    1    3    3    0    0 -0.24353674333E+02  0.10157808015E+02  0.22796591399E+02  0.34870719760E+02  0.00000000000E+00 0.  1.
</event>
<event>
 7    1  0.2490895E-015  0.9000782E+02  0.7816164E-02  0.1186339E+00
        -11   -1    0    0    0    0  0.00000000000E+00  0.00000000000E+00  0.45593999997E+02  0.45594000000E+02  0.51100000000E-03 0. -1.
         11   -1    0    0    0    0 -0.00000000000E+00 -0.00000000000E+00 -0.45593999997E+02  0.45594000000E+02  0.51100000000E-03 0.  1.
    9900012    2    1    2    0    0 -0.57158836363E+00  0.58351988721E+00 -0.85183154587E+00  0.90007819633E+02  0.90000082052E+02 0.  0.
         12    1    1    2    0    0  0.57158836363E+00 -0.58351988721E+00  0.85183154587E+00  0.11801803670E+01  0.00000000000E+00 0. -1.
         11    1    3    3    0    0 -0.95383396095E+01  0.25391578860E+01 -0.37830744404E+01  0.10570662125E+02  0.51100000000E-03 0. -1.
        -11    1    3    3    0    0  0.78569091405E+01  0.35986388973E+02 -0.11863663425E+02  0.38697515717E+02  0.51100000000E-03 0.  1.
         12    1    3    3    0    0  0.11098421054E+01 -0.37942026972E+02  0.14794906319E+02  0.40739641791E+02  0.00000000000E+00 0. -1.
</event>
<event>
 7    1  0.2490895E-015  0.9000760E+02  0.7816164E-02  0.1186339E+00
        -11   -1    0    0    0    0  0.00000000000E+00  0.00000000000E+00  0.45593999997E+02  0.45594000000E+02  0.51100000000E-03 0.  1.
         11   -1    0    0    0    0 -0.00000000000E+00 -0.00000000000E+00 -0.45593999997E+02  0.45594000000E+02  0.51100000000E-03 0. -1.
    9900012    2    1    2    0    0  0.26366237503E+00 -0.52583484732E+00  0.10233852527E+01  0.90007602817E+02  0.89999862374E+02 0.  0.
         12    1    1    2    0    0 -0.26366237503E+00  0.52583484732E+00 -0.10233852527E+01  0.11803971832E+01  0.00000000000E+00 0. -1.
         11    1    3    3    0    0 -0.55076046979E+01  0.44450777972E+01  0.29559680512E+01  0.76700830186E+01  0.51100000000E-03 0. -1.
        -11    1    3    3    0    0  0.22286723458E+02  0.31846200182E+02  0.10228148387E+02  0.40193202513E+02  0.51100000000E-03 0.  1.
         12    1    3    3    0    0 -0.16515456385E+02 -0.36817112826E+02 -0.12160731186E+02  0.42144317286E+02  0.00000000000E+00 0. -1.
</event>
<event>
 7    1  0.2745315E-015  0.9000769E+02  0.7816164E-02  0.1186339E+00
        -11   -1    0    0    0    0  0.00000000000E+00  0.00000000000E+00  0.45593999997E+02  0.45594000000E+02  0.51100000000E-03 0. -1.
         11   -1    0    0    0    0 -0.00000000000E+00 -0.00000000000E+00 -0.45593999997E+02  0.45594000000E+02  0.51100000000E-03 0.  1.
    9900012    2    1    2    0    0  0.74585530833E+00  0.60080315440E+00 -0.68983342234E+00  0.90007688718E+02  0.89999949409E+02 0.  0.
         12    1    1    2    0    0 -0.74585530833E+00 -0.60080315440E+00  0.68983342234E+00  0.11803112818E+01  0.00000000000E+00 0. -1.
         11    1    3    3    0    0  0.35244603817E+02 -0.16803922451E+02  0.10856582978E+01  0.39060626751E+02  0.51100000000E-03 0. -1.
        -11    1    3    3    0    0  0.45521386161E+00 -0.45211249770E+01 -0.80178073691E+01  0.92159115657E+01  0.51100000000E-03 0.  1.
        -12    1    3    3    0    0 -0.34953962370E+02  0.21925850583E+02  0.62423156490E+01  0.41731150402E+02  0.00000000000E+00 0.  1.
</event>
<event>
 7    1  0.2490895E-015  0.9000759E+02  0.7816164E-02  0.1186339E+00
        -11   -1    0    0    0    0  0.00000000000E+00  0.00000000000E+00  0.45593999997E+02  0.45594000000E+02  0.51100000000E-03 0. -1.
         11   -1    0    0    0    0 -0.00000000000E+00 -0.00000000000E+00 -0.45593999997E+02  0.45594000000E+02  0.51100000000E-03 0.  1.
    9900012    2    1    2    0    0  0.14632484239E+00 -0.89676950127E+00 -0.75350151550E+00  0.90007588618E+02  0.89999847987E+02 0.  0.
         12    1    1    2    0    0 -0.14632484239E+00  0.89676950127E+00  0.75350151550E+00  0.11804113824E+01  0.00000000000E+00 0. -1.
         11    1    3    3    0    0  0.96674719067E+01  0.75624557069E+01 -0.32640097907E+01  0.12700571230E+02  0.51100000000E-03 0. -1.
        -11    1    3    3    0    0  0.59707861746E+01 -0.14681738827E+02 -0.33805973728E+02  0.37336946882E+02  0.51100000000E-03 0.  1.
         12    1    3    3    0    0 -0.15491933239E+02  0.62225136185E+01  0.36316482003E+02  0.39970070506E+02  0.00000000000E+00 0. -1.
</event>
<event>
 7    1  0.2490895E-015  0.9000777E+02  0.7816164E-02  0.1186339E+00
        -11   -1    0    0    0    0  0.00000000000E+00  0.00000000000E+00  0.45593999997E+02  0.45594000000E+02  0.51100000000E-03 0. -1.
         11   -1    0    0    0    0 -0.00000000000E+00 -0.00000000000E+00 -0.45593999997E+02  0.45594000000E+02  0.51100000000E-03 0.  1.
    9900012    2    1    2    0    0 -0.10129661750E+00 -0.10469309563E+01 -0.53536426844E+00  0.90007771068E+02  0.90000032846E+02 0.  0.
         12    1    1    2    0    0  0.10129661750E+00  0.10469309563E+01  0.53536426844E+00  0.11802289320E+01  0.00000000000E+00 0. -1.
         11    1    3    3    0    0 -0.65472680897E+01 -0.10309252997E+02 -0.77507079954E+01  0.14464469969E+02  0.51100000000E-03 0. -1.
        -11    1    3    3    0    0  0.35650111625E+02 -0.10290723422E+02  0.14164739935E+02  0.39717367802E+02  0.51100000000E-03 0.  1.
         12    1    3    3    0    0 -0.29204140153E+02  0.19553045463E+02 -0.69493962080E+01  0.35825933297E+02  0.00000000000E+00 0. -1.
</event>
<event>
 7    1  0.2490895E-015  0.9000783E+02  0.7816164E-02  0.1186339E+00
        -11   -1    0    0    0    0  0.00000000000E+00  0.00000000000E+00  0.45593999997E+02  0.45594000000E+02  0.51100000000E-03 0.  1.
         11   -1    0    0    0    0 -0.00000000000E+00 -0.00000000000E+00 -0.45593999997E+02  0.45594000000E+02  0.51100000000E-03 0. -1.
    9900012    2    1    2    0    0  0.29307796865E+00  0.26450344688E+00 -0.11121831107E+01  0.90007827114E+02  0.90000089632E+02 0.  0.
         12    1    1    2    0    0 -0.29307796865E+00 -0.26450344688E+00  0.11121831107E+01  0.11801728860E+01  0.00000000000E+00 0. -1.
         11    1    3    3    0    0 -0.48472732025E-01  0.86433500811E+01 -0.21547009107E+02  0.23216017142E+02  0.51100000000E-03 0. -1.
        -11    1    3    3    0    0 -0.48343814116E+01 -0.59245389109E+00 -0.22412817208E+02  0.22935924240E+02  0.51100000000E-03 0.  1.
        -12    1    3    3    0    0  0.51759321123E+01 -0.77863927432E+01  0.42847643205E+02  0.43855885732E+02  0.00000000000E+00 0.  1.
</event>
<event>
 7    1  0.2490895E-015  0.9000772E+02  0.7816164E-02  0.1186339E+00
        -11   -1    0    0    0    0  0.00000000000E+00  0.00000000000E+00  0.45593999997E+02  0.45594000000E+02  0.51100000000E-03 0. -1.
         11   -1    0    0    0    0 -0.00000000000E+00 -0.00000000000E+00 -0.45593999997E+02  0.45594000000E+02  0.51100000000E-03 0.  1.
    9900012    2    1    2    0    0  0.41413033665E+00  0.37418665583E-01 -0.11046081452E+01  0.90007718997E+02  0.89999980088E+02 0.  0.
         12    1    1    2    0    0 -0.41413033665E+00 -0.37418665583E-01  0.11046081452E+01  0.11802810033E+01  0.00000000000E+00 0. -1.
         11    1    3    3    0    0  0.54914767110E+01  0.10119242362E+01 -0.11198746183E+02  0.12513681451E+02  0.51100000000E-03 0. -1.
        -11    1    3    3    0    0  0.61439770085E+01 -0.17561958486E+02 -0.28487117765E+02  0.34024795638E+02  0.51100000000E-03 0.  1.
         12    1    3    3    0    0 -0.11221323383E+02  0.16587452915E+02  0.38581255803E+02  0.43469241908E+02  0.00000000000E+00 0. -1.
</event>
<event>
 7    1  0.2490895E-015  0.9000778E+02  0.7816164E-02  0.1186339E+00
        -11   -1    0    0    0    0  0.00000000000E+00  0.00000000000E+00  0.45593999997E+02  0.45594000000E+02  0.51100000000E-03 0. -1.
         11   -1    0    0    0    0 -0.00000000000E+00 -0.00000000000E+00 -0.45593999997E+02  0.45594000000E+02  0.51100000000E-03 0.  1.
    9900012    2    1    2    0    0 -0.56832035747E+00  0.82732370258E+00 -0.62086580289E+00  0.90007776766E+02  0.90000038619E+02 0.  0.
         12    1    1    2    0    0  0.56832035747E+00 -0.82732370258E+00  0.62086580289E+00  0.11802232343E+01  0.00000000000E+00 0. -1.
         11    1    3    3    0    0 -0.69057182043E+01 -0.62297550296E+01  0.25855169629E+01  0.96531699391E+01  0.51100000000E-03 0. -1.
        -11    1    3    3    0    0 -0.35772261033E+02  0.11891014025E+02 -0.43920374425E+01  0.37951822975E+02  0.51100000000E-03 0.  1.
         12    1    3    3    0    0  0.42109658880E+02 -0.48339352929E+01  0.11856546767E+01  0.42402783852E+02  0.00000000000E+00 0. -1.
</event>
<event>
 7    1  0.2490895E-015  0.9000770E+02  0.7816164E-02  0.1186339E+00
        -11   -1    0    0    0    0  0.00000000000E+00  0.00000000000E+00  0.45593999997E+02  0.45594000000E+02  0.51100000000E-03 0.  1.
         11   -1    0    0    0    0 -0.00000000000E+00 -0.00000000000E+00 -0.45593999997E+02  0.45594000000E+02  0.51100000000E-03 0. -1.
    9900012    2    1    2    0    0 -0.12157292853E+00  0.21936530990E+00  0.11533488919E+01  0.90007697165E+02  0.89999957967E+02 0.  0.
         12    1    1    2    0    0  0.12157292853E+00 -0.21936530990E+00 -0.11533488919E+01  0.11803028351E+01  0.00000000000E+00 0. -1.
         11    1    3    3    0    0  0.44138408050E+01 -0.84825573861E+01  0.69469667709E+00  0.95874070632E+01  0.51100000000E-03 0. -1.
        -11    1    3    3    0    0 -0.46968133843E+00 -0.35050146451E+02 -0.72858105646E+01  0.35802463639E+02  0.51100000000E-03 0.  1.
         12    1    3    3    0    0 -0.40657323951E+01  0.43752069147E+02  0.77444627794E+01  0.44617826463E+02  0.00000000000E+00 0. -1.
</event>
<event>
 7    1  0.2490895E-015  0.9000788E+02  0.7816164E-02  0.1186339E+00
        -11   -1    0    0    0    0  0.00000000000E+00  0.00000000000E+00  0.45593999997E+02  0.45594000000E+02  0.51100000000E-03 0. -1.
         11   -1    0    0    0    0 -0.00000000000E+00 -0.00000000000E+00 -0.45593999997E+02  0.45594000000E+02  0.51100000000E-03 0.  1.
    9900012    2    1    2    0    0  0.10490888576E+01 -0.44167107500E+00 -0.31150079048E+00  0.90007875637E+02  0.90000138795E+02 0.  0.
         12    1    1    2    0    0 -0.10490888576E+01  0.44167107500E+00  0.31150079048E+00  0.11801243629E+01  0.00000000000E+00 0. -1.
         11    1    3    3    0    0 -0.57214080723E+01 -0.24179692336E+02  0.26288420776E+02  0.36172822657E+02  0.51100000000E-03 0. -1.
        -11    1    3    3    0    0 -0.17542728017E+01  0.33844516267E+01  0.10220660728E+02  0.10908432145E+02  0.51100000000E-03 0.  1.
        -12    1    3    3    0    0  0.85247697315E+01  0.20353569634E+02 -0.36820582295E+02  0.42926620836E+02  0.00000000000E+00 0.  1.
</event>
<event>
 7    1  0.2490895E-015  0.9000774E+02  0.7816164E-02  0.1186339E+00
        -11   -1    0    0    0    0  0.00000000000E+00  0.00000000000E+00  0.45593999997E+02  0.45594000000E+02  0.51100000000E-03 0.  1.
         11   -1    0    0    0    0 -0.00000000000E+00 -0.00000000000E+00 -0.45593999997E+02  0.45594000000E+02  0.51100000000E-03 0. -1.
    9900012    2    1    2    0    0  0.46480281237E+00 -0.18249844854E+00  0.10694248176E+01  0.90007738682E+02  0.90000000033E+02 0.  0.
         12    1    1    2    0    0 -0.46480281237E+00  0.18249844854E+00 -0.10694248176E+01  0.11802613179E+01  0.00000000000E+00 0. -1.
         11    1    3    3    0    0 -0.63171551940E+01 -0.62562729371E+01  0.63703777672E+01  0.10937509496E+02  0.51100000000E-03 0. -1.
        -11    1    3    3    0    0  0.11113781232E+02 -0.22975512514E+02  0.25801421772E+02  0.36291922989E+02  0.51100000000E-03 0.  1.
         12    1    3    3    0    0 -0.43318232258E+01  0.29049287002E+02 -0.31102374721E+02  0.42778306197E+02  0.00000000000E+00 0. -1.
</event>
<event>
 7    1  0.2490895E-015  0.9000771E+02  0.7816164E-02  0.1186339E+00
        -11   -1    0    0    0    0  0.00000000000E+00  0.00000000000E+00  0.45593999997E+02  0.45594000000E+02  0.51100000000E-03 0.  1.
         11   -1    0    0    0    0 -0.00000000000E+00 -0.00000000000E+00 -0.45593999997E+02  0.45594000000E+02  0.51100000000E-03 0. -1.
    9900012    2    1    2    0    0  0.26465768359E-01 -0.11655732661E+01  0.18388921560E+00  0.90007713289E+02  0.89999974305E+02 0.  0.
         12    1    1    2    0    0 -0.26465768359E-01  0.11655732661E+01 -0.18388921560E+00  0.11802867106E+01  0.00000000000E+00 0. -1.
         11    1    3    3    0    0  0.82902983647E+01 -0.71338741095E+00 -0.76939924006E+01  0.11332938185E+02  0.51100000000E-03 0. -1.
        -11    1    3    3    0    0  0.54217632006E+01  0.16233537601E+02  0.37967330527E+02  0.41646625876E+02  0.51100000000E-03 0.  1.
         12    1    3    3    0    0 -0.13685595797E+02 -0.16685723456E+02 -0.30089448911E+02  0.37028149229E+02  0.00000000000E+00 0. -1.
</event>
<event>
 7    1  0.2490895E-015  0.9000780E+02  0.7816164E-02  0.1186339E+00
        -11   -1    0    0    0    0  0.00000000000E+00  0.00000000000E+00  0.45593999997E+02  0.45594000000E+02  0.51100000000E-03 0.  1.
         11   -1    0    0    0    0 -0.00000000000E+00 -0.00000000000E+00 -0.45593999997E+02  0.45594000000E+02  0.51100000000E-03 0. -1.
    9900012    2    1    2    0    0 -0.55036389651E-01  0.11535355371E+01  0.24331873026E+00  0.90007797795E+02  0.90000059926E+02 0.  0.
         12    1    1    2    0    0  0.55036389651E-01 -0.11535355371E+01 -0.24331873026E+00  0.11802022047E+01  0.00000000000E+00 0. -1.
         11    1    3    3    0    0  0.32085150598E+02 -0.13078368062E+02  0.22626488445E+02  0.41381862932E+02  0.51100000000E-03 0. -1.
        -11    1    3    3    0    0 -0.61015632419E+01  0.50937212800E+01  0.52878242320E+01  0.95465258520E+01  0.51100000000E-03 0.  1.
        -12    1    3    3    0    0 -0.26038623746E+02  0.91381823191E+01 -0.27670993947E+02  0.39079409012E+02  0.00000000000E+00 0.  1.
</event>
<event>
 7    1  0.2490895E-015  0.9000774E+02  0.7816164E-02  0.1186339E+00
        -11   -1    0    0    0    0  0.00000000000E+00  0.00000000000E+00  0.45593999997E+02  0.45594000000E+02  0.51100000000E-03 0. -1.
         11   -1    0    0    0    0 -0.00000000000E+00 -0.00000000000E+00 -0.45593999997E+02  0.45594000000E+02  0.51100000000E-03 0.  1.
    9900012    2    1    2    0    0  0.75405117735E+00 -0.84041465778E+00 -0.34367997590E+00  0.90007743290E+02  0.90000004702E+02 0.  0.
         12    1    1    2    0    0 -0.75405117735E+00  0.84041465778E+00  0.34367997590E+00  0.11802567097E+01  0.00000000000E+00 0. -1.
         11    1    3    3    0    0  0.34602808028E+02  0.14452545508E+02  0.95548467228E+01  0.38697874505E+02  0.51100000000E-03 0. -1.
        -11    1    3    3    0    0 -0.10925091857E+01  0.92376050473E+01 -0.46672129223E+00  0.93136862925E+01  0.51100000000E-03 0.  1.
        -12    1    3    3    0    0 -0.32756247664E+02 -0.24530565213E+02 -0.94318054064E+01  0.41996182493E+02  0.00000000000E+00 0.  1.
</event>
<event>
 7    1  0.2490895E-015  0.9000761E+02  0.7816164E-02  0.1186339E+00
        -11   -1    0    0    0    0  0.00000000000E+00  0.00000000000E+00  0.45593999997E+02  0.45594000000E+02  0.51100000000E-03 0. -1.
         11   -1    0    0    0    0 -0.00000000000E+00 -0.00000000000E+00 -0.45593999997E+02  0.45594000000E+02  0.51100000000E-03 0.  1.
    9900012    2    1    2    0    0  0.10813445521E+01  0.42253930762E+00 -0.21324608316E+00  0.90007610489E+02  0.89999870147E+02 0.  0.
         12    1    1    2    0    0 -0.10813445521E+01 -0.42253930762E+00  0.21324608316E+00  0.11803895115E+01  0.00000000000E+00 0. -1.
         11    1    3    3    0    0  0.58013478492E+01 -0.14234222625E+02 -0.86205966922E+01  0.17623377037E+02  0.51100000000E-03 0. -1.
        -11    1    3    3    0    0 -0.26349080500E+02  0.31735856670E+02 -0.53291268395E+01  0.41591324034E+02  0.51100000000E-03 0.  1.
         12    1    3    3    0    0  0.21629077203E+02 -0.17079094738E+02  0.13736477449E+02  0.30792909418E+02  0.00000000000E+00 0. -1.
</event>
<event>
 7    1  0.2490895E-015  0.9000776E+02  0.7816164E-02  0.1186339E+00
        -11   -1    0    0    0    0  0.00000000000E+00  0.00000000000E+00  0.45593999997E+02  0.45594000000E+02  0.51100000000E-03 0.  1.
         11   -1    0    0    0    0 -0.00000000000E+00 -0.00000000000E+00 -0.45593999997E+02  0.45594000000E+02  0.51100000000E-03 0. -1.
    9900012    2    1    2    0    0  0.92198117251E+00  0.72457690166E+00  0.13378172524E+00  0.90007763363E+02  0.90000025040E+02 0.  0.
         12    1    1    2    0    0 -0.92198117251E+00 -0.72457690166E+00 -0.13378172524E+00  0.11802366368E+01  0.00000000000E+00 0. -1.
         11    1    3    3    0    0 -0.58373530514E+01 -0.13307836296E+01 -0.10373947215E+02  0.11977664914E+02  0.51100000000E-03 0. -1.
        -11    1    3    3    0    0  0.74524630852E+01  0.29707781496E+02 -0.20208696093E+02  0.36694453061E+02  0.51100000000E-03 0.  1.
         12    1    3    3    0    0 -0.69312886121E+00 -0.27652420964E+02  0.30716425033E+02  0.41335645388E+02  0.00000000000E+00 0. -1.
</event>
<event>
 7    1  0.2490895E-015  0.9000773E+02  0.7816164E-02  0.1186339E+00
        -11   -1    0    0    0    0  0.00000000000E+00  0.00000000000E+00  0.45593999997E+02  0.45594000000E+02  0.51100000000E-03 0.  1.
         11   -1    0    0    0    0 -0.00000000000E+00 -0.00000000000E+00 -0.45593999997E+02  0.45594000000E+02  0.51100000000E-03 0. -1.
    9900012    2    1    2    0    0  0.65892147840E+00  0.60036186907E-01 -0.97737582318E+00  0.90007726575E+02  0.89999987766E+02 0.  0.
         12    1    1    2    0    0 -0.65892147840E+00 -0.60036186907E-01  0.97737582318E+00  0.11802734252E+01  0.00000000000E+00 0. -1.
         11    1    3    3    0    0  0.17989630201E+01  0.66259391512E+01 -0.76670547288E+01  0.10291893220E+02  0.51100000000E-03 0. -1.
        -11    1    3    3    0    0  0.20903343038E+02  0.29514220634E+02  0.93349997168E+01  0.37352124301E+02  0.51100000000E-03 0.  1.
         12    1    3    3    0    0 -0.22043384580E+02 -0.36080123598E+02 -0.26453208111E+01  0.42363709054E+02  0.00000000000E+00 0. -1.
</event>
<event>
 7    1  0.2490895E-015  0.9000781E+02  0.7816164E-02  0.1186339E+00
        -11   -1    0    0    0    0  0.00000000000E+00  0.00000000000E+00  0.45593999997E+02  0.45594000000E+02  0.51100000000E-03 0. -1.
         11   -1    0    0    0    0 -0.00000000000E+00 -0.00000000000E+00 -0.45593999997E+02  0.45594000000E+02  0.51100000000E-03 0.  1.
    9900012    2    1    2    0    0  0.39401453391E+00 -0.75085582537E+00 -0.82086718958E+00  0.90007807276E+02  0.90000069532E+02 0.  0.
         12    1    1    2    0    0 -0.39401453391E+00  0.75085582537E+00  0.82086718958E+00  0.11801927242E+01  0.00000000000E+00 0. -1.
         11    1    3    3    0    0  0.29296552440E+01 -0.20661680698E+01  0.79243492256E+01  0.86975422535E+01  0.51100000000E-03 0. -1.
        -11    1    3    3    0    0 -0.30189595484E+02 -0.10668048920E+02  0.21535213544E+02  0.38587360183E+02  0.51100000000E-03 0.  1.
         12    1    3    3    0    0  0.27653954774E+02  0.11983361165E+02 -0.30280429959E+02  0.42722904839E+02  0.00000000000E+00 0. -1.
</event>
<event>
 7    1  0.2490895E-015  0.9000775E+02  0.7816164E-02  0.1186339E+00
        -11   -1    0    0    0    0  0.00000000000E+00  0.00000000000E+00  0.45593999997E+02  0.45594000000E+02  0.51100000000E-03 0.  1.
         11   -1    0    0    0    0 -0.00000000000E+00 -0.00000000000E+00 -0.45593999997E+02  0.45594000000E+02  0.51100000000E-03 0. -1.
    9900012    2    1    2    0    0 -0.10213051556E+01  0.19842309943E+00  0.55728197107E+00  0.90007746153E+02  0.90000007603E+02 0.  0.
         12    1    1    2    0    0  0.10213051556E+01 -0.19842309943E+00 -0.55728197107E+00  0.11802538466E+01  0.00000000000E+00 0. -1.
         11    1    3    3    0    0 -0.18026660676E+02 -0.34629582472E+02  0.76532617948E+01  0.39783676221E+02  0.51100000000E-03 0. -1.
        -11    1    3    3    0    0  0.64510316054E+01 -0.47837823149E+01  0.19043874337E+01  0.82539126340E+01  0.51100000000E-03 0.  1.
        -12    1    3    3    0    0  0.10554323915E+02  0.39611787886E+02 -0.90003672574E+01  0.41970157298E+02  0.00000000000E+00 0.  1.
</event>
<event>
 7    1  0.2490895E-015  0.9000776E+02  0.7816164E-02  0.1186339E+00
        -11   -1    0    0    0    0  0.00000000000E+00  0.00000000000E+00  0.45593999997E+02  0.45594000000E+02  0.51100000000E-03 0. -1.
         11   -1    0    0    0    0 -0.00000000000E+00 -0.00000000000E+00 -0.45593999997E+02  0.45594000000E+02  0.51100000000E-03 0.  1.
    9900012    2    1    2    0    0  0.11552768921E+01 -0.12736490363E+00  0.20515856857E+00  0.90007755723E+02  0.90000017298E+02 0.  0.
         12    1    1    2    0    0 -0.11552768921E+01  0.12736490363E+00 -0.20515856857E+00  0.11802442774E+01  0.00000000000E+00 0. -1.
         11    1    3    3    0    0 -0.10976533771E+02 -0.14643957141E+01  0.13371131570E+00  0.11074593781E+02  0.51100000000E-03 0. -1.
        -11    1    3    3    0    0  0.12838245375E+02  0.15190822589E+02 -0.35533643160E+02  0.40721265104E+02  0.51100000000E-03 0.  1.
         12    1    3    3    0    0 -0.70643471241E+00 -0.13853791779E+02  0.35605090413E+02  0.38211896838E+02  0.00000000000E+00 0. -1.
</event>
<event>
 7    1  0.2490895E-015  0.9000779E+02  0.7816164E-02  0.1186339E+00
        -11   -1    0    0    0    0  0.00000000000E+00  0.00000000000E+00  0.45593999997E+02  0.45594000000E+02  0.51100000000E-03 0. -1.
         11   -1    0    0    0    0 -0.00000000000E+00 -0.00000000000E+00 -0.45593999997E+02  0.45594000000E+02  0.51100000000E-03 0.  1.
    9900012    2    1    2    0    0  0.27006688174E+00 -0.72338358757E-01 -0.11466190718E+01  0.90007786352E+02  0.90000048332E+02 0.  0.
         12    1    1    2    0    0 -0.27006688174E+00  0.72338358757E-01  0.11466190718E+01  0.11802136478E+01  0.00000000000E+00 0. -1.
         11    1    3    3    0    0  0.10076148785E+01 -0.76652685390E+00  0.10040600165E+02  0.10120103907E+02  0.51100000000E-03 0. -1.
        -11    1    3    3    0    0 -0.81709581437E+01 -0.34057251820E+02 -0.23613216751E+02  0.42240323911E+02  0.51100000000E-03 0.  1.
         12    1    3    3    0    0  0.74334101469E+01  0.34751440315E+02  0.12425997514E+02  0.37647358534E+02  0.00000000000E+00 0. -1.
</event>
<event>
 7    1  0.2490895E-015  0.9000774E+02  0.7816164E-02  0.1186339E+00
        -11   -1    0    0    0    0  0.00000000000E+00  0.00000000000E+00  0.45593999997E+02  0.45594000000E+02  0.51100000000E-03 0.  1.
         11   -1    0    0    0    0 -0.00000000000E+00 -0.00000000000E+00 -0.45593999997E+02  0.45594000000E+02  0.51100000000E-03 0. -1.
    9900012    2    1    2    0    0 -0.10154133984E+00  0.10699995824E+00  0.11710037770E+01  0.90007741774E+02  0.90000003165E+02 0.  0.
         12    1    1    2    0    0  0.10154133984E+00 -0.10699995824E+00 -0.11710037770E+01  0.11802582262E+01  0.00000000000E+00 0. -1.
         11    1    3    3    0    0 -0.58644288305E+01 -0.58962922116E+01  0.67241085078E+01  0.10694457576E+02  0.51100000000E-03 0. -1.
        -11    1    3    3    0    0 -0.29459197422E+02  0.16399648856E+02  0.15361626731E+02  0.37050942923E+02  0.51100000000E-03 0.  1.
         12    1    3    3    0    0  0.35222084913E+02 -0.10396356686E+02 -0.20914731462E+02  0.42262341275E+02  0.00000000000E+00 0. -1.
</event>
<event>
 7    1  0.2490895E-015  0.9000773E+02  0.7816164E-02  0.1186339E+00
        -11   -1    0    0    0    0  0.00000000000E+00  0.00000000000E+00  0.45593999997E+02  0.45594000000E+02  0.51100000000E-03 0.  1.
         11   -1    0    0    0    0 -0.00000000000E+00 -0.00000000000E+00 -0.45593999997E+02  0.45594000000E+02  0.51100000000E-03 0. -1.
    9900012    2    1    2    0    0 -0.97798190050E+00  0.60058568388E+00  0.27548087133E+00  0.90007728221E+02  0.89999989434E+02 0.  0.
         12    1    1    2    0    0  0.97798190050E+00 -0.60058568388E+00 -0.27548087133E+00  0.11802717788E+01  0.00000000000E+00 0. -1.
         11    1    3    3    0    0 -0.22019003313E+02 -0.25170995452E+02  0.12833402956E+02  0.35820549279E+02  0.51100000000E-03 0. -1.
        -11    1    3    3    0    0 -0.64354020390E+01 -0.60482901995E+01  0.30483662951E+01  0.93428449132E+01  0.51100000000E-03 0.  1.
        -12    1    3    3    0    0  0.27476423452E+02  0.31819871335E+02 -0.15606288380E+02  0.44844334029E+02  0.00000000000E+00 0.  1.
</event>
<event>
 7    1  0.2490895E-015  0.9000784E+02  0.7816164E-02  0.1186339E+00
        -11   -1    0    0    0    0  0.00000000000E+00  0.00000000000E+00  0.45593999997E+02  0.45594000000E+02  0.51100000000E-03 0.  1.
         11   -1    0    0    0    0 -0.00000000000E+00 -0.00000000000E+00 -0.45593999997E+02  0.45594000000E+02  0.51100000000E-03 0. -1.
    9900012    2    1    2    0    0 -0.54921355924E+00 -0.10436657425E+01 -0.43680315743E-01  0.90007838280E+02  0.90000100945E+02 0.  0.
         12    1    1    2    0    0  0.54921355924E+00  0.10436657425E+01  0.43680315743E-01  0.11801617201E+01  0.00000000000E+00 0. -1.
         11    1    3    3    0    0  0.15831983214E+02  0.78664467366E+01 -0.40440141090E+01  0.18135234411E+02  0.51100000000E-03 0. -1.
        -11    1    3    3    0    0 -0.32684931414E+02  0.76470961813E+01  0.23958954107E+02  0.41240929957E+02  0.51100000000E-03 0.  1.
         12    1    3    3    0    0  0.16303734640E+02 -0.16557208660E+02 -0.19958620314E+02  0.30631673913E+02  0.00000000000E+00 0. -1.
</event>
<event>
 7    1  0.2490895E-015  0.9000777E+02  0.7816164E-02  0.1186339E+00
        -11   -1    0    0    0    0  0.00000000000E+00  0.00000000000E+00  0.45593999997E+02  0.45594000000E+02  0.51100000000E-03 0.  1.
         11   -1    0    0    0    0 -0.00000000000E+00 -0.00000000000E+00 -0.45593999997E+02  0.45594000000E+02  0.51100000000E-03 0. -1.
    9900012    2    1    2    0    0 -0.52236015356E+00  0.10492787359E+01  0.13818641702E+00  0.90007770581E+02  0.90000032353E+02 0.  0.
         12    1    1    2    0    0  0.52236015356E+00 -0.10492787359E+01 -0.13818641702E+00  0.11802294190E+01  0.00000000000E+00 0. -1.
         11    1    3    3    0    0 -0.10575474816E+02  0.27482172345E+01  0.30959275380E+01  0.11356854015E+02  0.51100000000E-03 0. -1.
        -11    1    3    3    0    0  0.37116277715E+01  0.77369008625E+00  0.37466402590E+02  0.37657749539E+02  0.51100000000E-03 0.  1.
         12    1    3    3    0    0  0.63414868905E+01 -0.24726285849E+01 -0.40424143711E+02  0.40993167027E+02  0.00000000000E+00 0. -1.
</event>
<event>
 7    1  0.2490895E-015  0.9000781E+02  0.7816164E-02  0.1186339E+00
        -11   -1    0    0    0    0  0.00000000000E+00  0.00000000000E+00  0.45593999997E+02  0.45594000000E+02  0.51100000000E-03 0.  1.
         11   -1    0    0    0    0 -0.00000000000E+00 -0.00000000000E+00 -0.45593999997E+02  0.45594000000E+02  0.51100000000E-03 0. -1.
    9900012    2    1    2    0    0  0.59366518253E+00  0.41747214617E+00  0.93066546648E+00  0.90007805291E+02  0.90000067520E+02 0.  0.
         12    1    1    2    0    0 -0.59366518253E+00 -0.41747214617E+00 -0.93066546648E+00  0.11801947095E+01  0.00000000000E+00 0. -1.
         11    1    3    3    0    0 -0.41797516938E+01 -0.10048405278E+02  0.29581293753E+01  0.11277912152E+02  0.51100000000E-03 0. -1.
        -11    1    3    3    0    0  0.23526211638E+02 -0.23130689909E+02  0.15497132027E+02  0.36450960907E+02  0.51100000000E-03 0.  1.
         12    1    3    3    0    0 -0.18752794762E+02  0.33596567333E+02 -0.17524595935E+02  0.42278932232E+02  0.00000000000E+00 0. -1.
</event>
<event>
 7    1  0.2490895E-015  0.9000775E+02  0.7816164E-02  0.1186339E+00
        -11   -1    0    0    0    0  0.00000000000E+00  0.00000000000E+00  0.45593999997E+02  0.45594000000E+02  0.51100000000E-03 0.  1.
         11   -1    0    0    0    0 -0.00000000000E+00 -0.00000000000E+00 -0.45593999997E+02  0.45594000000E+02  0.51100000000E-03 0. -1.
    9900012    2    1    2    0    0  0.15619550954E+00 -0.11696460864E+01 -0.22637927679E-01  0.90007753636E+02  0.90000015184E+02 0.  0.
         12    1    1    2    0    0 -0.15619550954E+00  0.11696460864E+01  0.22637927679E-01  0.11802463643E+01  0.00000000000E+00 0. -1.
         11    1    3    3    0    0  0.60741420802E+01 -0.35507034642E+02  0.14551500689E+02  0.38850880088E+02  0.51100000000E-03 0. -1.
        -11    1    3    3    0    0  0.19534205762E+01 -0.38353077944E+01  0.57640784037E+01  0.71937499213E+01  0.51100000000E-03 0.  1.
        -12    1    3    3    0    0 -0.78713671469E+01  0.38172696350E+02 -0.20338217021E+02  0.43963123626E+02  0.00000000000E+00 0.  1.
</event>
<event>
 7    1  0.2490895E-015  0.9000773E+02  0.7816164E-02  0.1186339E+00
        -11   -1    0    0    0    0  0.00000000000E+00  0.00000000000E+00  0.45593999997E+02  0.45594000000E+02  0.51100000000E-03 0. -1.
         11   -1    0    0    0    0 -0.00000000000E+00 -0.00000000000E+00 -0.45593999997E+02  0.45594000000E+02  0.51100000000E-03 0.  1.
    9900012    2    1    2    0    0  0.23374912125E+00  0.86146860894E+00 -0.77217934386E+00  0.90007734032E+02  0.89999995321E+02 0.  0.
         12    1    1    2    0    0 -0.23374912125E+00 -0.86146860894E+00  0.77217934386E+00  0.11802659679E+01  0.00000000000E+00 0. -1.
         11    1    3    3    0    0 -0.13008583413E+01 -0.71787162957E+01 -0.47526308771E+01  0.87071063272E+01  0.51100000000E-03 0. -1.
        -11    1    3    3    0    0  0.33576870148E+02 -0.11537631674E+02 -0.15798294932E+02  0.38860124506E+02  0.51100000000E-03 0.  1.
         12    1    3    3    0    0 -0.32042262686E+02  0.19577816579E+02  0.19778746465E+02  0.42440503199E+02  0.00000000000E+00 0. -1.
</event>
<event>
 7    1  0.2490895E-015  0.9000770E+02  0.7816164E-02  0.1186339E+00
        -11   -1    0    0    0    0  0.00000000000E+00  0.00000000000E+00  0.45593999997E+02  0.45594000000E+02  0.51100000000E-03 0. -1.
         11   -1    0    0    0    0 -0.00000000000E+00 -0.00000000000E+00 -0.45593999997E+02  0.45594000000E+02  0.51100000000E-03 0.  1.
    9900012    2    1    2    0    0  0.51180011675E+00  0.88206589710E+00 -0.59424486733E+00  0.90007700644E+02  0.89999961493E+02 0.  0.
         12    1    1    2    0    0 -0.51180011675E+00 -0.88206589710E+00  0.59424486733E+00  0.11802993555E+01  0.00000000000E+00 0. -1.
         11    1    3    3    0    0 -0.36075825464E+02 -0.58958559104E+01  0.17753545622E+02  0.40637601827E+02  0.51100000000E-03 0. -1.
        -11    1    3    3    0    0  0.65982806115E+01  0.26176659397E+01  0.69360870344E+01  0.99246554404E+01  0.51100000000E-03 0.  1.
        -12    1    3    3    0    0  0.29989344970E+02  0.41602558678E+01 -0.25283877523E+02  0.39445443377E+02  0.00000000000E+00 0.  1.
</event>
<event>
 7    1  0.2490895E-015  0.9000767E+02  0.7816164E-02  0.1186339E+00
        -11   -1    0    0    0    0  0.00000000000E+00  0.00000000000E+00  0.45593999997E+02  0.45594000000E+02  0.51100000000E-03 0.  1.
         11   -1    0    0    0    0 -0.00000000000E+00 -0.00000000000E+00 -0.45593999997E+02  0.45594000000E+02  0.51100000000E-03 0. -1.
    9900012    2    1    2    0    0 -0.39945627569E+00 -0.59225141809E+00  0.93959904002E+00  0.90007672328E+02  0.89999932802E+02 0.  0.
         12    1    1    2    0    0  0.39945627569E+00  0.59225141809E+00 -0.93959904002E+00  0.11803276725E+01  0.00000000000E+00 0. -1.
         11    1    3    3    0    0  0.14876730848E+02  0.30118229874E+02  0.11615884085E+02  0.35543686568E+02  0.51100000000E-03 0. -1.
        -11    1    3    3    0    0 -0.18165206098E+02  0.25331329823E+00  0.60563739286E+01  0.19149896753E+02  0.51100000000E-03 0.  1.
        -12    1    3    3    0    0  0.28890189747E+01 -0.30963794591E+02 -0.16732658973E+02  0.35314089007E+02  0.00000000000E+00 0.  1.
</event>
<event>
 7    1  0.2490895E-015  0.9000777E+02  0.7816164E-02  0.1186339E+00
        -11   -1    0    0    0    0  0.00000000000E+00  0.00000000000E+00  0.45593999997E+02  0.45594000000E+02  0.51100000000E-03 0.  1.
         11   -1    0    0    0    0 -0.00000000000E+00 -0.00000000000E+00 -0.45593999997E+02  0.45594000000E+02  0.51100000000E-03 0. -1.
    9900012    2    1    2    0    0 -0.11258422238E+00  0.37732698032E+00  0.11126017645E+01  0.90007773944E+02  0.90000035760E+02 0.  0.
         12    1    1    2    0    0  0.11258422238E+00 -0.37732698032E+00 -0.11126017645E+01  0.11802260562E+01  0.00000000000E+00 0. -1.
         11    1    3    3    0    0  0.10192251111E+00 -0.72562924822E+01  0.52862772915E+01  0.89782457445E+01  0.51100000000E-03 0. -1.
        -11    1    3    3    0    0 -0.29802256403E+02 -0.22836505060E+02 -0.79901279684E+01  0.38386489750E+02  0.51100000000E-03 0.  1.
         12    1    3    3    0    0  0.29587749670E+02  0.30470124523E+02  0.38164524414E+01  0.42643038449E+02  0.00000000000E+00 0. -1.
</event>
<event>
 7    1  0.2490895E-015  0.9000779E+02  0.7816164E-02  0.1186339E+00
        -11   -1    0    0    0    0  0.00000000000E+00  0.00000000000E+00  0.45593999997E+02  0.45594000000E+02  0.51100000000E-03 0. -1.
         11   -1    0    0    0    0 -0.00000000000E+00 -0.00000000000E+00 -0.45593999997E+02  0.45594000000E+02  0.51100000000E-03 0.  1.
    9900012    2    1    2    0    0 -0.11127376494E+01 -0.18146374471E-01 -0.39290150187E+00  0.90007794104E+02  0.90000056186E+02 0.  0.
         12    1    1    2    0    0  0.11127376494E+01  0.18146374471E-01  0.39290150187E+00  0.11802058963E+01  0.00000000000E+00 0. -1.
         11    1    3    3    0    0  0.75621455122E+01  0.65900696943E+01 -0.82740534886E+00  0.10064773380E+02  0.51100000000E-03 0. -1.
        -11    1    3    3    0    0  0.17348679597E+02  0.17289411437E+02 -0.26073235716E+02  0.35773091180E+02  0.51100000000E-03 0.  1.
         12    1    3    3    0    0 -0.26023562759E+02 -0.23897627506E+02  0.26507739563E+02  0.44169929543E+02  0.00000000000E+00 0. -1.
</event>
<event>
 7    1  0.2490895E-015  0.9000771E+02  0.7816164E-02  0.1186339E+00
        -11   -1    0    0    0    0  0.00000000000E+00  0.00000000000E+00  0.45593999997E+02  0.45594000000E+02  0.51100000000E-03 0.  1.
         11   -1    0    0    0    0 -0.00000000000E+00 -0.00000000000E+00 -0.45593999997E+02  0.45594000000E+02  0.51100000000E-03 0. -1.
    9900012    2    1    2    0    0  0.11401532263E+01  0.52878991542E-01  0.30057468294E+00  0.90007707364E+02  0.89999968301E+02 0.  0.
         12    1    1    2    0    0 -0.11401532263E+01 -0.52878991542E-01 -0.30057468294E+00  0.11802926362E+01  0.00000000000E+00 0. -1.
         11    1    3    3    0    0 -0.38330241910E+01  0.82008534357E+01  0.23943455960E+01  0.93637045349E+01  0.51100000000E-03 0. -1.
        -11    1    3    3    0    0 -0.10319532050E+02  0.30534099006E+02  0.15152707163E+02  0.35615003559E+02  0.51100000000E-03 0.  1.
         12    1    3    3    0    0  0.15292709468E+02 -0.38682073450E+02 -0.17246478076E+02  0.45028999270E+02  0.00000000000E+00 0. -1.
</event>
<event>
 7    1  0.2490895E-015  0.9000779E+02  0.7816164E-02  0.1186339E+00
        -11   -1    0    0    0    0  0.00000000000E+00  0.00000000000E+00  0.45593999997E+02  0.45594000000E+02  0.51100000000E-03 0.  1.
         11   -1    0    0    0    0 -0.00000000000E+00 -0.00000000000E+00 -0.45593999997E+02  0.45594000000E+02  0.51100000000E-03 0. -1.
    9900012    2    1    2    0    0  0.39595787458E-01  0.38793627241E+00  0.11139225935E+01  0.90007794119E+02  0.90000056201E+02 0.  0.
         12    1    1    2    0    0 -0.39595787458E-01 -0.38793627241E+00 -0.11139225935E+01  0.11802058813E+01  0.00000000000E+00 0. -1.
         11    1    3    3    0    0  0.33047558281E+01 -0.28425709845E+01 -0.83106265530E+01  0.93844624167E+01  0.51100000000E-03 0. -1.
        -11    1    3    3    0    0  0.25465227490E+02 -0.14888533517E+02 -0.20036941409E+02  0.35659855057E+02  0.51100000000E-03 0.  1.
         12    1    3    3    0    0 -0.28730387531E+02  0.18119040774E+02  0.29461490556E+02  0.44963476645E+02  0.00000000000E+00 0. -1.
</event>
<event>
 7    1  0.2490895E-015  0.9000776E+02  0.7816164E-02  0.1186339E+00
        -11   -1    0    0    0    0  0.00000000000E+00  0.00000000000E+00  0.45593999997E+02  0.45594000000E+02  0.51100000000E-03 0.  1.
         11   -1    0    0    0    0 -0.00000000000E+00 -0.00000000000E+00 -0.45593999997E+02  0.45594000000E+02  0.51100000000E-03 0. -1.
    9900012    2    1    2    0    0 -0.48867075494E+00  0.70975975339E+00  0.80648487502E+00  0.90007756013E+02  0.90000017593E+02 0.  0.
         12    1    1    2    0    0  0.48867075494E+00 -0.70975975339E+00 -0.80648487502E+00  0.11802439866E+01  0.00000000000E+00 0. -1.
         11    1    3    3    0    0 -0.65250710058E+01  0.38719126112E+02  0.11232046238E+02  0.40840006629E+02  0.51100000000E-03 0. -1.
        -11    1    3    3    0    0  0.51108236409E+01 -0.32363183407E+01  0.78208051543E+01  0.98873286693E+01  0.51100000000E-03 0.  1.
        -12    1    3    3    0    0  0.92557660992E+00 -0.34773048018E+02 -0.18246366517E+02  0.39280420715E+02  0.00000000000E+00 0.  1.
</event>
<event>
 7    1  0.2490895E-015  0.9000779E+02  0.7816164E-02  0.1186339E+00
        -11   -1    0    0    0    0  0.00000000000E+00  0.00000000000E+00  0.45593999997E+02  0.45594000000E+02  0.51100000000E-03 0.  1.
         11   -1    0    0    0    0 -0.00000000000E+00 -0.00000000000E+00 -0.45593999997E+02  0.45594000000E+02  0.51100000000E-03 0. -1.
    9900012    2    1    2    0    0  0.12818966031E-01 -0.79510051466E+00  0.87209349168E+00  0.90007789759E+02  0.90000051784E+02 0.  0.
         12    1    1    2    0    0 -0.12818966031E-01  0.79510051466E+00 -0.87209349168E+00  0.11802102408E+01  0.00000000000E+00 0. -1.
         11    1    3    3    0    0 -0.95036482274E+01 -0.84207429758E+00  0.71965145283E+01  0.11950658575E+02  0.51100000000E-03 0. -1.
        -11    1    3    3    0    0  0.96915255276E+01  0.99385004374E+01  0.33901003545E+02  0.36633011064E+02  0.51100000000E-03 0.  1.
         12    1    3    3    0    0 -0.17505833413E+00 -0.98915266545E+01 -0.40225424582E+02  0.41424120120E+02  0.00000000000E+00 0. -1.
</event>
<event>
 7    1  0.2490895E-015  0.9000780E+02  0.7816164E-02  0.1186339E+00
        -11   -1    0    0    0    0  0.00000000000E+00  0.00000000000E+00  0.45593999997E+02  0.45594000000E+02  0.51100000000E-03 0.  1.
         11   -1    0    0    0    0 -0.00000000000E+00 -0.00000000000E+00 -0.45593999997E+02  0.45594000000E+02  0.51100000000E-03 0. -1.
    9900012    2    1    2    0    0 -0.28451370790E+00 -0.18592698226E+00  0.11301972022E+01  0.90007803996E+02  0.90000066208E+02 0.  0.
         12    1    1    2    0    0  0.28451370790E+00  0.18592698226E+00 -0.11301972022E+01  0.11801960043E+01  0.00000000000E+00 0. -1.
         11    1    3    3    0    0  0.87402264220E+01 -0.23680701782E+01 -0.17592839998E+01  0.92246623098E+01  0.51100000000E-03 0. -1.
        -11    1    3    3    0    0  0.32174804433E+02 -0.12091017725E+02  0.11683801333E+02  0.36303194953E+02  0.51100000000E-03 0.  1.
         12    1    3    3    0    0 -0.41199544562E+02  0.14273160921E+02 -0.87943201313E+01  0.44479946733E+02  0.00000000000E+00 0. -1.
</event>
<event>
 7    1  0.2490895E-015  0.9000776E+02  0.7816164E-02  0.1186339E+00
        -11   -1    0    0    0    0  0.00000000000E+00  0.00000000000E+00  0.45593999997E+02  0.45594000000E+02  0.51100000000E-03 0.  1.
         11   -1    0    0    0    0 -0.00000000000E+00 -0.00000000000E+00 -0.45593999997E+02  0.45594000000E+02  0.51100000000E-03 0. -1.
    9900012    2    1    2    0    0 -0.50000916093E+00  0.38877368498E+00 -0.99589344359E+00  0.90007763630E+02  0.90000025309E+02 0.  0.
         12    1    1    2    0    0  0.50000916093E+00 -0.38877368498E+00  0.99589344359E+00  0.11802363704E+01  0.00000000000E+00 0. -1.
         11    1    3    3    0    0  0.95092222894E+01  0.47269614426E+00  0.37047697182E+01  0.10216362813E+02  0.51100000000E-03 0. -1.
        -11    1    3    3    0    0 -0.15809471532E+02  0.32869893767E+02  0.16654937697E+02  0.40096835989E+02  0.51100000000E-03 0.  1.
         12    1    3    3    0    0  0.58002400817E+01 -0.32953816226E+02 -0.21355600859E+02  0.39694564828E+02  0.00000000000E+00 0. -1.
</event>
<event>
 7    1  0.2490895E-015  0.9000775E+02  0.7816164E-02  0.1186339E+00
        -11   -1    0    0    0    0  0.00000000000E+00  0.00000000000E+00  0.45593999997E+02  0.45594000000E+02  0.51100000000E-03 0.  1.
         11   -1    0    0    0    0 -0.00000000000E+00 -0.00000000000E+00 -0.45593999997E+02  0.45594000000E+02  0.51100000000E-03 0. -1.
    9900012    2    1    2    0    0  0.32301366711E+00  0.61515848085E+00  0.95406168694E+00  0.90007749396E+02  0.90000010888E+02 0.  0.
         12    1    1    2    0    0 -0.32301366711E+00 -0.61515848085E+00 -0.95406168694E+00  0.11802506040E+01  0.00000000000E+00 0. -1.
         11    1    3    3    0    0  0.56319197119E+01 -0.82085281411E+01  0.71185972870E+01  0.12238173127E+02  0.51100000000E-03 0. -1.
        -11    1    3    3    0    0 -0.27478526095E+02 -0.11144722654E+02  0.21856976707E+02  0.36837503586E+02  0.51100000000E-03 0.  1.
         12    1    3    3    0    0  0.22169620050E+02  0.19968409276E+02 -0.28021512307E+02  0.40932072684E+02  0.00000000000E+00 0. -1.
</event>
<event>
 7    1  0.2490895E-015  0.9000776E+02  0.7816164E-02  0.1186339E+00
        -11   -1    0    0    0    0  0.00000000000E+00  0.00000000000E+00  0.45593999997E+02  0.45594000000E+02  0.51100000000E-03 0.  1.
         11   -1    0    0    0    0 -0.00000000000E+00 -0.00000000000E+00 -0.45593999997E+02  0.45594000000E+02  0.51100000000E-03 0. -1.
    9900012    2    1    2    0    0  0.64232790652E+00 -0.10807447462E+00 -0.98422465339E+00  0.90007761295E+02  0.90000022944E+02 0.  0.
         12    1    1    2    0    0 -0.64232790652E+00  0.10807447462E+00  0.98422465339E+00  0.11802387046E+01  0.00000000000E+00 0. -1.
         11    1    3    3    0    0 -0.33364678207E+01  0.97568249211E+01 -0.52337927531E+01  0.11563746664E+02  0.51100000000E-03 0. -1.
        -11    1    3    3    0    0 -0.40018280910E+01  0.23837096588E+02  0.27589394796E+02  0.36679647044E+02  0.51100000000E-03 0.  1.
         12    1    3    3    0    0  0.79806238182E+01 -0.33701995984E+02 -0.23339826696E+02  0.41764367588E+02  0.00000000000E+00 0. -1.
</event>
<event>
 7    1  0.2490895E-015  0.9000783E+02  0.7816164E-02  0.1186339E+00
        -11   -1    0    0    0    0  0.00000000000E+00  0.00000000000E+00  0.45593999997E+02  0.45594000000E+02  0.51100000000E-03 0.  1.
         11   -1    0    0    0    0 -0.00000000000E+00 -0.00000000000E+00 -0.45593999997E+02  0.45594000000E+02  0.51100000000E-03 0. -1.
    9900012    2    1    2    0    0 -0.92143900932E+00  0.47036511179E-01 -0.73589295258E+00  0.90007830216E+02  0.90000092775E+02 0.  0.
         12    1    1    2    0    0  0.92143900932E+00 -0.47036511179E-01  0.73589295258E+00  0.11801697840E+01  0.00000000000E+00 0. -1.
         11    1    3    3    0    0 -0.87981855613E+01 -0.88756169408E+01  0.93522889085E+00  0.12532330134E+02  0.51100000000E-03 0. -1.
        -11    1    3    3    0    0  0.30653446952E+02  0.46141324219E+01  0.26648353698E+02  0.40878585875E+02  0.51100000000E-03 0.  1.
         12    1    3    3    0    0 -0.22776700400E+02  0.43085210301E+01 -0.28319475541E+02  0.36596914207E+02  0.00000000000E+00 0. -1.
</event>
<event>
 7    1  0.2490895E-015  0.9000770E+02  0.7816164E-02  0.1186339E+00
        -11   -1    0    0    0    0  0.00000000000E+00  0.00000000000E+00  0.45593999997E+02  0.45594000000E+02  0.51100000000E-03 0. -1.
         11   -1    0    0    0    0 -0.00000000000E+00 -0.00000000000E+00 -0.45593999997E+02  0.45594000000E+02  0.51100000000E-03 0.  1.
    9900012    2    1    2    0    0  0.28189042801E+00 -0.97726392997E+00  0.59883357660E+00  0.90007699761E+02  0.89999960598E+02 0.  0.
         12    1    1    2    0    0 -0.28189042801E+00  0.97726392997E+00 -0.59883357660E+00  0.11803002392E+01  0.00000000000E+00 0. -1.
         11    1    3    3    0    0  0.17082281574E+02 -0.15597181343E+02 -0.27377284152E+02  0.35841206696E+02  0.51100000000E-03 0. -1.
        -11    1    3    3    0    0  0.29594407174E+01 -0.31262508382E+01 -0.82157162781E+01  0.92752211772E+01  0.51100000000E-03 0.  1.
        -12    1    3    3    0    0 -0.19759831864E+02  0.17746168251E+02  0.36191834007E+02  0.44891271887E+02  0.00000000000E+00 0.  1.
</event>
<event>
 7    1  0.2490895E-015  0.9000774E+02  0.7816164E-02  0.1186339E+00
        -11   -1    0    0    0    0  0.00000000000E+00  0.00000000000E+00  0.45593999997E+02  0.45594000000E+02  0.51100000000E-03 0.  1.
         11   -1    0    0    0    0 -0.00000000000E+00 -0.00000000000E+00 -0.45593999997E+02  0.45594000000E+02  0.51100000000E-03 0. -1.
    9900012    2    1    2    0    0 -0.16585561245E+00 -0.39477766530E+00  0.10998465187E+01  0.90007737379E+02  0.89999998713E+02 0.  0.
         12    1    1    2    0    0  0.16585561245E+00  0.39477766530E+00 -0.10998465187E+01  0.11802626208E+01  0.00000000000E+00 0. -1.
         11    1    3    3    0    0  0.11149095352E+02 -0.34576171616E+01  0.40890472538E+01  0.12368417495E+02  0.51100000000E-03 0. -1.
        -11    1    3    3    0    0 -0.25894831093E+02  0.21313723943E+02  0.24523314359E+02  0.41547684088E+02  0.51100000000E-03 0.  1.
         12    1    3    3    0    0  0.14579880128E+02 -0.18250884447E+02 -0.27512515094E+02  0.36091635796E+02  0.00000000000E+00 0. -1.
</event>
<event>
 7    1  0.2490895E-015  0.9000775E+02  0.7816164E-02  0.1186339E+00
        -11   -1    0    0    0    0  0.00000000000E+00  0.00000000000E+00  0.45593999997E+02  0.45594000000E+02  0.51100000000E-03 0.  1.
         11   -1    0    0    0    0 -0.00000000000E+00 -0.00000000000E+00 -0.45593999997E+02  0.45594000000E+02  0.51100000000E-03 0. -1.
    9900012    2    1    2    0    0 -0.74386146201E+00 -0.45489930263E+00  0.79544411597E+00  0.90007748081E+02  0.90000009556E+02 0.  0.
         12    1    1    2    0    0  0.74386146201E+00  0.45489930263E+00 -0.79544411597E+00  0.11802519188E+01  0.00000000000E+00 0. -1.
         11    1    3    3    0    0 -0.91289480653E+01 -0.63718372741E+00 -0.58053292345E+01  0.10837229520E+02  0.51100000000E-03 0. -1.
        -11    1    3    3    0    0 -0.24310239208E+01 -0.38564729813E+02  0.22326935268E+01  0.38705725462E+02  0.51100000000E-03 0.  1.
         12    1    3    3    0    0  0.10816110524E+02  0.38747014238E+02  0.43680798236E+01  0.40464793100E+02  0.00000000000E+00 0. -1.
</event>
<event>
 7    1  0.2490895E-015  0.9000775E+02  0.7816164E-02  0.1186339E+00
        -11   -1    0    0    0    0  0.00000000000E+00  0.00000000000E+00  0.45593999997E+02  0.45594000000E+02  0.51100000000E-03 0.  1.
         11   -1    0    0    0    0 -0.00000000000E+00 -0.00000000000E+00 -0.45593999997E+02  0.45594000000E+02  0.51100000000E-03 0. -1.
    9900012    2    1    2    0    0 -0.10115745427E+01 -0.30598803678E+00 -0.52542561230E+00  0.90007752650E+02  0.90000014185E+02 0.  0.
         12    1    1    2    0    0  0.10115745427E+01  0.30598803678E+00  0.52542561230E+00  0.11802473504E+01  0.00000000000E+00 0. -1.
         11    1    3    3    0    0  0.29164974956E+02  0.27146746940E+02  0.12158137291E+02  0.41657675598E+02  0.51100000000E-03 0. -1.
        -11    1    3    3    0    0  0.21533680032E+01  0.19821228131E+01 -0.58283844501E+00  0.29842093622E+01  0.51100000000E-03 0.  1.
        -12    1    3    3    0    0 -0.32329917502E+02 -0.29434857790E+02 -0.12100724458E+02  0.45365867689E+02  0.00000000000E+00 0.  1.
</event>
<event>
 7    1  0.2490895E-015  0.9000769E+02  0.7816164E-02  0.1186339E+00
        -11   -1    0    0    0    0  0.00000000000E+00  0.00000000000E+00  0.45593999997E+02  0.45594000000E+02  0.51100000000E-03 0. -1.
         11   -1    0    0    0    0 -0.00000000000E+00 -0.00000000000E+00 -0.45593999997E+02  0.45594000000E+02  0.51100000000E-03 0.  1.
    9900012    2    1    2    0    0 -0.70505009445E+00 -0.90865363606E+00 -0.26529885680E+00  0.90007690486E+02  0.89999951200E+02 0.  0.
         12    1    1    2    0    0  0.70505009445E+00  0.90865363606E+00  0.26529885680E+00  0.11803095143E+01  0.00000000000E+00 0. -1.
         11    1    3    3    0    0  0.27202615179E+02 -0.23977082918E+02 -0.10356197136E+02  0.37711186632E+02  0.51100000000E-03 0. -1.
        -11    1    3    3    0    0  0.47083757341E+01 -0.25401819530E+01  0.94079900279E+01  0.10822735469E+02  0.51100000000E-03 0.  1.
        -12    1    3    3    0    0 -0.32616041007E+02  0.25608611235E+02  0.68290825121E+00  0.41473768385E+02  0.00000000000E+00 0.  1.
</event>
<event>
 7    1  0.2490895E-015  0.9000767E+02  0.7816164E-02  0.1186339E+00
        -11   -1    0    0    0    0  0.00000000000E+00  0.00000000000E+00  0.45593999997E+02  0.45594000000E+02  0.51100000000E-03 0. -1.
         11   -1    0    0    0    0 -0.00000000000E+00 -0.00000000000E+00 -0.45593999997E+02  0.45594000000E+02  0.51100000000E-03 0.  1.
    9900012    2    1    2    0    0  0.23684434913E+00  0.87871535658E+00  0.75163136319E+00  0.90007667153E+02  0.89999927559E+02 0.  0.
         12    1    1    2    0    0 -0.23684434913E+00 -0.87871535658E+00 -0.75163136319E+00  0.11803328470E+01  0.00000000000E+00 0. -1.
         11    1    3    3    0    0 -0.13205954650E+02  0.12835594758E+02  0.13431659356E+01  0.18464935039E+02  0.51100000000E-03 0. -1.
        -11    1    3    3    0    0 -0.57424306619E+01 -0.16392240881E+01 -0.32424519942E+02  0.32969865927E+02  0.51100000000E-03 0.  1.
         12    1    3    3    0    0  0.19185229661E+02 -0.10317655314E+02  0.31832985369E+02  0.38572866187E+02  0.00000000000E+00 0. -1.
</event>
<event>
 7    1  0.2490895E-015  0.9000783E+02  0.7816164E-02  0.1186339E+00
        -11   -1    0    0    0    0  0.00000000000E+00  0.00000000000E+00  0.45593999997E+02  0.45594000000E+02  0.51100000000E-03 0. -1.
         11   -1    0    0    0    0 -0.00000000000E+00 -0.00000000000E+00 -0.45593999997E+02  0.45594000000E+02  0.51100000000E-03 0.  1.
    9900012    2    1    2    0    0 -0.11726393706E+00 -0.58668204065E-01 -0.11728623358E+01  0.90007831009E+02  0.90000093578E+02 0.  0.
         12    1    1    2    0    0  0.11726393706E+00  0.58668204065E-01  0.11728623358E+01  0.11801689912E+01  0.00000000000E+00 0. -1.
         11    1    3    3    0    0  0.37951097380E+02 -0.33873411898E+01 -0.18352938073E+02  0.42291727428E+02  0.51100000000E-03 0. -1.
        -11    1    3    3    0    0 -0.72909019342E+01 -0.86264488796E+01  0.24293199830E+01  0.11553115040E+02  0.51100000000E-03 0.  1.
        -12    1    3    3    0    0 -0.30777459383E+02  0.11955121865E+02  0.14750755754E+02  0.36162988541E+02  0.00000000000E+00 0.  1.
</event>
<event>
 7    1  0.2490895E-015  0.9000777E+02  0.7816164E-02  0.1186339E+00
        -11   -1    0    0    0    0  0.00000000000E+00  0.00000000000E+00  0.45593999997E+02  0.45594000000E+02  0.51100000000E-03 0. -1.
         11   -1    0    0    0    0 -0.00000000000E+00 -0.00000000000E+00 -0.45593999997E+02  0.45594000000E+02  0.51100000000E-03 0.  1.
    9900012    2    1    2    0    0  0.47521205384E+00 -0.42077650065E+00  0.99502405086E+00  0.90007766031E+02  0.90000027743E+02 0.  0.
         12    1    1    2    0    0 -0.47521205384E+00  0.42077650065E+00 -0.99502405086E+00  0.11802339689E+01  0.00000000000E+00 0. -1.
         11    1    3    3    0    0 -0.32341118685E+02 -0.80156294635E+01  0.10745138855E+02  0.35009374213E+02  0.51100000000E-03 0. -1.
        -11    1    3    3    0    0 -0.83850366372E+01 -0.62815497649E+01 -0.16159916388E+00  0.10478206975E+02  0.51100000000E-03 0.  1.
        -12    1    3    3    0    0  0.41201367376E+02  0.13876402728E+02 -0.95885156399E+01  0.44520184844E+02  0.00000000000E+00 0.  1.
</event>
<event>
 7    1  0.2490895E-015  0.9000777E+02  0.7816164E-02  0.1186339E+00
        -11   -1    0    0    0    0  0.00000000000E+00  0.00000000000E+00  0.45593999997E+02  0.45594000000E+02  0.51100000000E-03 0. -1.
         11   -1    0    0    0    0 -0.00000000000E+00 -0.00000000000E+00 -0.45593999997E+02  0.45594000000E+02  0.51100000000E-03 0.  1.
    9900012    2    1    2    0    0  0.85141970328E+00  0.58141786067E+00  0.57443776733E+00  0.90007770790E+02  0.90000032564E+02 0.  0.
         12    1    1    2    0    0 -0.85141970328E+00 -0.58141786067E+00 -0.57443776733E+00  0.11802292101E+01  0.00000000000E+00 0. -1.
         11    1    3    3    0    0  0.13545029789E+02  0.31983752247E+02 -0.62649966667E+00  0.34739325582E+02  0.51100000000E-03 0. -1.
        -11    1    3    3    0    0  0.41582116577E+01  0.94342814998E+01  0.38661343887E+01  0.11011057487E+02  0.51100000000E-03 0.  1.
        -12    1    3    3    0    0 -0.16851821743E+02 -0.40836615886E+02 -0.26651969547E+01  0.44257387721E+02  0.00000000000E+00 0.  1.
</event>
<event>
 7    1  0.2490895E-015  0.9000768E+02  0.7816164E-02  0.1186339E+00
        -11   -1    0    0    0    0  0.00000000000E+00  0.00000000000E+00  0.45593999997E+02  0.45594000000E+02  0.51100000000E-03 0.  1.
         11   -1    0    0    0    0 -0.00000000000E+00 -0.00000000000E+00 -0.45593999997E+02  0.45594000000E+02  0.51100000000E-03 0. -1.
    9900012    2    1    2    0    0 -0.51815434162E+00  0.77384131874E+00  0.72515691023E+00  0.90007675107E+02  0.89999935618E+02 0.  0.
         12    1    1    2    0    0  0.51815434162E+00 -0.77384131874E+00 -0.72515691023E+00  0.11803248929E+01  0.00000000000E+00 0. -1.
         11    1    3    3    0    0  0.37674088569E+01 -0.14716099913E+01  0.10292797878E+02  0.11058964413E+02  0.51100000000E-03 0. -1.
        -11    1    3    3    0    0  0.47958613407E+01  0.95697727435E+01  0.33061861599E+02  0.34751511176E+02  0.51100000000E-03 0.  1.
         12    1    3    3    0    0 -0.90814245392E+01 -0.73243214335E+01 -0.42629502567E+02  0.44197199518E+02  0.00000000000E+00 0. -1.
</event>
<event>
 7    1  0.2490895E-015  0.9000775E+02  0.7816164E-02  0.1186339E+00
        -11   -1    0    0    0    0  0.00000000000E+00  0.00000000000E+00  0.45593999997E+02  0.45594000000E+02  0.51100000000E-03 0. -1.
         11   -1    0    0    0    0 -0.00000000000E+00 -0.00000000000E+00 -0.45593999997E+02  0.45594000000E+02  0.51100000000E-03 0.  1.
    9900012    2    1    2    0    0 -0.23196959332E+00  0.89727759770E+00  0.73079626506E+00  0.90007754195E+02  0.90000015750E+02 0.  0.
         12    1    1    2    0    0  0.23196959332E+00 -0.89727759770E+00 -0.73079626506E+00  0.11802458052E+01  0.00000000000E+00 0. -1.
         11    1    3    3    0    0  0.78640887541E+01  0.13320022645E+01  0.47141932328E+01  0.92650817623E+01  0.51100000000E-03 0. -1.
        -11    1    3    3    0    0 -0.17494455805E+02  0.15978562371E+02  0.32162502869E+02  0.39947428333E+02  0.51100000000E-03 0.  1.
         12    1    3    3    0    0  0.93983974579E+01 -0.16413287038E+02 -0.36145899837E+02  0.40795244100E+02  0.00000000000E+00 0. -1.
</event>
<event>
 7    1  0.2490895E-015  0.9000761E+02  0.7816164E-02  0.1186339E+00
        -11   -1    0    0    0    0  0.00000000000E+00  0.00000000000E+00  0.45593999997E+02  0.45594000000E+02  0.51100000000E-03 0. -1.
         11   -1    0    0    0    0 -0.00000000000E+00 -0.00000000000E+00 -0.45593999997E+02  0.45594000000E+02  0.51100000000E-03 0.  1.
    9900012    2    1    2    0    0 -0.23988236646E-02  0.11801721589E+01 -0.22333613050E-01  0.90007614102E+02  0.89999873808E+02 0.  0.
         12    1    1    2    0    0  0.23988236646E-02 -0.11801721589E+01  0.22333613050E-01  0.11803858985E+01  0.00000000000E+00 0. -1.
         11    1    3    3    0    0 -0.35545303312E+02  0.18748315758E+02  0.29557278942E+01  0.40295213846E+02  0.51100000000E-03 0. -1.
        -11    1    3    3    0    0  0.26833257566E+00 -0.23371096671E+01  0.91293318857E+01  0.94275545561E+01  0.51100000000E-03 0.  1.
        -12    1    3    3    0    0  0.35274571912E+02 -0.15231033932E+02 -0.12107393393E+02  0.40284845699E+02  0.00000000000E+00 0.  1.
</event>
<event>
 7    1  0.2490895E-015  0.9000774E+02  0.7816164E-02  0.1186339E+00
        -11   -1    0    0    0    0  0.00000000000E+00  0.00000000000E+00  0.45593999997E+02  0.45594000000E+02  0.51100000000E-03 0.  1.
         11   -1    0    0    0    0 -0.00000000000E+00 -0.00000000000E+00 -0.45593999997E+02  0.45594000000E+02  0.51100000000E-03 0. -1.
    9900012    2    1    2    0    0  0.78773436076E+00 -0.51114183278E+00 -0.71499081524E+00  0.90007744408E+02  0.90000005834E+02 0.  0.
         12    1    1    2    0    0 -0.78773436076E+00  0.51114183278E+00  0.71499081524E+00  0.11802555919E+01  0.00000000000E+00 0. -1.
         11    1    3    3    0    0  0.28770345711E+02  0.26168849527E+02  0.17286184655E+02  0.42560000682E+02  0.51100000000E-03 0. -1.
        -11    1    3    3    0    0 -0.80227265807E+01 -0.10491969542E+00  0.24921156479E+01  0.84015350142E+01  0.51100000000E-03 0.  1.
        -12    1    3    3    0    0 -0.19959884769E+02 -0.26575071664E+02 -0.20493291118E+02  0.39046208712E+02  0.00000000000E+00 0.  1.
</event>
<event>
 7    1  0.2490895E-015  0.9000742E+02  0.7816164E-02  0.1186340E+00
        -11   -1    0    0    0    0  0.00000000000E+00  0.00000000000E+00  0.45593999997E+02  0.45594000000E+02  0.51100000000E-03 0. -1.
         11   -1    0    0    0    0 -0.00000000000E+00 -0.00000000000E+00 -0.45593999997E+02  0.45594000000E+02  0.51100000000E-03 0.  1.
    9900012    2    1    2    0    0  0.10339132226E+01  0.27407837069E+00  0.49968446575E+00  0.90007415369E+02  0.89999672452E+02 0.  0.
         12    1    1    2    0    0 -0.10339132226E+01 -0.27407837069E+00 -0.49968446575E+00  0.11805846308E+01  0.00000000000E+00 0. -1.
         11    1    3    3    0    0  0.24678127815E+02  0.14602919024E+02  0.18144013283E+02  0.33933176314E+02  0.51100000000E-03 0. -1.
        -11    1    3    3    0    0  0.13746404560E+02 -0.53186013857E+01 -0.56697553528E+01  0.15792317279E+02  0.51100000000E-03 0.  1.
        -12    1    3    3    0    0 -0.37390619153E+02 -0.90102392671E+01 -0.11974573465E+02  0.40281921776E+02  0.00000000000E+00 0.  1.
</event>
<event>
 7    1  0.2490895E-015  0.9000666E+02  0.7816164E-02  0.1186341E+00
        -11   -1    0    0    0    0  0.00000000000E+00  0.00000000000E+00  0.45593999997E+02  0.45594000000E+02  0.51100000000E-03 0.  1.
         11   -1    0    0    0    0 -0.00000000000E+00 -0.00000000000E+00 -0.45593999997E+02  0.45594000000E+02  0.51100000000E-03 0. -1.
    9900012    2    1    2    0    0 -0.63809624439E+00 -0.89331838340E+00 -0.43633257711E+00  0.90006657260E+02  0.89998904329E+02 0.  0.
         12    1    1    2    0    0  0.63809624439E+00  0.89331838340E+00  0.43633257711E+00  0.11813427399E+01  0.00000000000E+00 0. -1.
         11    1    3    3    0    0  0.25268877813E+01  0.92387076557E+01  0.21221752238E+01  0.98103266484E+01  0.51100000000E-03 0. -1.
        -11    1    3    3    0    0  0.28490265087E+02  0.20693456000E+02 -0.66066292012E+01  0.35826831784E+02  0.51100000000E-03 0.  1.
         12    1    3    3    0    0 -0.31655249113E+02 -0.30825482040E+02  0.40481214003E+01  0.44369498828E+02  0.00000000000E+00 0. -1.
</event>
<event>
 7    1  0.2490895E-015  0.9000810E+02  0.7816164E-02  0.1186338E+00
        -11   -1    0    0    0    0  0.00000000000E+00  0.00000000000E+00  0.45593999997E+02  0.45594000000E+02  0.51100000000E-03 0.  1.
         11   -1    0    0    0    0 -0.00000000000E+00 -0.00000000000E+00 -0.45593999997E+02  0.45594000000E+02  0.51100000000E-03 0. -1.
    9900012    2    1    2    0    0 -0.49311243962E+00  0.80221303948E+00  0.71096405215E+00  0.90008095122E+02  0.90000361176E+02 0.  0.
         12    1    1    2    0    0  0.49311243962E+00 -0.80221303948E+00 -0.71096405215E+00  0.11799048785E+01  0.00000000000E+00 0. -1.
         11    1    3    3    0    0  0.98233666937E+01  0.40329000010E+02  0.92640085092E-01  0.41508256497E+02  0.51100000000E-03 0. -1.
        -11    1    3    3    0    0  0.71923958726E+01 -0.29838438281E+01  0.16759349381E+01  0.79650888605E+01  0.51100000000E-03 0.  1.
        -12    1    3    3    0    0 -0.17508875006E+02 -0.36542943142E+02 -0.10576109710E+01  0.40534749764E+02  0.00000000000E+00 0.  1.
</event>
<event>
 7    1  0.2791574E-015  0.9000802E+02  0.7816164E-02  0.1186338E+00
        -11   -1    0    0    0    0  0.00000000000E+00  0.00000000000E+00  0.45593999997E+02  0.45594000000E+02  0.51100000000E-03 0.  1.
         11   -1    0    0    0    0 -0.00000000000E+00 -0.00000000000E+00 -0.45593999997E+02  0.45594000000E+02  0.51100000000E-03 0. -1.
    9900012    2    1    2    0    0  0.73704831231E+00  0.60643685766E+00 -0.69379325857E+00  0.90008019084E+02  0.90000284135E+02 0.  0.
         12    1    1    2    0    0 -0.73704831231E+00 -0.60643685766E+00  0.69379325857E+00  0.11799809162E+01  0.00000000000E+00 0. -1.
         11    1    3    3    0    0 -0.15686724127E+02 -0.26717343535E+02  0.19052828032E+02  0.36371692505E+02  0.51100000000E-03 0. -1.
        -11    1    3    3    0    0  0.31955405413E+01 -0.65540790856E+01  0.56949270013E+01  0.92520065836E+01  0.51100000000E-03 0.  1.
        -12    1    3    3    0    0  0.13228231898E+02  0.33877859478E+02 -0.25441548292E+02  0.44384319995E+02  0.00000000000E+00 0.  1.
</event>
<event>
 7    1  0.2490895E-015  0.9000774E+02  0.7816164E-02  0.1186339E+00
        -11   -1    0    0    0    0  0.00000000000E+00  0.00000000000E+00  0.45593999997E+02  0.45594000000E+02  0.51100000000E-03 0.  1.
         11   -1    0    0    0    0 -0.00000000000E+00 -0.00000000000E+00 -0.45593999997E+02  0.45594000000E+02  0.51100000000E-03 0. -1.
    9900012    2    1    2    0    0 -0.40350957086E+00  0.80953666243E+00  0.75817839648E+00  0.90007744069E+02  0.90000005491E+02 0.  0.
         12    1    1    2    0    0  0.40350957086E+00 -0.80953666243E+00 -0.75817839648E+00  0.11802559309E+01  0.00000000000E+00 0. -1.
         11    1    3    3    0    0 -0.37011617953E+01 -0.26746160266E+01 -0.94835790657E+01  0.10525703857E+02  0.51100000000E-03 0. -1.
        -11    1    3    3    0    0  0.48628460445E+01 -0.28318999840E+02  0.30372735150E+02  0.41810477925E+02  0.51100000000E-03 0.  1.
         12    1    3    3    0    0 -0.15651938201E+01  0.31803152529E+02 -0.20130977688E+02  0.37671562287E+02  0.00000000000E+00 0. -1.
</event>
<event>
 7    1  0.2490895E-015  0.9000803E+02  0.7816164E-02  0.1186338E+00
        -11   -1    0    0    0    0  0.00000000000E+00  0.00000000000E+00  0.45593999997E+02  0.45594000000E+02  0.51100000000E-03 0. -1.
         11   -1    0    0    0    0 -0.00000000000E+00 -0.00000000000E+00 -0.45593999997E+02  0.45594000000E+02  0.51100000000E-03 0.  1.
    9900012    2    1    2    0    0  0.63732869029E-01  0.29137899526E+00 -0.11416540886E+01  0.90008026417E+02  0.90000291566E+02 0.  0.
         12    1    1    2    0    0 -0.63732869029E-01 -0.29137899526E+00  0.11416540886E+01  0.11799735825E+01  0.00000000000E+00 0. -1.
         11    1    3    3    0    0  0.64581764566E+01 -0.64528777259E+01 -0.50261517255E+01  0.10421606187E+02  0.51100000000E-03 0. -1.
        -11    1    3    3    0    0  0.32442224365E+00 -0.13038054863E+02 -0.33948847296E+02  0.36367847852E+02  0.51100000000E-03 0.  1.
         12    1    3    3    0    0 -0.67188658312E+01  0.19782311584E+02  0.37833344932E+02  0.43218572379E+02  0.00000000000E+00 0. -1.
</event>
<event>
 7    1  0.2490895E-015  0.9000774E+02  0.7816164E-02  0.1186339E+00
        -11   -1    0    0    0    0  0.00000000000E+00  0.00000000000E+00  0.45593999997E+02  0.45594000000E+02  0.51100000000E-03 0. -1.
         11   -1    0    0    0    0 -0.00000000000E+00 -0.00000000000E+00 -0.45593999997E+02  0.45594000000E+02  0.51100000000E-03 0.  1.
    9900012    2    1    2    0    0  0.11211841405E+01 -0.36867690785E+00  0.53295893186E-02  0.90007743696E+02  0.90000005112E+02 0.  0.
         12    1    1    2    0    0 -0.11211841405E+01  0.36867690785E+00 -0.53295893187E-02  0.11802563043E+01  0.00000000000E+00 0. -1.
         11    1    3    3    0    0 -0.10177452928E+02  0.86331074283E+01 -0.23190198393E+02  0.26756240276E+02  0.51100000000E-03 0. -1.
        -11    1    3    3    0    0  0.45582257297E+01 -0.11180748874E+02 -0.17877025943E+02  0.21572543291E+02  0.51100000000E-03 0.  1.
         12    1    3    3    0    0  0.67404113392E+01  0.21789645381E+01  0.41072553925E+02  0.41678960129E+02  0.00000000000E+00 0. -1.
</event>
<event>
 7    1  0.2490895E-015  0.9000776E+02  0.7816164E-02  0.1186339E+00
        -11   -1    0    0    0    0  0.00000000000E+00  0.00000000000E+00  0.45593999997E+02  0.45594000000E+02  0.51100000000E-03 0.  1.
         11   -1    0    0    0    0 -0.00000000000E+00 -0.00000000000E+00 -0.45593999997E+02  0.45594000000E+02  0.51100000000E-03 0. -1.
    9900012    2    1    2    0    0  0.15836026491E+00  0.55648411119E+00  0.10286930159E+01  0.90007761948E+02  0.90000023605E+02 0.  0.
         12    1    1    2    0    0 -0.15836026491E+00 -0.55648411119E+00 -0.10286930159E+01  0.11802380524E+01  0.00000000000E+00 0. -1.
         11    1    3    3    0    0 -0.22471802499E+00  0.23538204624E+01  0.80398560551E+01  0.83803493130E+01  0.51100000000E-03 0. -1.
        -11    1    3    3    0    0 -0.28911920409E+02 -0.19647636914E+01  0.24972950520E+02  0.38254512100E+02  0.51100000000E-03 0.  1.
         12    1    3    3    0    0  0.29294998698E+02  0.16742734013E+00 -0.31984113559E+02  0.43372900535E+02  0.00000000000E+00 0. -1.
</event>
<event>
 7    1  0.2490895E-015  0.9000764E+02  0.7816164E-02  0.1186339E+00
        -11   -1    0    0    0    0  0.00000000000E+00  0.00000000000E+00  0.45593999997E+02  0.45594000000E+02  0.51100000000E-03 0.  1.
         11   -1    0    0    0    0 -0.00000000000E+00 -0.00000000000E+00 -0.45593999997E+02  0.45594000000E+02  0.51100000000E-03 0. -1.
    9900012    2    1    2    0    0  0.48174410794E+00 -0.35863930760E+00 -0.10161488769E+01  0.90007636463E+02  0.89999896465E+02 0.  0.
         12    1    1    2    0    0 -0.48174410794E+00  0.35863930760E+00  0.10161488769E+01  0.11803635366E+01  0.00000000000E+00 0. -1.
         11    1    3    3    0    0  0.14820021134E+02  0.13150065114E+01 -0.52577718266E+01  0.15779937686E+02  0.51100000000E-03 0. -1.
        -11    1    3    3    0    0 -0.13940056601E+02 -0.33168945025E+02  0.17552949570E+02  0.40032613342E+02  0.51100000000E-03 0.  1.
         12    1    3    3    0    0 -0.39822042485E+00  0.31495299206E+02 -0.13311326620E+02  0.34195085436E+02  0.00000000000E+00 0. -1.
</event>
<event>
 7    1  0.2490895E-015  0.9000701E+02  0.7816164E-02  0.1186340E+00
        -11   -1    0    0    0    0  0.00000000000E+00  0.00000000000E+00  0.45593999997E+02  0.45594000000E+02  0.51100000000E-03 0. -1.
         11   -1    0    0    0    0 -0.00000000000E+00 -0.00000000000E+00 -0.45593999997E+02  0.45594000000E+02  0.51100000000E-03 0.  1.
    9900012    2    1    2    0    0  0.97215450498E+00 -0.60584941792E+00  0.28738615039E+00  0.90007013676E+02  0.89999265453E+02 0.  0.
         12    1    1    2    0    0 -0.97215450498E+00  0.60584941792E+00 -0.28738615039E+00  0.11809863243E+01  0.00000000000E+00 0. -1.
         11    1    3    3    0    0  0.33041039640E+02  0.13471852344E+02 -0.52174162350E+01  0.36061371833E+02  0.51100000000E-03 0. -1.
        -11    1    3    3    0    0  0.93053149052E+01 -0.29936327549E+01 -0.31038236268E+01  0.10255946759E+02  0.51100000000E-03 0.  1.
        -12    1    3    3    0    0 -0.41374200040E+02 -0.11084069007E+02  0.86086260122E+01  0.43689695084E+02  0.00000000000E+00 0.  1.
</event>
<event>
 7    1  0.2490895E-015  0.9000772E+02  0.7816164E-02  0.1186339E+00
        -11   -1    0    0    0    0  0.00000000000E+00  0.00000000000E+00  0.45593999997E+02  0.45594000000E+02  0.51100000000E-03 0.  1.
         11   -1    0    0    0    0 -0.00000000000E+00 -0.00000000000E+00 -0.45593999997E+02  0.45594000000E+02  0.51100000000E-03 0. -1.
    9900012    2    1    2    0    0  0.45340976583E+00  0.43035782233E-01  0.10888692248E+01  0.90007716694E+02  0.89999977754E+02 0.  0.
         12    1    1    2    0    0 -0.45340976583E+00 -0.43035782233E-01 -0.10888692248E+01  0.11802833063E+01  0.00000000000E+00 0. -1.
         11    1    3    3    0    0 -0.73803392316E+01 -0.75363067652E+01  0.39243334834E+01  0.11254586638E+02  0.51100000000E-03 0. -1.
        -11    1    3    3    0    0 -0.28892792510E+02 -0.98887628541E+01  0.15378367600E+02  0.34191742865E+02  0.51100000000E-03 0.  1.
         12    1    3    3    0    0  0.36726541508E+02  0.17468105402E+02 -0.18213831859E+02  0.44561387191E+02  0.00000000000E+00 0. -1.
</event>
<event>
 7    1  0.2490895E-015  0.9000775E+02  0.7816164E-02  0.1186339E+00
        -11   -1    0    0    0    0  0.00000000000E+00  0.00000000000E+00  0.45593999997E+02  0.45594000000E+02  0.51100000000E-03 0. -1.
         11   -1    0    0    0    0 -0.00000000000E+00 -0.00000000000E+00 -0.45593999997E+02  0.45594000000E+02  0.51100000000E-03 0.  1.
    9900012    2    1    2    0    0  0.10592197192E+01 -0.27187508545E+00 -0.44398574542E+00  0.90007751798E+02  0.90000013322E+02 0.  0.
         12    1    1    2    0    0 -0.10592197192E+01  0.27187508545E+00  0.44398574542E+00  0.11802482017E+01  0.00000000000E+00 0. -1.
         11    1    3    3    0    0 -0.33278328343E+02 -0.89952808676E+01 -0.11103531293E+02  0.36216717447E+02  0.51100000000E-03 0. -1.
        -11    1    3    3    0    0 -0.66801526997E+01  0.20012408048E+00 -0.57320198366E+01  0.88045750271E+01  0.51100000000E-03 0.  1.
        -12    1    3    3    0    0  0.41017700762E+02  0.85232817017E+01  0.16391565384E+02  0.44986459324E+02  0.00000000000E+00 0.  1.
</event>
<event>
 7    1  0.2490895E-015  0.9000779E+02  0.7816164E-02  0.1186339E+00
        -11   -1    0    0    0    0  0.00000000000E+00  0.00000000000E+00  0.45593999997E+02  0.45594000000E+02  0.51100000000E-03 0. -1.
         11   -1    0    0    0    0 -0.00000000000E+00 -0.00000000000E+00 -0.45593999997E+02  0.45594000000E+02  0.51100000000E-03 0.  1.
    9900012    2    1    2    0    0  0.10754687983E+01 -0.36595432754E+00  0.31990666976E+00  0.90007789856E+02  0.90000051882E+02 0.  0.
         12    1    1    2    0    0 -0.10754687983E+01  0.36595432754E+00 -0.31990666976E+00  0.11802101437E+01  0.00000000000E+00 0. -1.
         11    1    3    3    0    0  0.96032301776E+01 -0.74981693480E+01 -0.55007491634E+01  0.13367977223E+02  0.51100000000E-03 0. -1.
        -11    1    3    3    0    0  0.19230574928E+02 -0.18815795823E+02 -0.17463730787E+02  0.32075396767E+02  0.51100000000E-03 0.  1.
         12    1    3    3    0    0 -0.27758336307E+02  0.25948010843E+02  0.23284386620E+02  0.44564415866E+02  0.00000000000E+00 0. -1.
</event>
<event>
 7    1  0.2490895E-015  0.9000778E+02  0.7816164E-02  0.1186339E+00
        -11   -1    0    0    0    0  0.00000000000E+00  0.00000000000E+00  0.45593999997E+02  0.45594000000E+02  0.51100000000E-03 0.  1.
         11   -1    0    0    0    0 -0.00000000000E+00 -0.00000000000E+00 -0.45593999997E+02  0.45594000000E+02  0.51100000000E-03 0. -1.
    9900012    2    1    2    0    0 -0.38567441299E+00  0.71351642495E+00  0.85735761651E+00  0.90007782849E+02  0.90000044782E+02 0.  0.
         12    1    1    2    0    0  0.38567441299E+00 -0.71351642495E+00 -0.85735761651E+00  0.11802171512E+01  0.00000000000E+00 0. -1.
         11    1    3    3    0    0 -0.54065373977E+01  0.13982730673E+01  0.45946304363E+01  0.72316279848E+01  0.51100000000E-03 0. -1.
        -11    1    3    3    0    0  0.23602567302E+02  0.35107541184E+02 -0.34836303249E+01  0.42447100157E+02  0.51100000000E-03 0.  1.
         12    1    3    3    0    0 -0.18581704317E+02 -0.35792297827E+02 -0.25364249488E+00  0.40329054707E+02  0.00000000000E+00 0. -1.
</event>
<event>
 7    1  0.2490895E-015  0.9000785E+02  0.7816164E-02  0.1186339E+00
        -11   -1    0    0    0    0  0.00000000000E+00  0.00000000000E+00  0.45593999997E+02  0.45594000000E+02  0.51100000000E-03 0.  1.
         11   -1    0    0    0    0 -0.00000000000E+00 -0.00000000000E+00 -0.45593999997E+02  0.45594000000E+02  0.51100000000E-03 0. -1.
    9900012    2    1    2    0    0 -0.98584812299E+00 -0.37072177417E-01  0.64767819602E+00  0.90007848351E+02  0.90000111150E+02 0.  0.
         12    1    1    2    0    0  0.98584812299E+00  0.37072177417E-01 -0.64767819602E+00  0.11801516485E+01  0.00000000000E+00 0. -1.
         11    1    3    3    0    0  0.25579172850E+02  0.31412686271E+02  0.82060014797E+01  0.41332667504E+02  0.51100000000E-03 0. -1.
        -11    1    3    3    0    0  0.13704713935E+00 -0.59130330580E+01  0.68209059817E+01  0.90281504494E+01  0.51100000000E-03 0.  1.
        -12    1    3    3    0    0 -0.26702068112E+02 -0.25536725390E+02 -0.14379229265E+02  0.39647030398E+02  0.00000000000E+00 0.  1.
</event>
<event>
 7    1  0.2490895E-015  0.9000775E+02  0.7816164E-02  0.1186339E+00
        -11   -1    0    0    0    0  0.00000000000E+00  0.00000000000E+00  0.45593999997E+02  0.45594000000E+02  0.51100000000E-03 0.  1.
         11   -1    0    0    0    0 -0.00000000000E+00 -0.00000000000E+00 -0.45593999997E+02  0.45594000000E+02  0.51100000000E-03 0. -1.
    9900012    2    1    2    0    0 -0.88422923904E+00 -0.75039601444E+00 -0.21915708320E+00  0.90007751995E+02  0.90000013522E+02 0.  0.
         12    1    1    2    0    0  0.88422923904E+00  0.75039601444E+00  0.21915708320E+00  0.11802480048E+01  0.00000000000E+00 0. -1.
         11    1    3    3    0    0  0.17986595057E+01  0.23339619870E+01 -0.79510336520E+01  0.84794746872E+01  0.51100000000E-03 0. -1.
        -11    1    3    3    0    0 -0.18974289043E+01 -0.19342075598E+02 -0.32646040903E+02  0.37993158749E+02  0.51100000000E-03 0.  1.
         12    1    3    3    0    0 -0.78545984044E+00  0.16257717596E+02  0.40377917471E+02  0.43535118559E+02  0.00000000000E+00 0. -1.
</event>
<event>
 7    1  0.2490895E-015  0.9000740E+02  0.7816164E-02  0.1186340E+00
        -11   -1    0    0    0    0  0.00000000000E+00  0.00000000000E+00  0.45593999997E+02  0.45594000000E+02  0.51100000000E-03 0.  1.
         11   -1    0    0    0    0 -0.00000000000E+00 -0.00000000000E+00 -0.45593999997E+02  0.45594000000E+02  0.51100000000E-03 0. -1.
    9900012    2    1    2    0    0  0.37334678046E+00  0.19258217291E+00  0.11033313651E+01  0.90007400232E+02  0.89999657114E+02 0.  0.
         12    1    1    2    0    0 -0.37334678046E+00 -0.19258217291E+00 -0.11033313651E+01  0.11805997684E+01  0.00000000000E+00 0. -1.
         11    1    3    3    0    0  0.17090830771E+02  0.88062467988E+01  0.30545582656E+02  0.36092646053E+02  0.51100000000E-03 0. -1.
        -11    1    3    3    0    0  0.59743779524E+01  0.22917508601E+01  0.70880323897E+01  0.95491108142E+01  0.51100000000E-03 0.  1.
        -12    1    3    3    0    0 -0.22691861943E+02 -0.10905415486E+02 -0.36530283680E+02  0.44365643364E+02  0.00000000000E+00 0.  1.
</event>
<event>
 7    1  0.2490895E-015  0.9000780E+02  0.7816164E-02  0.1186339E+00
        -11   -1    0    0    0    0  0.00000000000E+00  0.00000000000E+00  0.45593999997E+02  0.45594000000E+02  0.51100000000E-03 0. -1.
         11   -1    0    0    0    0 -0.00000000000E+00 -0.00000000000E+00 -0.45593999997E+02  0.45594000000E+02  0.51100000000E-03 0.  1.
    9900012    2    1    2    0    0  0.80723602115E+00 -0.69534793668E+00 -0.50766978135E+00  0.90007801985E+02  0.90000064172E+02 0.  0.
         12    1    1    2    0    0 -0.80723602115E+00  0.69534793668E+00  0.50766978135E+00  0.11801980146E+01  0.00000000000E+00 0. -1.
         11    1    3    3    0    0 -0.91738749012E+01 -0.41217484010E+01 -0.42765835858E+01  0.10928767452E+02  0.51100000000E-03 0. -1.
        -11    1    3    3    0    0  0.10700197281E+01  0.21915866352E+02 -0.31431016989E+02  0.38332218425E+02  0.51100000000E-03 0.  1.
         12    1    3    3    0    0  0.89110911942E+01 -0.18489465888E+02  0.35199930794E+02  0.40746816108E+02  0.00000000000E+00 0. -1.
</event>
<event>
 7    1  0.2490895E-015  0.9000768E+02  0.7816164E-02  0.1186339E+00
        -11   -1    0    0    0    0  0.00000000000E+00  0.00000000000E+00  0.45593999997E+02  0.45594000000E+02  0.51100000000E-03 0. -1.
         11   -1    0    0    0    0 -0.00000000000E+00 -0.00000000000E+00 -0.45593999997E+02  0.45594000000E+02  0.51100000000E-03 0.  1.
    9900012    2    1    2    0    0  0.11780556031E+01 -0.72114073045E-01 -0.11550579830E-01  0.90007682729E+02  0.89999943341E+02 0.  0.
         12    1    1    2    0    0 -0.11780556031E+01  0.72114073045E-01  0.11550579830E-01  0.11803172707E+01  0.00000000000E+00 0. -1.
         11    1    3    3    0    0  0.59257865304E+01 -0.45543553181E+01 -0.24068983878E+01  0.78517678568E+01  0.51100000000E-03 0. -1.
        -11    1    3    3    0    0  0.16356439919E+02  0.10605929434E+02 -0.34260288280E+02  0.39418095074E+02  0.51100000000E-03 0.  1.
         12    1    3    3    0    0 -0.21104170846E+02 -0.61236881890E+01  0.36655636088E+02  0.42737819799E+02  0.00000000000E+00 0. -1.
</event>
<event>
 7    1  0.2490895E-015  0.9000762E+02  0.7816164E-02  0.1186339E+00
        -11   -1    0    0    0    0  0.00000000000E+00  0.00000000000E+00  0.45593999997E+02  0.45594000000E+02  0.51100000000E-03 0. -1.
         11   -1    0    0    0    0 -0.00000000000E+00 -0.00000000000E+00 -0.45593999997E+02  0.45594000000E+02  0.51100000000E-03 0.  1.
    9900012    2    1    2    0    0 -0.14651638716E+00 -0.11615869371E+01  0.15018399504E+00  0.90007615954E+02  0.89999875684E+02 0.  0.
         12    1    1    2    0    0  0.14651638716E+00  0.11615869371E+01 -0.15018399504E+00  0.11803840462E+01  0.00000000000E+00 0. -1.
         11    1    3    3    0    0  0.25936986634E+02 -0.27401535128E+02  0.14370599170E+01  0.37757602473E+02  0.51100000000E-03 0. -1.
        -11    1    3    3    0    0  0.86028106801E+00 -0.58649729314E+01  0.73642416943E+01  0.94535732395E+01  0.51100000000E-03 0.  1.
        -12    1    3    3    0    0 -0.26943784089E+02  0.32104921123E+02 -0.86511176163E+01  0.42796440241E+02  0.00000000000E+00 0.  1.
</event>
<event>
 7    1  0.2716819E-015  0.9000779E+02  0.7816164E-02  0.1186339E+00
        -11   -1    0    0    0    0  0.00000000000E+00  0.00000000000E+00  0.45593999997E+02  0.45594000000E+02  0.51100000000E-03 0. -1.
         11   -1    0    0    0    0 -0.00000000000E+00 -0.00000000000E+00 -0.45593999997E+02  0.45594000000E+02  0.51100000000E-03 0.  1.
    9900012    2    1    2    0    0  0.40366068201E-01  0.15677217127E+00 -0.11690577314E+01  0.90007786921E+02  0.90000048908E+02 0.  0.
         12    1    1    2    0    0 -0.40366068201E-01 -0.15677217127E+00  0.11690577314E+01  0.11802130793E+01  0.00000000000E+00 0. -1.
         11    1    3    3    0    0  0.29555742926E+02 -0.22864426928E+02  0.19251574404E+02  0.42035069596E+02  0.51100000000E-03 0. -1.
        -11    1    3    3    0    0  0.14574348675E+01  0.52636679632E+01 -0.89284845528E+01  0.10466525378E+02  0.51100000000E-03 0.  1.
        -12    1    3    3    0    0 -0.30972811726E+02  0.17757531136E+02 -0.11492147583E+02  0.37506191946E+02  0.00000000000E+00 0.  1.
</event>
<event>
 7    1  0.2490895E-015  0.9000768E+02  0.7816164E-02  0.1186339E+00
        -11   -1    0    0    0    0  0.00000000000E+00  0.00000000000E+00  0.45593999997E+02  0.45594000000E+02  0.51100000000E-03 0.  1.
         11   -1    0    0    0    0 -0.00000000000E+00 -0.00000000000E+00 -0.45593999997E+02  0.45594000000E+02  0.51100000000E-03 0. -1.
    9900012    2    1    2    0    0 -0.97584496762E+00  0.40680593232E+00  0.52477199072E+00  0.90007682200E+02  0.89999942805E+02 0.  0.
         12    1    1    2    0    0  0.97584496762E+00 -0.40680593232E+00 -0.52477199072E+00  0.11803178003E+01  0.00000000000E+00 0. -1.
         11    1    3    3    0    0  0.24488134388E+02 -0.12002283989E+00 -0.27039020438E+02  0.36480018610E+02  0.51100000000E-03 0. -1.
        -11    1    3    3    0    0  0.73171705130E+01 -0.18531378713E+01 -0.34849216188E+01  0.83138308400E+01  0.51100000000E-03 0.  1.
        -12    1    3    3    0    0 -0.32781149868E+02  0.23799666435E+01  0.31048714048E+02  0.45213832750E+02  0.00000000000E+00 0.  1.
</event>
<event>
 7    1  0.2490895E-015  0.9000775E+02  0.7816164E-02  0.1186339E+00
        -11   -1    0    0    0    0  0.00000000000E+00  0.00000000000E+00  0.45593999997E+02  0.45594000000E+02  0.51100000000E-03 0.  1.
         11   -1    0    0    0    0 -0.00000000000E+00 -0.00000000000E+00 -0.45593999997E+02  0.45594000000E+02  0.51100000000E-03 0. -1.
    9900012    2    1    2    0    0 -0.51427496811E+00  0.58558119731E+00  0.88634196347E+00  0.90007751654E+02  0.90000013176E+02 0.  0.
         12    1    1    2    0    0  0.51427496811E+00 -0.58558119731E+00 -0.88634196347E+00  0.11802483458E+01  0.00000000000E+00 0. -1.
         11    1    3    3    0    0  0.25955065778E+01  0.47107831626E+01  0.10011212102E+02  0.11364528165E+02  0.51100000000E-03 0. -1.
        -11    1    3    3    0    0 -0.21999918030E+01  0.25814146500E+02  0.23054812865E+02  0.34680463087E+02  0.51100000000E-03 0.  1.
         12    1    3    3    0    0 -0.90978974296E+00 -0.29939348465E+02 -0.32179683004E+02  0.43962760402E+02  0.00000000000E+00 0. -1.
</event>
<event>
 7    1  0.2490895E-015  0.9000774E+02  0.7816164E-02  0.1186339E+00
        -11   -1    0    0    0    0  0.00000000000E+00  0.00000000000E+00  0.45593999997E+02  0.45594000000E+02  0.51100000000E-03 0.  1.
         11   -1    0    0    0    0 -0.00000000000E+00 -0.00000000000E+00 -0.45593999997E+02  0.45594000000E+02  0.51100000000E-03 0. -1.
    9900012    2    1    2    0    0 -0.27437408926E+00  0.80061102528E+00  0.82264450218E+00  0.90007744463E+02  0.90000005890E+02 0.  0.
         12    1    1    2    0    0  0.27437408926E+00 -0.80061102528E+00 -0.82264450218E+00  0.11802555366E+01  0.00000000000E+00 0. -1.
         11    1    3    3    0    0  0.21787915864E+01 -0.77754997869E+01 -0.42001233982E+01  0.91020089285E+01  0.51100000000E-03 0. -1.
        -11    1    3    3    0    0 -0.28393247288E+02  0.15289417733E+02  0.30168552086E+02  0.44159759073E+02  0.51100000000E-03 0.  1.
         12    1    3    3    0    0  0.25940081612E+02 -0.67133069207E+01 -0.25145784185E+02  0.36745976462E+02  0.00000000000E+00 0. -1.
</event>
<event>
 7    1  0.2490895E-015  0.9000782E+02  0.7816164E-02  0.1186339E+00
        -11   -1    0    0    0    0  0.00000000000E+00  0.00000000000E+00  0.45593999997E+02  0.45594000000E+02  0.51100000000E-03 0.  1.
         11   -1    0    0    0    0 -0.00000000000E+00 -0.00000000000E+00 -0.45593999997E+02  0.45594000000E+02  0.51100000000E-03 0. -1.
    9900012    2    1    2    0    0  0.84535615797E+00 -0.67171582834E+00  0.47644166048E+00  0.90007819572E+02  0.90000081990E+02 0.  0.
         12    1    1    2    0    0 -0.84535615797E+00  0.67171582834E+00 -0.47644166048E+00  0.11801804285E+01  0.00000000000E+00 0. -1.
         11    1    3    3    0    0 -0.12547831069E+02 -0.43600213665E-01  0.28261685414E+01  0.12862239090E+02  0.51100000000E-03 0. -1.
        -11    1    3    3    0    0  0.15239929196E+02  0.95590059163E+00  0.35798852505E+02  0.38919494200E+02  0.51100000000E-03 0.  1.
         12    1    3    3    0    0 -0.18467419687E+01 -0.15840162063E+01 -0.38148579386E+02  0.38226086282E+02  0.00000000000E+00 0. -1.
</event>
<event>
 7    1  0.2490895E-015  0.9000776E+02  0.7816164E-02  0.1186339E+00
        -11   -1    0    0    0    0  0.00000000000E+00  0.00000000000E+00  0.45593999997E+02  0.45594000000E+02  0.51100000000E-03 0. -1.
         11   -1    0    0    0    0 -0.00000000000E+00 -0.00000000000E+00 -0.45593999997E+02  0.45594000000E+02  0.51100000000E-03 0.  1.
    9900012    2    1    2    0    0  0.44657311601E+00  0.95744571847E+00 -0.52614670443E+00  0.90007762648E+02  0.90000024315E+02 0.  0.
         12    1    1    2    0    0 -0.44657311601E+00 -0.95744571847E+00  0.52614670443E+00  0.11802373517E+01  0.00000000000E+00 0. -1.
         11    1    3    3    0    0  0.17745476626E+02  0.33188446574E+02  0.13616755592E+02  0.40022380737E+02  0.51100000000E-03 0. -1.
        -11    1    3    3    0    0  0.75037834155E+01 -0.33350721787E+00 -0.28200367289E+01  0.80231290670E+01  0.51100000000E-03 0.  1.
        -12    1    3    3    0    0 -0.24802686926E+02 -0.31897493638E+02 -0.11322865568E+02  0.41962252845E+02  0.00000000000E+00 0.  1.
</event>
<event>
 7    1  0.2490895E-015  0.9000768E+02  0.7816164E-02  0.1186339E+00
        -11   -1    0    0    0    0  0.00000000000E+00  0.00000000000E+00  0.45593999997E+02  0.45594000000E+02  0.51100000000E-03 0. -1.
         11   -1    0    0    0    0 -0.00000000000E+00 -0.00000000000E+00 -0.45593999997E+02  0.45594000000E+02  0.51100000000E-03 0.  1.
    9900012    2    1    2    0    0 -0.71938431292E+00  0.50986549961E+00 -0.78464707212E+00  0.90007683244E+02  0.89999943863E+02 0.  0.
         12    1    1    2    0    0  0.71938431292E+00 -0.50986549961E+00  0.78464707212E+00  0.11803167563E+01  0.00000000000E+00 0. -1.
         11    1    3    3    0    0 -0.11755089183E+01 -0.15277612747E+02  0.87650518841E+01  0.17652575089E+02  0.51100000000E-03 0. -1.
        -11    1    3    3    0    0 -0.38867030129E+01 -0.10323471243E+02  0.25878071064E+02  0.28131034127E+02  0.51100000000E-03 0.  1.
        -12    1    3    3    0    0  0.43428276182E+01  0.26110949490E+02 -0.35427770020E+02  0.44224074028E+02  0.00000000000E+00 0.  1.
</event>
<event>
 7    1  0.2490895E-015  0.9000764E+02  0.7816164E-02  0.1186339E+00
        -11   -1    0    0    0    0  0.00000000000E+00  0.00000000000E+00  0.45593999997E+02  0.45594000000E+02  0.51100000000E-03 0.  1.
         11   -1    0    0    0    0 -0.00000000000E+00 -0.00000000000E+00 -0.45593999997E+02  0.45594000000E+02  0.51100000000E-03 0. -1.
    9900012    2    1    2    0    0 -0.37363615932E+00  0.45526177645E+00  0.10229241934E+01  0.90007643626E+02  0.89999903722E+02 0.  0.
         12    1    1    2    0    0  0.37363615932E+00 -0.45526177645E+00 -0.10229241934E+01  0.11803563742E+01  0.00000000000E+00 0. -1.
         11    1    3    3    0    0 -0.28293867805E+02  0.11133936726E+02 -0.29937786432E+02  0.42670581893E+02  0.51100000000E-03 0. -1.
        -11    1    3    3    0    0  0.98733528595E+01 -0.22447479498E+01 -0.45780969206E+00  0.10135658835E+02  0.51100000000E-03 0.  1.
        -12    1    3    3    0    0  0.18046878787E+02 -0.84339269993E+01  0.31418520318E+02  0.37201402897E+02  0.00000000000E+00 0.  1.
</event>
<event>
 7    1  0.2490895E-015  0.9000763E+02  0.7816164E-02  0.1186339E+00
        -11   -1    0    0    0    0  0.00000000000E+00  0.00000000000E+00  0.45593999997E+02  0.45594000000E+02  0.51100000000E-03 0.  1.
         11   -1    0    0    0    0 -0.00000000000E+00 -0.00000000000E+00 -0.45593999997E+02  0.45594000000E+02  0.51100000000E-03 0. -1.
    9900012    2    1    2    0    0 -0.53984444215E+00 -0.39713090707E+00 -0.97166869104E+00  0.90007625049E+02  0.89999884900E+02 0.  0.
         12    1    1    2    0    0  0.53984444215E+00  0.39713090707E+00  0.97166869104E+00  0.11803749507E+01  0.00000000000E+00 0. -1.
         11    1    3    3    0    0 -0.51166972049E+01  0.44442547846E+01  0.63545256053E+01  0.92904244686E+01  0.51100000000E-03 0. -1.
        -11    1    3    3    0    0 -0.60875159043E+01  0.16714700520E+02  0.30841785028E+02  0.35604139750E+02  0.51100000000E-03 0.  1.
         12    1    3    3    0    0  0.10664368667E+02 -0.21556086211E+02 -0.38167979324E+02  0.45113060831E+02  0.00000000000E+00 0. -1.
</event>
<event>
 7    1  0.2490895E-015  0.9000757E+02  0.7816164E-02  0.1186339E+00
        -11   -1    0    0    0    0  0.00000000000E+00  0.00000000000E+00  0.45593999997E+02  0.45594000000E+02  0.51100000000E-03 0. -1.
         11   -1    0    0    0    0 -0.00000000000E+00 -0.00000000000E+00 -0.45593999997E+02  0.45594000000E+02  0.51100000000E-03 0.  1.
    9900012    2    1    2    0    0  0.67490411566E+00 -0.48498676775E+00 -0.83827214015E+00  0.90007572996E+02  0.89999832160E+02 0.  0.
         12    1    1    2    0    0 -0.67490411566E+00  0.48498676775E+00  0.83827214015E+00  0.11804270037E+01  0.00000000000E+00 0. -1.
         11    1    3    3    0    0  0.11869098169E+02 -0.29750101176E+02 -0.18011926318E+02  0.36747428499E+02  0.51100000000E-03 0. -1.
        -11    1    3    3    0    0  0.68531347651E+01 -0.70684900224E+01  0.34992569884E+01  0.10448627041E+02  0.51100000000E-03 0.  1.
        -12    1    3    3    0    0 -0.18047328819E+02  0.36333604431E+02  0.13674397189E+02  0.42811517456E+02  0.00000000000E+00 0.  1.
</event>
<event>
 7    1  0.2490895E-015  0.9000778E+02  0.7816164E-02  0.1186339E+00
        -11   -1    0    0    0    0  0.00000000000E+00  0.00000000000E+00  0.45593999997E+02  0.45594000000E+02  0.51100000000E-03 0.  1.
         11   -1    0    0    0    0 -0.00000000000E+00 -0.00000000000E+00 -0.45593999997E+02  0.45594000000E+02  0.51100000000E-03 0. -1.
    9900012    2    1    2    0    0  0.54577004765E+00 -0.10432175793E+01  0.82152625419E-01  0.90007780988E+02  0.90000042897E+02 0.  0.
         12    1    1    2    0    0 -0.54577004765E+00  0.10432175793E+01 -0.82152625419E-01  0.11802190121E+01  0.00000000000E+00 0. -1.
         11    1    3    3    0    0  0.37425840173E+02 -0.65536402339E+01 -0.15346548354E+02  0.40977557999E+02  0.51100000000E-03 0. -1.
        -11    1    3    3    0    0 -0.17925415518E+01  0.99136896449E+01 -0.83065980981E+00  0.10108632132E+02  0.51100000000E-03 0.  1.
        -12    1    3    3    0    0 -0.35087528573E+02 -0.44032669903E+01  0.16259360789E+02  0.38921590857E+02  0.00000000000E+00 0.  1.
</event>
<event>
 7    1  0.2490895E-015  0.9000764E+02  0.7816164E-02  0.1186339E+00
        -11   -1    0    0    0    0  0.00000000000E+00  0.00000000000E+00  0.45593999997E+02  0.45594000000E+02  0.51100000000E-03 0. -1.
         11   -1    0    0    0    0 -0.00000000000E+00 -0.00000000000E+00 -0.45593999997E+02  0.45594000000E+02  0.51100000000E-03 0.  1.
    9900012    2    1    2    0    0  0.51632516771E+00  0.31034527674E+00 -0.10150633073E+01  0.90007635909E+02  0.89999895903E+02 0.  0.
         12    1    1    2    0    0 -0.51632516771E+00 -0.31034527674E+00  0.10150633073E+01  0.11803640911E+01  0.00000000000E+00 0. -1.
         11    1    3    3    0    0  0.56053631115E+01  0.16502533477E+02 -0.49038922909E+01  0.18105299407E+02  0.51100000000E-03 0. -1.
        -11    1    3    3    0    0  0.22908206479E+02  0.95789552024E+00 -0.20694510347E+02  0.30886344016E+02  0.51100000000E-03 0.  1.
         12    1    3    3    0    0 -0.27997244423E+02 -0.17150083720E+02  0.24583339331E+02  0.41015992485E+02  0.00000000000E+00 0. -1.
</event>
<event>
 7    1  0.2490895E-015  0.9000776E+02  0.7816164E-02  0.1186339E+00
        -11   -1    0    0    0    0  0.00000000000E+00  0.00000000000E+00  0.45593999997E+02  0.45594000000E+02  0.51100000000E-03 0.  1.
         11   -1    0    0    0    0 -0.00000000000E+00 -0.00000000000E+00 -0.45593999997E+02  0.45594000000E+02  0.51100000000E-03 0. -1.
    9900012    2    1    2    0    0 -0.63644246017E+00  0.83864026423E+00  0.53346826286E+00  0.90007760666E+02  0.90000022307E+02 0.  0.
         12    1    1    2    0    0  0.63644246017E+00 -0.83864026423E+00 -0.53346826286E+00  0.11802393339E+01  0.00000000000E+00 0. -1.
         11    1    3    3    0    0  0.23830449914E+02  0.16948220986E+02  0.27096362005E+02  0.39866594686E+02  0.51100000000E-03 0. -1.
        -11    1    3    3    0    0 -0.40157368912E+01  0.36419355532E+01  0.51999506806E+01  0.75119454667E+01  0.51100000000E-03 0.  1.
        -12    1    3    3    0    0 -0.20451155483E+02 -0.19751516275E+02 -0.31762844423E+02  0.42629220513E+02  0.00000000000E+00 0.  1.
</event>
<event>
 7    1  0.2490895E-015  0.9000769E+02  0.7816164E-02  0.1186339E+00
        -11   -1    0    0    0    0  0.00000000000E+00  0.00000000000E+00  0.45593999997E+02  0.45594000000E+02  0.51100000000E-03 0.  1.
         11   -1    0    0    0    0 -0.00000000000E+00 -0.00000000000E+00 -0.45593999997E+02  0.45594000000E+02  0.51100000000E-03 0. -1.
    9900012    2    1    2    0    0  0.31148475644E+00  0.46072399386E+00  0.10410722746E+01  0.90007694602E+02  0.89999955371E+02 0.  0.
         12    1    1    2    0    0 -0.31148475644E+00 -0.46072399386E+00 -0.10410722746E+01  0.11803053982E+01  0.00000000000E+00 0. -1.
         11    1    3    3    0    0  0.25612821393E+02  0.25434137226E+02  0.74620884497E+01  0.36859119909E+02  0.51100000000E-03 0. -1.
        -11    1    3    3    0    0  0.32637808446E+01  0.26306011144E+01  0.94764125431E+01  0.10362177502E+02  0.51100000000E-03 0.  1.
        -12    1    3    3    0    0 -0.28565117481E+02 -0.27604014347E+02 -0.15897428718E+02  0.42786397192E+02  0.00000000000E+00 0.  1.
</event>
<event>
 7    1  0.2490895E-015  0.9000780E+02  0.7816164E-02  0.1186339E+00
        -11   -1    0    0    0    0  0.00000000000E+00  0.00000000000E+00  0.45593999997E+02  0.45594000000E+02  0.51100000000E-03 0. -1.
         11   -1    0    0    0    0 -0.00000000000E+00 -0.00000000000E+00 -0.45593999997E+02  0.45594000000E+02  0.51100000000E-03 0.  1.
    9900012    2    1    2    0    0  0.10220220000E+01 -0.30369714862E+00 -0.50607142364E+00  0.90007801198E+02  0.90000063374E+02 0.  0.
         12    1    1    2    0    0 -0.10220220000E+01  0.30369714862E+00  0.50607142364E+00  0.11801988021E+01  0.00000000000E+00 0. -1.
         11    1    3    3    0    0 -0.20886754282E+02  0.21757200837E+02  0.24122142387E+02  0.38620073100E+02  0.51100000000E-03 0. -1.
        -11    1    3    3    0    0 -0.12372090456E+01  0.74470671942E+01 -0.32437304278E+01  0.82165250177E+01  0.51100000000E-03 0.  1.
        -12    1    3    3    0    0  0.23145985328E+02 -0.29507965179E+02 -0.21384483382E+02  0.43171203080E+02  0.00000000000E+00 0.  1.
</event>
<event>
 7    1  0.2490895E-015  0.9000784E+02  0.7816164E-02  0.1186339E+00
        -11   -1    0    0    0    0  0.00000000000E+00  0.00000000000E+00  0.45593999997E+02  0.45594000000E+02  0.51100000000E-03 0. -1.
         11   -1    0    0    0    0 -0.00000000000E+00 -0.00000000000E+00 -0.45593999997E+02  0.45594000000E+02  0.51100000000E-03 0.  1.
    9900012    2    1    2    0    0 -0.16687545488E+00  0.68787036014E+00 -0.94432947636E+00  0.90007842718E+02  0.90000105442E+02 0.  0.
         12    1    1    2    0    0  0.16687545488E+00 -0.68787036014E+00  0.94432947636E+00  0.11801572818E+01  0.00000000000E+00 0. -1.
         11    1    3    3    0    0  0.86555310269E+01 -0.14933448146E+02  0.35065408616E+02  0.39083359279E+02  0.51100000000E-03 0. -1.
        -11    1    3    3    0    0 -0.53204125316E+00  0.62772927388E+01  0.50073483256E+01  0.80474225401E+01  0.51100000000E-03 0.  1.
        -12    1    3    3    0    0 -0.82903652287E+01  0.93440257672E+01 -0.41017086418E+02  0.42877060899E+02  0.00000000000E+00 0.  1.
</event>
<event>
 7    1  0.2490895E-015  0.9000790E+02  0.7816164E-02  0.1186339E+00
        -11   -1    0    0    0    0  0.00000000000E+00  0.00000000000E+00  0.45593999997E+02  0.45594000000E+02  0.51100000000E-03 0.  1.
         11   -1    0    0    0    0 -0.00000000000E+00 -0.00000000000E+00 -0.45593999997E+02  0.45594000000E+02  0.51100000000E-03 0. -1.
    9900012    2    1    2    0    0 -0.65640706057E+00  0.59317748939E+00  0.78095824964E+00  0.90007904432E+02  0.90000167970E+02 0.  0.
         12    1    1    2    0    0  0.65640706057E+00 -0.59317748939E+00 -0.78095824964E+00  0.11800955685E+01  0.00000000000E+00 0. -1.
         11    1    3    3    0    0  0.13638544925E+01  0.89478270794E+01  0.30597328229E+01  0.95543536531E+01  0.51100000000E-03 0. -1.
        -11    1    3    3    0    0  0.13587938489E+02  0.22027601416E+02  0.25570197866E+02  0.36382445158E+02  0.51100000000E-03 0.  1.
         12    1    3    3    0    0 -0.15608200042E+02 -0.30382251006E+02 -0.27848972439E+02  0.44071105621E+02  0.00000000000E+00 0. -1.
</event>
<event>
 7    1  0.2490895E-015  0.9000778E+02  0.7816164E-02  0.1186339E+00
        -11   -1    0    0    0    0  0.00000000000E+00  0.00000000000E+00  0.45593999997E+02  0.45594000000E+02  0.51100000000E-03 0.  1.
         11   -1    0    0    0    0 -0.00000000000E+00 -0.00000000000E+00 -0.45593999997E+02  0.45594000000E+02  0.51100000000E-03 0. -1.
    9900012    2    1    2    0    0 -0.13697773868E+00  0.10094405032E+01  0.59597801540E+00  0.90007778485E+02  0.90000040361E+02 0.  0.
         12    1    1    2    0    0  0.13697773868E+00 -0.10094405032E+01 -0.59597801540E+00  0.11802215153E+01  0.00000000000E+00 0. -1.
         11    1    3    3    0    0 -0.15390486585E+02  0.19705606696E+02 -0.28957070573E+02  0.38258201069E+02  0.51100000000E-03 0. -1.
        -11    1    3    3    0    0 -0.79545355466E+01  0.36061090104E+01  0.11250285940E+01  0.88059268425E+01  0.51100000000E-03 0.  1.
        -12    1    3    3    0    0  0.23208044393E+02 -0.22302275203E+02  0.28428019994E+02  0.42943650574E+02  0.00000000000E+00 0.  1.
</event>
<event>
 7    1  0.2490895E-015  0.9000779E+02  0.7816164E-02  0.1186339E+00
        -11   -1    0    0    0    0  0.00000000000E+00  0.00000000000E+00  0.45593999997E+02  0.45594000000E+02  0.51100000000E-03 0.  1.
         11   -1    0    0    0    0 -0.00000000000E+00 -0.00000000000E+00 -0.45593999997E+02  0.45594000000E+02  0.51100000000E-03 0. -1.
    9900012    2    1    2    0    0  0.86945562507E+00  0.55579970817E+00  0.57273366729E+00  0.90007792284E+02  0.90000054342E+02 0.  0.
         12    1    1    2    0    0 -0.86945562507E+00 -0.55579970817E+00 -0.57273366729E+00  0.11802077161E+01  0.00000000000E+00 0. -1.
         11    1    3    3    0    0 -0.16874476695E+02 -0.34977095383E+02 -0.97362664054E+01  0.40036733745E+02  0.51100000000E-03 0. -1.
        -11    1    3    3    0    0 -0.56753005472E+01  0.46917733970E+01  0.84402440025E+01  0.11200870189E+02  0.51100000000E-03 0.  1.
        -12    1    3    3    0    0  0.23419232867E+02  0.30841121694E+02  0.18687560702E+01  0.38770188350E+02  0.00000000000E+00 0.  1.
</event>
<event>
 7    1  0.2490895E-015  0.9000790E+02  0.7816164E-02  0.1186339E+00
        -11   -1    0    0    0    0  0.00000000000E+00  0.00000000000E+00  0.45593999997E+02  0.45594000000E+02  0.51100000000E-03 0.  1.
         11   -1    0    0    0    0 -0.00000000000E+00 -0.00000000000E+00 -0.45593999997E+02  0.45594000000E+02  0.51100000000E-03 0. -1.
    9900012    2    1    2    0    0  0.96478683391E+00  0.31847372487E+00  0.60032095047E+00  0.90007904923E+02  0.90000168467E+02 0.  0.
         12    1    1    2    0    0 -0.96478683391E+00 -0.31847372487E+00 -0.60032095047E+00  0.11800950775E+01  0.00000000000E+00 0. -1.
         11    1    3    3    0    0 -0.76518327861E+01 -0.37839788928E+01  0.20235431914E+01  0.87728996664E+01  0.51100000000E-03 0. -1.
        -11    1    3    3    0    0 -0.33134709965E+02 -0.63562809185E+01  0.12526954604E+02  0.35989385984E+02  0.51100000000E-03 0.  1.
         12    1    3    3    0    0  0.41751329585E+02  0.10458733536E+02 -0.13950176845E+02  0.45245619272E+02  0.00000000000E+00 0. -1.
</event>
<event>
 7    1  0.2490895E-015  0.9000764E+02  0.7816164E-02  0.1186339E+00
        -11   -1    0    0    0    0  0.00000000000E+00  0.00000000000E+00  0.45593999997E+02  0.45594000000E+02  0.51100000000E-03 0.  1.
         11   -1    0    0    0    0 -0.00000000000E+00 -0.00000000000E+00 -0.45593999997E+02  0.45594000000E+02  0.51100000000E-03 0. -1.
    9900012    2    1    2    0    0 -0.11207290177E+01  0.54757136115E-01 -0.36635708931E+00  0.90007640143E+02  0.89999900193E+02 0.  0.
         12    1    1    2    0    0  0.11207290177E+01 -0.54757136115E-01  0.36635708931E+00  0.11803598570E+01  0.00000000000E+00 0. -1.
         11    1    3    3    0    0 -0.79275918653E+00  0.56480718916E+01  0.69697686097E+01  0.90059345964E+01  0.51100000000E-03 0. -1.
        -11    1    3    3    0    0 -0.18462188954E+01 -0.16250964752E+02  0.34298121558E+02  0.37998204197E+02  0.51100000000E-03 0.  1.
         12    1    3    3    0    0  0.15182490642E+01  0.10657649996E+02 -0.41634247257E+02  0.43003501349E+02  0.00000000000E+00 0. -1.
</event>
<event>
 7    1  0.2490895E-015  0.9000773E+02  0.7816164E-02  0.1186339E+00
        -11   -1    0    0    0    0  0.00000000000E+00  0.00000000000E+00  0.45593999997E+02  0.45594000000E+02  0.51100000000E-03 0. -1.
         11   -1    0    0    0    0 -0.00000000000E+00 -0.00000000000E+00 -0.45593999997E+02  0.45594000000E+02  0.51100000000E-03 0.  1.
    9900012    2    1    2    0    0  0.81121412187E+00  0.85538574661E+00 -0.57245249873E-01  0.90007733019E+02  0.89999994295E+02 0.  0.
         12    1    1    2    0    0 -0.81121412187E+00 -0.85538574661E+00  0.57245249873E-01  0.11802669807E+01  0.00000000000E+00 0. -1.
         11    1    3    3    0    0  0.28341185074E+01 -0.88578362471E+01  0.57869996187E+00  0.93181749609E+01  0.51100000000E-03 0. -1.
        -11    1    3    3    0    0  0.15310336266E+02  0.22414155089E+02 -0.32445130272E+02  0.42302331183E+02  0.51100000000E-03 0.  1.
         12    1    3    3    0    0 -0.17333240651E+02 -0.12700933096E+02  0.31809185060E+02  0.38387226875E+02  0.00000000000E+00 0. -1.
</event>
<event>
 7    1  0.2490895E-015  0.9000768E+02  0.7816164E-02  0.1186339E+00
        -11   -1    0    0    0    0  0.00000000000E+00  0.00000000000E+00  0.45593999997E+02  0.45594000000E+02  0.51100000000E-03 0.  1.
         11   -1    0    0    0    0 -0.00000000000E+00 -0.00000000000E+00 -0.45593999997E+02  0.45594000000E+02  0.51100000000E-03 0. -1.
    9900012    2    1    2    0    0  0.78328999237E+00 -0.37608275818E+00  0.79885930917E+00  0.90007679006E+02  0.89999939569E+02 0.  0.
         12    1    1    2    0    0 -0.78328999237E+00  0.37608275818E+00 -0.79885930917E+00  0.11803209940E+01  0.00000000000E+00 0. -1.
         11    1    3    3    0    0 -0.21702959482E+02 -0.84365321747E+01 -0.28049785801E+02  0.36455232946E+02  0.51100000000E-03 0. -1.
        -11    1    3    3    0    0 -0.69170283910E+01  0.12594174199E+01 -0.46767575468E+01  0.84441385239E+01  0.51100000000E-03 0.  1.
        -12    1    3    3    0    0  0.29403277865E+02  0.68010319967E+01  0.33525402657E+02  0.45108307536E+02  0.00000000000E+00 0.  1.
</event>
<event>
 7    1  0.2490895E-015  0.9000776E+02  0.7816164E-02  0.1186339E+00
        -11   -1    0    0    0    0  0.00000000000E+00  0.00000000000E+00  0.45593999997E+02  0.45594000000E+02  0.51100000000E-03 0. -1.
         11   -1    0    0    0    0 -0.00000000000E+00 -0.00000000000E+00 -0.45593999997E+02  0.45594000000E+02  0.51100000000E-03 0.  1.
    9900012    2    1    2    0    0 -0.52800111697E+00  0.46547443995E+00 -0.94736988128E+00  0.90007762174E+02  0.90000023835E+02 0.  0.
         12    1    1    2    0    0  0.52800111697E+00 -0.46547443995E+00  0.94736988128E+00  0.11802378259E+01  0.00000000000E+00 0. -1.
         11    1    3    3    0    0  0.18622270377E+02  0.10919282433E+02 -0.35842212175E+02  0.41841174179E+02  0.51100000000E-03 0. -1.
        -11    1    3    3    0    0 -0.56670913576E+01 -0.59564402351E+01 -0.21419952265E+01  0.84960725362E+01  0.51100000000E-03 0.  1.
        -12    1    3    3    0    0 -0.13483180136E+02 -0.44973677577E+01  0.37036837520E+02  0.39670515459E+02  0.00000000000E+00 0.  1.
</event>
<event>
 7    1  0.2490895E-015  0.9000767E+02  0.7816164E-02  0.1186339E+00
        -11   -1    0    0    0    0  0.00000000000E+00  0.00000000000E+00  0.45593999997E+02  0.45594000000E+02  0.51100000000E-03 0.  1.
         11   -1    0    0    0    0 -0.00000000000E+00 -0.00000000000E+00 -0.45593999997E+02  0.45594000000E+02  0.51100000000E-03 0. -1.
    9900012    2    1    2    0    0 -0.62128935675E+00  0.98195336928E+00  0.20722522726E+00  0.90007671580E+02  0.89999932045E+02 0.  0.
         12    1    1    2    0    0  0.62128935675E+00 -0.98195336928E+00 -0.20722522726E+00  0.11803284200E+01  0.00000000000E+00 0. -1.
         11    1    3    3    0    0 -0.59430038194E+01 -0.64306313882E+01  0.29768629330E+01  0.92484608250E+01  0.51100000000E-03 0. -1.
        -11    1    3    3    0    0  0.43297796759E+01  0.43216606521E+02  0.61009349962E+01  0.43859360225E+02  0.51100000000E-03 0.  1.
         12    1    3    3    0    0  0.99193478677E+00 -0.35804021764E+02 -0.88705727019E+01  0.36899850530E+02  0.00000000000E+00 0. -1.
</event>
<event>
 7    1  0.2490895E-015  0.9000778E+02  0.7816164E-02  0.1186339E+00
        -11   -1    0    0    0    0  0.00000000000E+00  0.00000000000E+00  0.45593999997E+02  0.45594000000E+02  0.51100000000E-03 0. -1.
         11   -1    0    0    0    0 -0.00000000000E+00 -0.00000000000E+00 -0.45593999997E+02  0.45594000000E+02  0.51100000000E-03 0.  1.
    9900012    2    1    2    0    0 -0.79284657127E+00 -0.44052566999E+00  0.75514431225E+00  0.90007783289E+02  0.90000045229E+02 0.  0.
         12    1    1    2    0    0  0.79284657127E+00  0.44052566999E+00 -0.75514431225E+00  0.11802167105E+01  0.00000000000E+00 0. -1.
         11    1    3    3    0    0 -0.91961460137E+01  0.28448254903E+01 -0.48829674791E+00  0.96384940499E+01  0.51100000000E-03 0. -1.
        -11    1    3    3    0    0 -0.18691903238E+02  0.23223450875E+02  0.22095001484E+02  0.37106670667E+02  0.51100000000E-03 0.  1.
         12    1    3    3    0    0  0.27095202680E+02 -0.26508802035E+02 -0.20851560423E+02  0.43262618572E+02  0.00000000000E+00 0. -1.
</event>
<event>
 7    1  0.2490895E-015  0.9000770E+02  0.7816164E-02  0.1186339E+00
        -11   -1    0    0    0    0  0.00000000000E+00  0.00000000000E+00  0.45593999997E+02  0.45594000000E+02  0.51100000000E-03 0. -1.
         11   -1    0    0    0    0 -0.00000000000E+00 -0.00000000000E+00 -0.45593999997E+02  0.45594000000E+02  0.51100000000E-03 0.  1.
    9900012    2    1    2    0    0  0.93200231589E+00 -0.69190060695E+00  0.21391258780E+00  0.90007697767E+02  0.89999958577E+02 0.  0.
         12    1    1    2    0    0 -0.93200231589E+00  0.69190060695E+00 -0.21391258780E+00  0.11803022333E+01  0.00000000000E+00 0. -1.
         11    1    3    3    0    0  0.12408434402E+02  0.17508775871E+02  0.24645009046E+02  0.32678784371E+02  0.51100000000E-03 0. -1.
        -11    1    3    3    0    0  0.70547605946E+01  0.32993644901E+01  0.10020202278E+02  0.12690937989E+02  0.51100000000E-03 0.  1.
        -12    1    3    3    0    0 -0.18531192681E+02 -0.21500040968E+02 -0.34451298736E+02  0.44637975407E+02  0.00000000000E+00 0.  1.
</event>
<event>
 7    1  0.2490895E-015  0.9000778E+02  0.7816164E-02  0.1186339E+00
        -11   -1    0    0    0    0  0.00000000000E+00  0.00000000000E+00  0.45593999997E+02  0.45594000000E+02  0.51100000000E-03 0. -1.
         11   -1    0    0    0    0 -0.00000000000E+00 -0.00000000000E+00 -0.45593999997E+02  0.45594000000E+02  0.51100000000E-03 0.  1.
    9900012    2    1    2    0    0  0.90110570655E+00  0.63214992667E+00 -0.42579913741E+00  0.90007783948E+02  0.90000045896E+02 0.  0.
         12    1    1    2    0    0 -0.90110570655E+00 -0.63214992667E+00  0.42579913741E+00  0.11802160521E+01  0.00000000000E+00 0. -1.
         11    1    3    3    0    0 -0.50467018087E+00  0.18181004783E+01  0.93505318294E+01  0.95390055611E+01  0.51100000000E-03 0. -1.
        -11    1    3    3    0    0  0.40305316199E+02 -0.33775412514E+01 -0.64465947065E+00  0.40451722891E+02  0.51100000000E-03 0.  1.
         12    1    3    3    0    0 -0.38899540311E+02  0.21915906998E+01 -0.91316714962E+01  0.40017055496E+02  0.00000000000E+00 0. -1.
</event>
<event>
 7    1  0.2490895E-015  0.9000775E+02  0.7816164E-02  0.1186339E+00
        -11   -1    0    0    0    0  0.00000000000E+00  0.00000000000E+00  0.45593999997E+02  0.45594000000E+02  0.51100000000E-03 0. -1.
         11   -1    0    0    0    0 -0.00000000000E+00 -0.00000000000E+00 -0.45593999997E+02  0.45594000000E+02  0.51100000000E-03 0.  1.
    9900012    2    1    2    0    0 -0.61606354330E+00 -0.97760502545E+00  0.24028301996E+00  0.90007753498E+02  0.90000015044E+02 0.  0.
         12    1    1    2    0    0  0.61606354330E+00  0.97760502545E+00 -0.24028301996E+00  0.11802465017E+01  0.00000000000E+00 0. -1.
         11    1    3    3    0    0 -0.72008761289E+01  0.36614694319E+01 -0.79051815852E+01  0.11302693112E+02  0.51100000000E-03 0. -1.
        -11    1    3    3    0    0 -0.25772506248E+02  0.23840509586E+02  0.52961281810E+01  0.35505505905E+02  0.51100000000E-03 0.  1.
         12    1    3    3    0    0  0.32357318833E+02 -0.28479584043E+02  0.28493364241E+01  0.43199554482E+02  0.00000000000E+00 0. -1.
</event>
<event>
 7    1  0.2490895E-015  0.9000773E+02  0.7816164E-02  0.1186339E+00
        -11   -1    0    0    0    0  0.00000000000E+00  0.00000000000E+00  0.45593999997E+02  0.45594000000E+02  0.51100000000E-03 0. -1.
         11   -1    0    0    0    0 -0.00000000000E+00 -0.00000000000E+00 -0.45593999997E+02  0.45594000000E+02  0.51100000000E-03 0.  1.
    9900012    2    1    2    0    0  0.81106713918E+00 -0.37685526723E+00 -0.77017980994E+00  0.90007734464E+02  0.89999995759E+02 0.  0.
         12    1    1    2    0    0 -0.81106713918E+00  0.37685526723E+00  0.77017980994E+00  0.11802655364E+01  0.00000000000E+00 0. -1.
         11    1    3    3    0    0 -0.26937384019E+02 -0.84624870432E+01  0.95586177077E+01  0.29809453492E+02  0.51100000000E-03 0. -1.
        -11    1    3    3    0    0 -0.76817235200E+01  0.12941207413E+02  0.10925974303E+02  0.18597328848E+02  0.51100000000E-03 0.  1.
        -12    1    3    3    0    0  0.35430174678E+02 -0.48555756368E+01 -0.21254771821E+02  0.41600952124E+02  0.00000000000E+00 0.  1.
</event>
<event>
 7    1  0.2490895E-015  0.9000773E+02  0.7816164E-02  0.1186339E+00
        -11   -1    0    0    0    0  0.00000000000E+00  0.00000000000E+00  0.45593999997E+02  0.45594000000E+02  0.51100000000E-03 0. -1.
         11   -1    0    0    0    0 -0.00000000000E+00 -0.00000000000E+00 -0.45593999997E+02  0.45594000000E+02  0.51100000000E-03 0.  1.
    9900012    2    1    2    0    0 -0.67787592046E+00 -0.84812530939E+00 -0.46282199631E+00  0.90007730326E+02  0.89999991566E+02 0.  0.
         12    1    1    2    0    0  0.67787592046E+00  0.84812530939E+00  0.46282199631E+00  0.11802696744E+01  0.00000000000E+00 0. -1.
         11    1    3    3    0    0 -0.34465813760E+02 -0.10241662863E+02  0.35619342841E+01  0.36131307096E+02  0.51100000000E-03 0. -1.
        -11    1    3    3    0    0 -0.92095546046E+01 -0.95528298029E+00 -0.26457811076E+01  0.96295700589E+01  0.51100000000E-03 0.  1.
        -12    1    3    3    0    0  0.42997492445E+02  0.10348820534E+02 -0.13789751728E+01  0.44246853171E+02  0.00000000000E+00 0.  1.
</event>
<event>
 7    1  0.2490895E-015  0.9000771E+02  0.7816164E-02  0.1186339E+00
        -11   -1    0    0    0    0  0.00000000000E+00  0.00000000000E+00  0.45593999997E+02  0.45594000000E+02  0.51100000000E-03 0. -1.
         11   -1    0    0    0    0 -0.00000000000E+00 -0.00000000000E+00 -0.45593999997E+02  0.45594000000E+02  0.51100000000E-03 0.  1.
    9900012    2    1    2    0    0 -0.23031054413E+00  0.11575701079E+01 -0.80412264471E-02  0.90007713525E+02  0.89999974544E+02 0.  0.
         12    1    1    2    0    0  0.23031054413E+00 -0.11575701079E+01  0.80412264471E-02  0.11802864749E+01  0.00000000000E+00 0. -1.
         11    1    3    3    0    0 -0.25560989404E+02 -0.75835461489E+01  0.19251385938E+02  0.32886018493E+02  0.51100000000E-03 0. -1.
        -11    1    3    3    0    0 -0.85426803636E+01 -0.34915077296E+01  0.77928360554E+01  0.12078754409E+02  0.51100000000E-03 0.  1.
        -12    1    3    3    0    0  0.33873359224E+02  0.12232623986E+02 -0.27052263220E+02  0.45042940623E+02  0.00000000000E+00 0.  1.
</event>
<event>
 7    1  0.2490895E-015  0.9000771E+02  0.7816164E-02  0.1186339E+00
        -11   -1    0    0    0    0  0.00000000000E+00  0.00000000000E+00  0.45593999997E+02  0.45594000000E+02  0.51100000000E-03 0.  1.
         11   -1    0    0    0    0 -0.00000000000E+00 -0.00000000000E+00 -0.45593999997E+02  0.45594000000E+02  0.51100000000E-03 0. -1.
    9900012    2    1    2    0    0 -0.10725043558E+01 -0.37154966348E-01  0.49136356026E+00  0.90007710106E+02  0.89999971080E+02 0.  0.
         12    1    1    2    0    0  0.10725043558E+01  0.37154966348E-01 -0.49136356026E+00  0.11802898937E+01  0.00000000000E+00 0. -1.
         11    1    3    3    0    0  0.17514105689E+01  0.81782998110E+01 -0.36491979421E+01  0.91251669936E+01  0.51100000000E-03 0. -1.
        -11    1    3    3    0    0 -0.64035675872E+01 -0.23102564620E+01  0.41924074965E+02  0.42473180063E+02  0.51100000000E-03 0.  1.
         12    1    3    3    0    0  0.35796526625E+01 -0.59051983153E+01 -0.37783513462E+02  0.38409363050E+02  0.00000000000E+00 0. -1.
</event>
<event>
 7    1  0.2490895E-015  0.9000780E+02  0.7816164E-02  0.1186339E+00
        -11   -1    0    0    0    0  0.00000000000E+00  0.00000000000E+00  0.45593999997E+02  0.45594000000E+02  0.51100000000E-03 0. -1.
         11   -1    0    0    0    0 -0.00000000000E+00 -0.00000000000E+00 -0.45593999997E+02  0.45594000000E+02  0.51100000000E-03 0.  1.
    9900012    2    1    2    0    0  0.40173297958E+00 -0.94132892007E+00 -0.58769388881E+00  0.90007799327E+02  0.90000061478E+02 0.  0.
         12    1    1    2    0    0 -0.40173297958E+00  0.94132892007E+00  0.58769388881E+00  0.11802006734E+01  0.00000000000E+00 0. -1.
         11    1    3    3    0    0 -0.76358661261E+01  0.84740159210E+01 -0.74254685484E+01  0.13610767089E+02  0.51100000000E-03 0. -1.
        -11    1    3    3    0    0 -0.18085517857E+02  0.13967148743E+02  0.27458501285E+02  0.35723052686E+02  0.51100000000E-03 0.  1.
         12    1    3    3    0    0  0.26123116963E+02 -0.23382493584E+02 -0.20620726625E+02  0.40673979552E+02  0.00000000000E+00 0. -1.
</event>
<event>
 7    1  0.2490895E-015  0.9000773E+02  0.7816164E-02  0.1186339E+00
        -11   -1    0    0    0    0  0.00000000000E+00  0.00000000000E+00  0.45593999997E+02  0.45594000000E+02  0.51100000000E-03 0.  1.
         11   -1    0    0    0    0 -0.00000000000E+00 -0.00000000000E+00 -0.45593999997E+02  0.45594000000E+02  0.51100000000E-03 0. -1.
    9900012    2    1    2    0    0 -0.69047244861E+00 -0.95719880000E+00 -0.76435679903E-02  0.90007728773E+02  0.89999989993E+02 0.  0.
         12    1    1    2    0    0  0.69047244861E+00  0.95719880000E+00  0.76435679903E-02  0.11802712269E+01  0.00000000000E+00 0. -1.
         11    1    3    3    0    0  0.65242938866E+01 -0.28690988470E+02 -0.24590964579E+02  0.38346509220E+02  0.51100000000E-03 0. -1.
        -11    1    3    3    0    0 -0.63485723212E+01 -0.46892560086E+01 -0.36165194635E+01  0.86817455459E+01  0.51100000000E-03 0.  1.
        -12    1    3    3    0    0 -0.86619401403E+00  0.32423045679E+02  0.28199840475E+02  0.42979474008E+02  0.00000000000E+00 0.  1.
</event>
<event>
 7    1  0.2490895E-015  0.9000773E+02  0.7816164E-02  0.1186339E+00
        -11   -1    0    0    0    0  0.00000000000E+00  0.00000000000E+00  0.45593999997E+02  0.45594000000E+02  0.51100000000E-03 0.  1.
         11   -1    0    0    0    0 -0.00000000000E+00 -0.00000000000E+00 -0.45593999997E+02  0.45594000000E+02  0.51100000000E-03 0. -1.
    9900012    2    1    2    0    0 -0.10898872871E+01 -0.41412214008E+00  0.18350969292E+00  0.90007734245E+02  0.89999995537E+02 0.  0.
         12    1    1    2    0    0  0.10898872871E+01  0.41412214008E+00 -0.18350969292E+00  0.11802657552E+01  0.00000000000E+00 0. -1.
         11    1    3    3    0    0 -0.84049043276E+01  0.23867818251E+01  0.39586612916E+01  0.95921918100E+01  0.51100000000E-03 0. -1.
        -11    1    3    3    0    0 -0.22377559677E+02  0.39372580631E+01  0.28232083032E+02  0.36239587342E+02  0.51100000000E-03 0.  1.
         12    1    3    3    0    0  0.29692576718E+02 -0.67381620283E+01 -0.32007234630E+02  0.44175955093E+02  0.00000000000E+00 0. -1.
</event>
<event>
 7    1  0.2490895E-015  0.9000770E+02  0.7816164E-02  0.1186339E+00
        -11   -1    0    0    0    0  0.00000000000E+00  0.00000000000E+00  0.45593999997E+02  0.45594000000E+02  0.51100000000E-03 0.  1.
         11   -1    0    0    0    0 -0.00000000000E+00 -0.00000000000E+00 -0.45593999997E+02  0.45594000000E+02  0.51100000000E-03 0. -1.
    9900012    2    1    2    0    0  0.85058809234E+00  0.71472857214E+00  0.39844985663E+00  0.90007703714E+02  0.89999964603E+02 0.  0.
         12    1    1    2    0    0 -0.85058809234E+00 -0.71472857214E+00 -0.39844985663E+00  0.11802962861E+01  0.00000000000E+00 0. -1.
         11    1    3    3    0    0 -0.10997012190E+02  0.32283106221E+01 -0.35508426597E+02  0.37312258391E+02  0.51100000000E-03 0. -1.
        -11    1    3    3    0    0  0.93348512352E+01 -0.78601311664E+01 -0.36204849095E+01  0.12729062054E+02  0.51100000000E-03 0.  1.
        -12    1    3    3    0    0  0.25127490474E+01  0.53465491165E+01  0.39527361363E+02  0.39966383269E+02  0.00000000000E+00 0.  1.
</event>
<event>
 7    1  0.2490895E-015  0.9000714E+02  0.7816164E-02  0.1186340E+00
        -11   -1    0    0    0    0  0.00000000000E+00  0.00000000000E+00  0.45593999997E+02  0.45594000000E+02  0.51100000000E-03 0.  1.
         11   -1    0    0    0    0 -0.00000000000E+00 -0.00000000000E+00 -0.45593999997E+02  0.45594000000E+02  0.51100000000E-03 0. -1.
    9900012    2    1    2    0    0 -0.44405856690E+00  0.10872688904E+01  0.12285930919E+00  0.90007137578E+02  0.89999390992E+02 0.  0.
         12    1    1    2    0    0  0.44405856690E+00 -0.10872688904E+01 -0.12285930919E+00  0.11808624224E+01  0.00000000000E+00 0. -1.
         11    1    3    3    0    0 -0.79993012625E+01  0.20842321958E+01 -0.41974282494E+01  0.92709896291E+01  0.51100000000E-03 0. -1.
        -11    1    3    3    0    0  0.41884767771E+02  0.10152172989E+02 -0.51919675959E+01  0.43409180082E+02  0.51100000000E-03 0.  1.
         12    1    3    3    0    0 -0.34329525075E+02 -0.11149136294E+02  0.95122551545E+01  0.37326967867E+02  0.00000000000E+00 0. -1.
</event>
<event>
 7    1  0.2490895E-015  0.9000770E+02  0.7816164E-02  0.1186339E+00
        -11   -1    0    0    0    0  0.00000000000E+00  0.00000000000E+00  0.45593999997E+02  0.45594000000E+02  0.51100000000E-03 0.  1.
         11   -1    0    0    0    0 -0.00000000000E+00 -0.00000000000E+00 -0.45593999997E+02  0.45594000000E+02  0.51100000000E-03 0. -1.
    9900012    2    1    2    0    0 -0.14800976852E+00 -0.10311711881E+00  0.11664340271E+01  0.90007699881E+02  0.89999960719E+02 0.  0.
         12    1    1    2    0    0  0.14800976852E+00  0.10311711881E+00 -0.11664340271E+01  0.11803001192E+01  0.00000000000E+00 0. -1.
         11    1    3    3    0    0  0.20735844555E+00 -0.50393292148E+01  0.93131918101E+01  0.10591193437E+02  0.51100000000E-03 0. -1.
        -11    1    3    3    0    0  0.50872853578E+01 -0.64362496808E+01  0.34232379930E+02  0.35201727489E+02  0.51100000000E-03 0.  1.
         12    1    3    3    0    0 -0.54426535719E+01  0.11372461777E+02 -0.42379137713E+02  0.44214778955E+02  0.00000000000E+00 0. -1.
</event>
<event>
 7    1  0.2490895E-015  0.9000790E+02  0.7816164E-02  0.1186339E+00
        -11   -1    0    0    0    0  0.00000000000E+00  0.00000000000E+00  0.45593999997E+02  0.45594000000E+02  0.51100000000E-03 0. -1.
         11   -1    0    0    0    0 -0.00000000000E+00 -0.00000000000E+00 -0.45593999997E+02  0.45594000000E+02  0.51100000000E-03 0.  1.
    9900012    2    1    2    0    0  0.70655275276E+00  0.81390466111E+00 -0.48059771016E+00  0.90007901805E+02  0.90000165309E+02 0.  0.
         12    1    1    2    0    0 -0.70655275276E+00 -0.81390466111E+00  0.48059771016E+00  0.11800981946E+01  0.00000000000E+00 0. -1.
         11    1    3    3    0    0 -0.31394303792E+02 -0.16766719519E+02  0.10502697650E+02  0.37108379811E+02  0.51100000000E-03 0. -1.
        -11    1    3    3    0    0 -0.55060534372E+01 -0.45369306183E+01 -0.53310088600E+01  0.89061787324E+01  0.51100000000E-03 0.  1.
        -12    1    3    3    0    0  0.37606909982E+02  0.22117554798E+02 -0.56522865005E+01  0.43993343262E+02  0.00000000000E+00 0.  1.
</event>
<event>
 7    1  0.2490895E-015  0.9000772E+02  0.7816164E-02  0.1186339E+00
        -11   -1    0    0    0    0  0.00000000000E+00  0.00000000000E+00  0.45593999997E+02  0.45594000000E+02  0.51100000000E-03 0.  1.
         11   -1    0    0    0    0 -0.00000000000E+00 -0.00000000000E+00 -0.45593999997E+02  0.45594000000E+02  0.51100000000E-03 0. -1.
    9900012    2    1    2    0    0 -0.31634185593E+00 -0.67549672391E-01  0.11350891514E+01  0.90007719309E+02  0.89999980404E+02 0.  0.
         12    1    1    2    0    0  0.31634185593E+00  0.67549672391E-01 -0.11350891514E+01  0.11802806911E+01  0.00000000000E+00 0. -1.
         11    1    3    3    0    0  0.14057489033E+02 -0.27748882255E+01 -0.34209343352E+02  0.37088976468E+02  0.51100000000E-03 0. -1.
        -11    1    3    3    0    0  0.91892957868E+01  0.11149009992E+01 -0.12751388003E+01  0.93440965596E+01  0.51100000000E-03 0.  1.
        -12    1    3    3    0    0 -0.23563126676E+02  0.15924375540E+01  0.36619571304E+02  0.43574646282E+02  0.00000000000E+00 0.  1.
</event>
<event>
 7    1  0.2490895E-015  0.9000776E+02  0.7816164E-02  0.1186339E+00
        -11   -1    0    0    0    0  0.00000000000E+00  0.00000000000E+00  0.45593999997E+02  0.45594000000E+02  0.51100000000E-03 0.  1.
         11   -1    0    0    0    0 -0.00000000000E+00 -0.00000000000E+00 -0.45593999997E+02  0.45594000000E+02  0.51100000000E-03 0. -1.
    9900012    2    1    2    0    0 -0.46097961153E+00  0.12767460330E+00  0.10789661833E+01  0.90007758062E+02  0.90000019669E+02 0.  0.
         12    1    1    2    0    0  0.46097961153E+00 -0.12767460330E+00 -0.10789661833E+01  0.11802419376E+01  0.00000000000E+00 0. -1.
         11    1    3    3    0    0  0.85257513763E+01 -0.91001893308E+00 -0.69136746791E+01  0.11014330158E+02  0.51100000000E-03 0. -1.
        -11    1    3    3    0    0  0.23827563016E+02 -0.10797916801E+02  0.28373227853E+02  0.38592587702E+02  0.51100000000E-03 0.  1.
         12    1    3    3    0    0 -0.32814294004E+02  0.11835610337E+02 -0.20380586990E+02  0.40400840203E+02  0.00000000000E+00 0. -1.
</event>
<event>
 7    1  0.2490895E-015  0.9000771E+02  0.7816164E-02  0.1186339E+00
        -11   -1    0    0    0    0  0.00000000000E+00  0.00000000000E+00  0.45593999997E+02  0.45594000000E+02  0.51100000000E-03 0. -1.
         11   -1    0    0    0    0 -0.00000000000E+00 -0.00000000000E+00 -0.45593999997E+02  0.45594000000E+02  0.51100000000E-03 0.  1.
    9900012    2    1    2    0    0 -0.73384938598E+00 -0.62189540670E+00 -0.68396054473E+00  0.90007707305E+02  0.89999968242E+02 0.  0.
         12    1    1    2    0    0  0.73384938598E+00  0.62189540670E+00  0.68396054473E+00  0.11802926946E+01  0.00000000000E+00 0. -1.
         11    1    3    3    0    0 -0.97242464045E+01 -0.21330788538E+01  0.38910803918E+00  0.99630516841E+01  0.51100000000E-03 0. -1.
        -11    1    3    3    0    0  0.36522025063E+02 -0.23011258814E+02 -0.34434181834E+00  0.43168216531E+02  0.51100000000E-03 0.  1.
         12    1    3    3    0    0 -0.27531628045E+02  0.24522442261E+02 -0.72872676557E+00  0.36876439090E+02  0.00000000000E+00 0. -1.
</event>
<event>
 7    1  0.2490895E-015  0.9000773E+02  0.7816164E-02  0.1186339E+00
        -11   -1    0    0    0    0  0.00000000000E+00  0.00000000000E+00  0.45593999997E+02  0.45594000000E+02  0.51100000000E-03 0.  1.
         11   -1    0    0    0    0 -0.00000000000E+00 -0.00000000000E+00 -0.45593999997E+02  0.45594000000E+02  0.51100000000E-03 0. -1.
    9900012    2    1    2    0    0 -0.57602804462E+00  0.95923029533E+00  0.37563987888E+00  0.90007730376E+02  0.89999991617E+02 0.  0.
         12    1    1    2    0    0  0.57602804462E+00 -0.95923029533E+00 -0.37563987888E+00  0.11802696244E+01  0.00000000000E+00 0. -1.
         11    1    3    3    0    0 -0.99563763438E+01  0.11027372292E+01 -0.43725221109E+01  0.10929977547E+02  0.51100000000E-03 0. -1.
        -11    1    3    3    0    0 -0.57129495997E+01  0.37580398454E+02  0.56894016559E+01  0.38435575091E+02  0.51100000000E-03 0.  1.
         12    1    3    3    0    0  0.15093297899E+02 -0.37723905388E+02 -0.94123966616E+00  0.40642177738E+02  0.00000000000E+00 0. -1.
</event>
<event>
 7    1  0.2490895E-015  0.9000775E+02  0.7816164E-02  0.1186339E+00
        -11   -1    0    0    0    0  0.00000000000E+00  0.00000000000E+00  0.45593999997E+02  0.45594000000E+02  0.51100000000E-03 0.  1.
         11   -1    0    0    0    0 -0.00000000000E+00 -0.00000000000E+00 -0.45593999997E+02  0.45594000000E+02  0.51100000000E-03 0. -1.
    9900012    2    1    2    0    0  0.35434898155E+00  0.48666725562E+00  0.10151793119E+01  0.90007746954E+02  0.90000008413E+02 0.  0.
         12    1    1    2    0    0 -0.35434898155E+00 -0.48666725562E+00 -0.10151793119E+01  0.11802530464E+01  0.00000000000E+00 0. -1.
         11    1    3    3    0    0 -0.11512371493E+01 -0.65905837098E+01 -0.68408563710E+01  0.95686183308E+01  0.51100000000E-03 0. -1.
        -11    1    3    3    0    0 -0.12913691056E+02 -0.32750769168E+02  0.13505031895E+02  0.37706261874E+02  0.51100000000E-03 0.  1.
         12    1    3    3    0    0  0.14419277186E+02  0.39828020134E+02 -0.56489962117E+01  0.42732866749E+02  0.00000000000E+00 0. -1.
</event>
<event>
 7    1  0.2490895E-015  0.9000778E+02  0.7816164E-02  0.1186339E+00
        -11   -1    0    0    0    0  0.00000000000E+00  0.00000000000E+00  0.45593999997E+02  0.45594000000E+02  0.51100000000E-03 0. -1.
         11   -1    0    0    0    0 -0.00000000000E+00 -0.00000000000E+00 -0.45593999997E+02  0.45594000000E+02  0.51100000000E-03 0.  1.
    9900012    2    1    2    0    0  0.20127388056E-01 -0.10855437875E+01  0.46271237883E+00  0.90007782574E+02  0.90000044504E+02 0.  0.
         12    1    1    2    0    0 -0.20127388056E-01  0.10855437875E+01 -0.46271237883E+00  0.11802174256E+01  0.00000000000E+00 0. -1.
         11    1    3    3    0    0  0.15330400778E+02 -0.98128352074E+01  0.33338592431E+02  0.37983873794E+02  0.51100000000E-03 0. -1.
        -11    1    3    3    0    0 -0.20498263553E+01 -0.12281594680E+02 -0.23589255988E+01  0.12672958857E+02  0.51100000000E-03 0.  1.
        -12    1    3    3    0    0 -0.13260447035E+02  0.21008886100E+02 -0.30516954454E+02  0.39350949923E+02  0.00000000000E+00 0.  1.
</event>
<event>
 7    1  0.2490895E-015  0.9000895E+02  0.7816164E-02  0.1186337E+00
        -11   -1    0    0    0    0  0.00000000000E+00  0.00000000000E+00  0.45593999997E+02  0.45594000000E+02  0.51100000000E-03 0.  1.
         11   -1    0    0    0    0 -0.00000000000E+00 -0.00000000000E+00 -0.45593999997E+02  0.45594000000E+02  0.51100000000E-03 0. -1.
    9900012    2    1    2    0    0 -0.91979615044E+00  0.20641400336E+00 -0.70819102380E+00  0.90008946895E+02  0.90001224185E+02 0.  0.
         12    1    1    2    0    0  0.91979615044E+00 -0.20641400336E+00  0.70819102380E+00  0.11790531054E+01  0.00000000000E+00 0. -1.
         11    1    3    3    0    0  0.90947243157E+01  0.41742991984E+01 -0.36325009917E+00  0.10013527604E+02  0.51100000000E-03 0. -1.
        -11    1    3    3    0    0  0.24998997740E+02  0.24397942201E+02 -0.38281970578E+00  0.34933594474E+02  0.51100000000E-03 0.  1.
         12    1    3    3    0    0 -0.35013518207E+02 -0.28365827396E+02  0.37878781153E-01  0.45061824817E+02  0.00000000000E+00 0. -1.
</event>
<event>
 7    1  0.2490895E-015  0.9000771E+02  0.7816164E-02  0.1186339E+00
        -11   -1    0    0    0    0  0.00000000000E+00  0.00000000000E+00  0.45593999997E+02  0.45594000000E+02  0.51100000000E-03 0. -1.
         11   -1    0    0    0    0 -0.00000000000E+00 -0.00000000000E+00 -0.45593999997E+02  0.45594000000E+02  0.51100000000E-03 0.  1.
    9900012    2    1    2    0    0 -0.65725195191E+00 -0.23869980506E+00 -0.95085203213E+00  0.90007713038E+02  0.89999974050E+02 0.  0.
         12    1    1    2    0    0  0.65725195191E+00  0.23869980506E+00  0.95085203213E+00  0.11802869618E+01  0.00000000000E+00 0. -1.
         11    1    3    3    0    0 -0.18180239339E+02  0.14586685527E+01 -0.59362869174E+01  0.19180414985E+02  0.51100000000E-03 0. -1.
        -11    1    3    3    0    0 -0.42015384378E+00  0.21887976938E+02 -0.21790040485E+02  0.30887957658E+02  0.51100000000E-03 0.  1.
         12    1    3    3    0    0  0.17943141231E+02 -0.23585345295E+02  0.26775475370E+02  0.39939340396E+02  0.00000000000E+00 0. -1.
</event>
<event>
 7    1  0.2490895E-015  0.9000768E+02  0.7816164E-02  0.1186339E+00
        -11   -1    0    0    0    0  0.00000000000E+00  0.00000000000E+00  0.45593999997E+02  0.45594000000E+02  0.51100000000E-03 0. -1.
         11   -1    0    0    0    0 -0.00000000000E+00 -0.00000000000E+00 -0.45593999997E+02  0.45594000000E+02  0.51100000000E-03 0.  1.
    9900012    2    1    2    0    0  0.39807024317E+00 -0.17056611143E+00 -0.10980016199E+01  0.90007677894E+02  0.89999938442E+02 0.  0.
         12    1    1    2    0    0 -0.39807024317E+00  0.17056611143E+00  0.10980016199E+01  0.11803221061E+01  0.00000000000E+00 0. -1.
         11    1    3    3    0    0 -0.10976815072E+01 -0.49667059817E+01  0.72986432230E+01  0.88962501178E+01  0.51100000000E-03 0. -1.
        -11    1    3    3    0    0 -0.30686248382E+02 -0.16817740181E+02 -0.20430380159E+02  0.40520151262E+02  0.51100000000E-03 0.  1.
         12    1    3    3    0    0  0.32182000133E+02  0.21613880052E+02  0.12033735316E+02  0.40591276514E+02  0.00000000000E+00 0. -1.
</event>
<event>
 7    1  0.2490895E-015  0.9000774E+02  0.7816164E-02  0.1186339E+00
        -11   -1    0    0    0    0  0.00000000000E+00  0.00000000000E+00  0.45593999997E+02  0.45594000000E+02  0.51100000000E-03 0.  1.
         11   -1    0    0    0    0 -0.00000000000E+00 -0.00000000000E+00 -0.45593999997E+02  0.45594000000E+02  0.51100000000E-03 0. -1.
    9900012    2    1    2    0    0  0.55007882367E+00 -0.61232914684E+00  0.84586354966E+00  0.90007737808E+02  0.89999999147E+02 0.  0.
         12    1    1    2    0    0 -0.55007882367E+00  0.61232914684E+00 -0.84586354966E+00  0.11802621916E+01  0.00000000000E+00 0. -1.
         11    1    3    3    0    0 -0.26476464449E+01  0.28920271475E+01 -0.12918641007E+02  0.13500560671E+02  0.51100000000E-03 0. -1.
        -11    1    3    3    0    0 -0.43148242021E+01 -0.35864837446E+02 -0.77267823180E+01  0.36940593365E+02  0.51100000000E-03 0.  1.
         12    1    3    3    0    0  0.75125494707E+01  0.32360481151E+02  0.21491286874E+02  0.39566583772E+02  0.00000000000E+00 0. -1.
</event>
<event>
 7    1  0.2490895E-015  0.9000773E+02  0.7816164E-02  0.1186339E+00
        -11   -1    0    0    0    0  0.00000000000E+00  0.00000000000E+00  0.45593999997E+02  0.45594000000E+02  0.51100000000E-03 0.  1.
         11   -1    0    0    0    0 -0.00000000000E+00 -0.00000000000E+00 -0.45593999997E+02  0.45594000000E+02  0.51100000000E-03 0. -1.
    9900012    2    1    2    0    0 -0.82189696901E+00 -0.41075526835E+00  0.74081033740E+00  0.90007731186E+02  0.89999992437E+02 0.  0.
         12    1    1    2    0    0  0.82189696901E+00  0.41075526835E+00 -0.74081033740E+00  0.11802688144E+01  0.00000000000E+00 0. -1.
         11    1    3    3    0    0  0.36523613966E+01  0.66248946654E+01  0.49451041941E+01  0.90378663882E+01  0.51100000000E-03 0. -1.
        -11    1    3    3    0    0  0.24156645469E+02 -0.54820777655E+01  0.28311021481E+02  0.37617956277E+02  0.51100000000E-03 0.  1.
         12    1    3    3    0    0 -0.28630903834E+02 -0.15535721682E+01 -0.32515315337E+02  0.43351908520E+02  0.00000000000E+00 0. -1.
</event>
<event>
 7    1  0.2490895E-015  0.9000770E+02  0.7816164E-02  0.1186339E+00
        -11   -1    0    0    0    0  0.00000000000E+00  0.00000000000E+00  0.45593999997E+02  0.45594000000E+02  0.51100000000E-03 0.  1.
         11   -1    0    0    0    0 -0.00000000000E+00 -0.00000000000E+00 -0.45593999997E+02  0.45594000000E+02  0.51100000000E-03 0. -1.
    9900012    2    1    2    0    0 -0.81698147474E+00  0.11181183638E+00  0.84448586152E+00  0.90007696231E+02  0.89999957021E+02 0.  0.
         12    1    1    2    0    0  0.81698147474E+00 -0.11181183638E+00 -0.84448586152E+00  0.11803037690E+01  0.00000000000E+00 0. -1.
         11    1    3    3    0    0  0.10869945528E-01 -0.82485035901E+00 -0.95353751235E+01  0.95709913424E+01  0.51100000000E-03 0. -1.
        -11    1    3    3    0    0 -0.11978868914E+02 -0.32311340306E+02  0.24865208158E+02  0.42494641895E+02  0.51100000000E-03 0.  1.
         12    1    3    3    0    0  0.11151017493E+02  0.33248002501E+02 -0.14485347173E+02  0.37942062993E+02  0.00000000000E+00 0. -1.
</event>
<event>
 7    1  0.2490895E-015  0.9000760E+02  0.7816164E-02  0.1186339E+00
        -11   -1    0    0    0    0  0.00000000000E+00  0.00000000000E+00  0.45593999997E+02  0.45594000000E+02  0.51100000000E-03 0. -1.
         11   -1    0    0    0    0 -0.00000000000E+00 -0.00000000000E+00 -0.45593999997E+02  0.45594000000E+02  0.51100000000E-03 0.  1.
    9900012    2    1    2    0    0  0.98259489586E+00 -0.39077392872E+00  0.52453360001E+00  0.90007604943E+02  0.89999864528E+02 0.  0.
         12    1    1    2    0    0 -0.98259489586E+00  0.39077392872E+00 -0.52453360001E+00  0.11803950569E+01  0.00000000000E+00 0. -1.
         11    1    3    3    0    0 -0.12419065629E+02  0.11310208791E+02  0.21323779607E+02  0.27145120943E+02  0.51100000000E-03 0. -1.
        -11    1    3    3    0    0 -0.17378795716E+02  0.86512163787E+01  0.19536526576E+01  0.19511095416E+02  0.51100000000E-03 0.  1.
        -12    1    3    3    0    0  0.30780456241E+02 -0.20352199099E+02 -0.22752898665E+02  0.43351388584E+02  0.00000000000E+00 0.  1.
</event>
<event>
 7    1  0.2490895E-015  0.9000772E+02  0.7816164E-02  0.1186339E+00
        -11   -1    0    0    0    0  0.00000000000E+00  0.00000000000E+00  0.45593999997E+02  0.45594000000E+02  0.51100000000E-03 0. -1.
         11   -1    0    0    0    0 -0.00000000000E+00 -0.00000000000E+00 -0.45593999997E+02  0.45594000000E+02  0.51100000000E-03 0.  1.
    9900012    2    1    2    0    0  0.39937739577E+00 -0.10951422020E+01  0.18500753340E+00  0.90007717604E+02  0.89999978676E+02 0.  0.
         12    1    1    2    0    0 -0.39937739577E+00  0.10951422020E+01 -0.18500753340E+00  0.11802823960E+01  0.00000000000E+00 0. -1.
         11    1    3    3    0    0  0.29591475317E+02 -0.27356668480E+02 -0.11919265632E+01  0.40317036237E+02  0.51100000000E-03 0. -1.
        -11    1    3    3    0    0 -0.96545604097E+01 -0.31859144573E+01 -0.82171553478E+01  0.13072193003E+02  0.51100000000E-03 0.  1.
        -12    1    3    3    0    0 -0.19537537511E+02  0.29447440735E+02  0.95940894444E+01  0.36618488364E+02  0.00000000000E+00 0.  1.
</event>
<event>
 7    1  0.2490895E-015  0.9000784E+02  0.7816164E-02  0.1186339E+00
        -11   -1    0    0    0    0  0.00000000000E+00  0.00000000000E+00  0.45593999997E+02  0.45594000000E+02  0.51100000000E-03 0.  1.
         11   -1    0    0    0    0 -0.00000000000E+00 -0.00000000000E+00 -0.45593999997E+02  0.45594000000E+02  0.51100000000E-03 0. -1.
    9900012    2    1    2    0    0  0.93786946517E-01 -0.11449719127E+01  0.27022063843E+00  0.90007840746E+02  0.90000103443E+02 0.  0.
         12    1    1    2    0    0 -0.93786946517E-01  0.11449719127E+01 -0.27022063843E+00  0.11801592544E+01  0.00000000000E+00 0. -1.
         11    1    3    3    0    0  0.49342239927E+01 -0.79805480150E+01 -0.77464180364E+01  0.12167280127E+02  0.51100000000E-03 0. -1.
        -11    1    3    3    0    0  0.12847022674E+02 -0.14617471905E+02  0.34392177758E+02  0.39516305087E+02  0.51100000000E-03 0.  1.
         12    1    3    3    0    0 -0.17687459720E+02  0.21453048007E+02 -0.26375539084E+02  0.38324255532E+02  0.00000000000E+00 0. -1.
</event>
<event>
 7    1  0.2490895E-015  0.9000797E+02  0.7816164E-02  0.1186339E+00
        -11   -1    0    0    0    0  0.00000000000E+00  0.00000000000E+00  0.45593999997E+02  0.45594000000E+02  0.51100000000E-03 0. -1.
         11   -1    0    0    0    0 -0.00000000000E+00 -0.00000000000E+00 -0.45593999997E+02  0.45594000000E+02  0.51100000000E-03 0.  1.
    9900012    2    1    2    0    0 -0.86501785766E+00  0.64773496453E+00 -0.47398106188E+00  0.90007968422E+02  0.90000232805E+02 0.  0.
         12    1    1    2    0    0  0.86501785766E+00 -0.64773496453E+00  0.47398106188E+00  0.11800315781E+01  0.00000000000E+00 0. -1.
         11    1    3    3    0    0  0.49419739680E+01 -0.63218943092E+01 -0.63932844334E+01  0.10259802165E+02  0.51100000000E-03 0. -1.
        -11    1    3    3    0    0 -0.37725055901E+02 -0.11480108192E+02  0.14290965522E+02  0.41942870940E+02  0.51100000000E-03 0.  1.
         12    1    3    3    0    0  0.31918064075E+02  0.18449737466E+02 -0.83716621508E+01  0.37805295317E+02  0.00000000000E+00 0. -1.
</event>
<event>
 7    1  0.2490895E-015  0.9000781E+02  0.7816164E-02  0.1186339E+00
        -11   -1    0    0    0    0  0.00000000000E+00  0.00000000000E+00  0.45593999997E+02  0.45594000000E+02  0.51100000000E-03 0. -1.
         11   -1    0    0    0    0 -0.00000000000E+00 -0.00000000000E+00 -0.45593999997E+02  0.45594000000E+02  0.51100000000E-03 0.  1.
    9900012    2    1    2    0    0 -0.79037016425E+00  0.87622322592E+00 -0.19942803378E-01  0.90007809399E+02  0.90000071684E+02 0.  0.
         12    1    1    2    0    0  0.79037016425E+00 -0.87622322592E+00  0.19942803378E-01  0.11801906005E+01  0.00000000000E+00 0. -1.
         11    1    3    3    0    0  0.32408608595E+02 -0.81455429721E+00  0.13881101060E+02  0.35265654349E+02  0.51100000000E-03 0. -1.
        -11    1    3    3    0    0  0.90193893032E+01  0.14566588443E+01  0.24634623340E+01  0.94625517342E+01  0.51100000000E-03 0.  1.
        -12    1    3    3    0    0 -0.42218368062E+02  0.23411867883E+00 -0.16364506197E+02  0.45279603316E+02  0.00000000000E+00 0.  1.
</event>
<event>
 7    1  0.2490895E-015  0.9000798E+02  0.7816164E-02  0.1186339E+00
        -11   -1    0    0    0    0  0.00000000000E+00  0.00000000000E+00  0.45593999997E+02  0.45594000000E+02  0.51100000000E-03 0.  1.
         11   -1    0    0    0    0 -0.00000000000E+00 -0.00000000000E+00 -0.45593999997E+02  0.45594000000E+02  0.51100000000E-03 0. -1.
    9900012    2    1    2    0    0 -0.56519145853E+00  0.15194093167E+00  0.10246602484E+01  0.90007976248E+02  0.90000240734E+02 0.  0.
         12    1    1    2    0    0  0.56519145853E+00 -0.15194093167E+00 -0.10246602484E+01  0.11800237524E+01  0.00000000000E+00 0. -1.
         11    1    3    3    0    0  0.33739143635E+02  0.72817955014E+01 -0.24226255140E+02  0.42169488938E+02  0.51100000000E-03 0. -1.
        -11    1    3    3    0    0 -0.83325717909E+01 -0.10779231560E+01 -0.30633574063E+01  0.89430324746E+01  0.51100000000E-03 0.  1.
        -12    1    3    3    0    0 -0.25971763302E+02 -0.60519314138E+01  0.28314272795E+02  0.38895454835E+02  0.00000000000E+00 0.  1.
</event>
<event>
 7    1  0.2490895E-015  0.9000776E+02  0.7816164E-02  0.1186339E+00
        -11   -1    0    0    0    0  0.00000000000E+00  0.00000000000E+00  0.45593999997E+02  0.45594000000E+02  0.51100000000E-03 0. -1.
         11   -1    0    0    0    0 -0.00000000000E+00 -0.00000000000E+00 -0.45593999997E+02  0.45594000000E+02  0.51100000000E-03 0.  1.
    9900012    2    1    2    0    0  0.14650697288E+00  0.96565200900E-01  0.11671229853E+01  0.90007760535E+02  0.90000022174E+02 0.  0.
         12    1    1    2    0    0 -0.14650697288E+00 -0.96565200900E-01 -0.11671229853E+01  0.11802394647E+01  0.00000000000E+00 0. -1.
         11    1    3    3    0    0 -0.35640790904E+01 -0.96165272657E+01  0.19140667616E+01  0.10432828391E+02  0.51100000000E-03 0. -1.
        -11    1    3    3    0    0 -0.23913409084E+02  0.32068987335E+02  0.12090233673E+02  0.41790487353E+02  0.51100000000E-03 0.  1.
         12    1    3    3    0    0  0.27623995147E+02 -0.22355894868E+02 -0.12837177450E+02  0.37784444791E+02  0.00000000000E+00 0. -1.
</event>
<event>
 7    1  0.2740764E-015  0.9000753E+02  0.7816164E-02  0.1186339E+00
        -11   -1    0    0    0    0  0.00000000000E+00  0.00000000000E+00  0.45593999997E+02  0.45594000000E+02  0.51100000000E-03 0. -1.
         11   -1    0    0    0    0 -0.00000000000E+00 -0.00000000000E+00 -0.45593999997E+02  0.45594000000E+02  0.51100000000E-03 0.  1.
    9900012    2    1    2    0    0 -0.81682968596E+00  0.83089018657E+00 -0.18952464557E+00  0.90007530251E+02  0.89999788850E+02 0.  0.
         12    1    1    2    0    0  0.81682968596E+00 -0.83089018657E+00  0.18952464557E+00  0.11804697494E+01  0.00000000000E+00 0. -1.
         11    1    3    3    0    0 -0.17968784026E+01  0.35580910496E+02  0.55498146329E+01  0.36055934414E+02  0.51100000000E-03 0. -1.
        -11    1    3    3    0    0 -0.31738033891E+01  0.90082830269E+01 -0.25252461216E+01  0.98792236173E+01  0.51100000000E-03 0.  1.
        -12    1    3    3    0    0  0.41538521057E+01 -0.43758303337E+02 -0.32140931569E+01  0.44072372219E+02  0.00000000000E+00 0.  1.
</event>
<event>
 7    1  0.2490895E-015  0.9000789E+02  0.7816164E-02  0.1186339E+00
        -11   -1    0    0    0    0  0.00000000000E+00  0.00000000000E+00  0.45593999997E+02  0.45594000000E+02  0.51100000000E-03 0.  1.
         11   -1    0    0    0    0 -0.00000000000E+00 -0.00000000000E+00 -0.45593999997E+02  0.45594000000E+02  0.51100000000E-03 0. -1.
    9900012    2    1    2    0    0 -0.11299371147E+01  0.19548334024E+00  0.27872672250E+00  0.90007889749E+02  0.90000153093E+02 0.  0.
         12    1    1    2    0    0  0.11299371147E+01 -0.19548334024E+00 -0.27872672250E+00  0.11801102513E+01  0.00000000000E+00 0. -1.
         11    1    3    3    0    0  0.28427441186E+02 -0.16774718496E+02 -0.25006742184E+02  0.41410720205E+02  0.51100000000E-03 0. -1.
        -11    1    3    3    0    0 -0.29714613348E+01  0.85507486013E+01 -0.23331082980E+01  0.93481698047E+01  0.51100000000E-03 0.  1.
        -12    1    3    3    0    0 -0.26585916966E+02  0.84194532348E+01  0.27618577204E+02  0.39248999739E+02  0.00000000000E+00 0.  1.
</event>
<event>
 7    1  0.2490895E-015  0.9000775E+02  0.7816164E-02  0.1186339E+00
        -11   -1    0    0    0    0  0.00000000000E+00  0.00000000000E+00  0.45593999997E+02  0.45594000000E+02  0.51100000000E-03 0.  1.
         11   -1    0    0    0    0 -0.00000000000E+00 -0.00000000000E+00 -0.45593999997E+02  0.45594000000E+02  0.51100000000E-03 0. -1.
    9900012    2    1    2    0    0  0.60010709581E+00 -0.19566748065E+00  0.99728776802E+00  0.90007746984E+02  0.90000008444E+02 0.  0.
         12    1    1    2    0    0 -0.60010709581E+00  0.19566748065E+00 -0.99728776802E+00  0.11802530159E+01  0.00000000000E+00 0. -1.
         11    1    3    3    0    0 -0.14339937435E+01  0.65288693011E+01  0.66504245050E+01  0.94292427461E+01  0.51100000000E-03 0. -1.
        -11    1    3    3    0    0  0.13500383002E+02  0.24510283591E+02  0.23345600764E+02  0.36442165389E+02  0.51100000000E-03 0.  1.
         12    1    3    3    0    0 -0.11466282163E+02 -0.31234820373E+02 -0.28998737501E+02  0.44136338849E+02  0.00000000000E+00 0. -1.
</event>
<event>
 7    1  0.2490895E-015  0.9000775E+02  0.7816164E-02  0.1186339E+00
        -11   -1    0    0    0    0  0.00000000000E+00  0.00000000000E+00  0.45593999997E+02  0.45594000000E+02  0.51100000000E-03 0. -1.
         11   -1    0    0    0    0 -0.00000000000E+00 -0.00000000000E+00 -0.45593999997E+02  0.45594000000E+02  0.51100000000E-03 0.  1.
    9900012    2    1    2    0    0 -0.48086146639E-01 -0.11080743548E+01 -0.40353751395E+00  0.90007752747E+02  0.90000014283E+02 0.  0.
         12    1    1    2    0    0  0.48086146639E-01  0.11080743548E+01  0.40353751395E+00  0.11802472531E+01  0.00000000000E+00 0. -1.
         11    1    3    3    0    0 -0.93695319370E+01 -0.47287617965E+00  0.13461840250E+01  0.94775499097E+01  0.51100000000E-03 0. -1.
        -11    1    3    3    0    0 -0.33358933654E+02 -0.85911929806E+01 -0.10958923351E+02  0.36148652156E+02  0.51100000000E-03 0.  1.
         12    1    3    3    0    0  0.42680379445E+02  0.79559948055E+01  0.92092018121E+01  0.44381550682E+02  0.00000000000E+00 0. -1.
</event>
<event>
 7    1  0.2490895E-015  0.9000772E+02  0.7816164E-02  0.1186339E+00
        -11   -1    0    0    0    0  0.00000000000E+00  0.00000000000E+00  0.45593999997E+02  0.45594000000E+02  0.51100000000E-03 0. -1.
         11   -1    0    0    0    0 -0.00000000000E+00 -0.00000000000E+00 -0.45593999997E+02  0.45594000000E+02  0.51100000000E-03 0.  1.
    9900012    2    1    2    0    0 -0.47592252641E+00 -0.31169409167E+00 -0.10341201743E+01  0.90007720375E+02  0.89999981484E+02 0.  0.
         12    1    1    2    0    0  0.47592252641E+00  0.31169409167E+00  0.10341201743E+01  0.11802796249E+01  0.00000000000E+00 0. -1.
         11    1    3    3    0    0 -0.99015087956E+01 -0.60680960469E+00 -0.91540163129E+00  0.99622314134E+01  0.51100000000E-03 0. -1.
        -11    1    3    3    0    0  0.12415764942E+02  0.12907162990E+02 -0.36916633240E+02  0.41031498700E+02  0.51100000000E-03 0.  1.
         12    1    3    3    0    0 -0.29901786725E+01 -0.12612047477E+02  0.36797914697E+02  0.39013990261E+02  0.00000000000E+00 0. -1.
</event>
<event>
 7    1  0.2490895E-015  0.9000779E+02  0.7816164E-02  0.1186339E+00
        -11   -1    0    0    0    0  0.00000000000E+00  0.00000000000E+00  0.45593999997E+02  0.45594000000E+02  0.51100000000E-03 0. -1.
         11   -1    0    0    0    0 -0.00000000000E+00 -0.00000000000E+00 -0.45593999997E+02  0.45594000000E+02  0.51100000000E-03 0.  1.
    9900012    2    1    2    0    0 -0.72582209545E+00  0.82603062194E+00 -0.42865789523E+00  0.90007791589E+02  0.90000053638E+02 0.  0.
         12    1    1    2    0    0  0.72582209545E+00 -0.82603062194E+00  0.42865789523E+00  0.11802084112E+01  0.00000000000E+00 0. -1.
         11    1    3    3    0    0 -0.24310571804E+02  0.20042052597E+02  0.30290951615E+01  0.31652222536E+02  0.51100000000E-03 0. -1.
        -11    1    3    3    0    0 -0.14445002981E+01 -0.27435707399E+02  0.94047571555E+01  0.29038837425E+02  0.51100000000E-03 0.  1.
        -12    1    3    3    0    0  0.25029250006E+02  0.82196854243E+01 -0.12862510212E+02  0.29316731627E+02  0.00000000000E+00 0.  1.
</event>
<event>
 7    1  0.2490895E-015  0.9000776E+02  0.7816164E-02  0.1186339E+00
        -11   -1    0    0    0    0  0.00000000000E+00  0.00000000000E+00  0.45593999997E+02  0.45594000000E+02  0.51100000000E-03 0. -1.
         11   -1    0    0    0    0 -0.00000000000E+00 -0.00000000000E+00 -0.45593999997E+02  0.45594000000E+02  0.51100000000E-03 0.  1.
    9900012    2    1    2    0    0  0.49308792372E+00  0.91116973850E+00  0.56533583268E+00  0.90007758247E+02  0.90000019855E+02 0.  0.
         12    1    1    2    0    0 -0.49308792372E+00 -0.91116973850E+00 -0.56533583268E+00  0.11802417535E+01  0.00000000000E+00 0. -1.
         11    1    3    3    0    0  0.18902516122E+01 -0.32184576337E+02  0.21116776044E+02  0.38540086091E+02  0.51100000000E-03 0. -1.
        -11    1    3    3    0    0  0.52205949906E+01 -0.55884702406E+01 -0.55624851846E+01  0.94565772548E+01  0.51100000000E-03 0.  1.
        -12    1    3    3    0    0 -0.66177586791E+01  0.38684216317E+02 -0.14988955026E+02  0.42011094901E+02  0.00000000000E+00 0.  1.
</event>
<event>
 7    1  0.2490895E-015  0.9000764E+02  0.7816164E-02  0.1186339E+00
        -11   -1    0    0    0    0  0.00000000000E+00  0.00000000000E+00  0.45593999997E+02  0.45594000000E+02  0.51100000000E-03 0. -1.
         11   -1    0    0    0    0 -0.00000000000E+00 -0.00000000000E+00 -0.45593999997E+02  0.45594000000E+02  0.51100000000E-03 0.  1.
    9900012    2    1    2    0    0 -0.18170592867E+00 -0.49206910594E+00 -0.10574042962E+01  0.90007638659E+02  0.89999898689E+02 0.  0.
         12    1    1    2    0    0  0.18170592867E+00  0.49206910594E+00  0.10574042962E+01  0.11803613409E+01  0.00000000000E+00 0. -1.
         11    1    3    3    0    0 -0.36294701280E+02 -0.59934090184E+01 -0.12629690966E+02  0.38893899095E+02  0.51100000000E-03 0. -1.
        -11    1    3    3    0    0 -0.43183580637E+01  0.80668560974E+01  0.75112330984E+00  0.91807717622E+01  0.51100000000E-03 0.  1.
        -12    1    3    3    0    0  0.40431353415E+02 -0.25655161849E+01  0.10821163360E+02  0.41932967802E+02  0.00000000000E+00 0.  1.
</event>
<event>
 7    1  0.2490895E-015  0.9000767E+02  0.7816164E-02  0.1186339E+00
        -11   -1    0    0    0    0  0.00000000000E+00  0.00000000000E+00  0.45593999997E+02  0.45594000000E+02  0.51100000000E-03 0. -1.
         11   -1    0    0    0    0 -0.00000000000E+00 -0.00000000000E+00 -0.45593999997E+02  0.45594000000E+02  0.51100000000E-03 0.  1.
    9900012    2    1    2    0    0 -0.42315275124E+00  0.54649308093E+00 -0.95679864585E+00  0.90007670984E+02  0.89999931441E+02 0.  0.
         12    1    1    2    0    0  0.42315275124E+00 -0.54649308093E+00  0.95679864585E+00  0.11803290165E+01  0.00000000000E+00 0. -1.
         11    1    3    3    0    0 -0.52469236876E+01  0.30805916017E+01  0.92502845571E+01  0.11071947320E+02  0.51100000000E-03 0. -1.
        -11    1    3    3    0    0 -0.27025054811E+02  0.21651969132E+02  0.71178229919E+01  0.35352860694E+02  0.51100000000E-03 0.  1.
         12    1    3    3    0    0  0.31848825747E+02 -0.24186067653E+02 -0.17324906195E+02  0.43582862970E+02  0.00000000000E+00 0. -1.
</event>
<event>
 7    1  0.2490895E-015  0.9000779E+02  0.7816164E-02  0.1186339E+00
        -11   -1    0    0    0    0  0.00000000000E+00  0.00000000000E+00  0.45593999997E+02  0.45594000000E+02  0.51100000000E-03 0.  1.
         11   -1    0    0    0    0 -0.00000000000E+00 -0.00000000000E+00 -0.45593999997E+02  0.45594000000E+02  0.51100000000E-03 0. -1.
    9900012    2    1    2    0    0  0.60740951317E+00 -0.20803839760E+00  0.99028832370E+00  0.90007789317E+02  0.90000051336E+02 0.  0.
         12    1    1    2    0    0 -0.60740951317E+00  0.20803839760E+00 -0.99028832370E+00  0.11802106827E+01  0.00000000000E+00 0. -1.
         11    1    3    3    0    0  0.53088507741E+01 -0.64849705388E+01  0.26697623631E+01  0.87958155260E+01  0.51100000000E-03 0. -1.
        -11    1    3    3    0    0  0.14693578522E+02 -0.33413667685E+02 -0.53154149273E+01  0.36886692370E+02  0.51100000000E-03 0.  1.
         12    1    3    3    0    0 -0.19395019783E+02  0.39690599826E+02  0.36359408878E+01  0.44325281421E+02  0.00000000000E+00 0. -1.
</event>
<event>
 7    1  0.2490895E-015  0.9000763E+02  0.7816164E-02  0.1186339E+00
        -11   -1    0    0    0    0  0.00000000000E+00  0.00000000000E+00  0.45593999997E+02  0.45594000000E+02  0.51100000000E-03 0. -1.
         11   -1    0    0    0    0 -0.00000000000E+00 -0.00000000000E+00 -0.45593999997E+02  0.45594000000E+02  0.51100000000E-03 0.  1.
    9900012    2    1    2    0    0  0.10803817802E+00  0.11336568349E+01 -0.31051313231E+00  0.90007632061E+02  0.89999892004E+02 0.  0.
         12    1    1    2    0    0 -0.10803817802E+00 -0.11336568349E+01  0.31051313231E+00  0.11803679395E+01  0.00000000000E+00 0. -1.
         11    1    3    3    0    0 -0.18905943877E+01  0.10047978433E+02 -0.96081789407E+01  0.14030442635E+02  0.51100000000E-03 0. -1.
        -11    1    3    3    0    0  0.28732264619E+02  0.11758211083E+02 -0.14877917499E+02  0.34426021951E+02  0.51100000000E-03 0.  1.
         12    1    3    3    0    0 -0.26733632054E+02 -0.20672532681E+02  0.24175583307E+02  0.41551167474E+02  0.00000000000E+00 0. -1.
</event>
<event>
 7    1  0.2490895E-015  0.9000773E+02  0.7816164E-02  0.1186339E+00
        -11   -1    0    0    0    0  0.00000000000E+00  0.00000000000E+00  0.45593999997E+02  0.45594000000E+02  0.51100000000E-03 0. -1.
         11   -1    0    0    0    0 -0.00000000000E+00 -0.00000000000E+00 -0.45593999997E+02  0.45594000000E+02  0.51100000000E-03 0.  1.
    9900012    2    1    2    0    0  0.63919589094E+00  0.52567930463E+00  0.84149924657E+00  0.90007732615E+02  0.89999993885E+02 0.  0.
         12    1    1    2    0    0 -0.63919589094E+00 -0.52567930463E+00 -0.84149924657E+00  0.11802673851E+01  0.00000000000E+00 0. -1.
         11    1    3    3    0    0  0.78111383726E+01  0.34060303515E+01 -0.47321253168E+01  0.97472014295E+01  0.51100000000E-03 0. -1.
        -11    1    3    3    0    0 -0.68196463729E+01 -0.41006933441E+02  0.67478454239E+01  0.42114244443E+02  0.51100000000E-03 0.  1.
         12    1    3    3    0    0 -0.35229610876E+00  0.38126582394E+02 -0.11742208606E+01  0.38146286742E+02  0.00000000000E+00 0. -1.
</event>
<event>
 7    1  0.2490895E-015  0.9000780E+02  0.7816164E-02  0.1186339E+00
        -11   -1    0    0    0    0  0.00000000000E+00  0.00000000000E+00  0.45593999997E+02  0.45594000000E+02  0.51100000000E-03 0. -1.
         11   -1    0    0    0    0 -0.00000000000E+00 -0.00000000000E+00 -0.45593999997E+02  0.45594000000E+02  0.51100000000E-03 0.  1.
    9900012    2    1    2    0    0  0.48565932172E+00 -0.57709189584E+00 -0.90772865153E+00  0.90007800297E+02  0.90000062461E+02 0.  0.
         12    1    1    2    0    0 -0.48565932172E+00  0.57709189584E+00  0.90772865153E+00  0.11801997025E+01  0.00000000000E+00 0. -1.
         11    1    3    3    0    0 -0.57792692386E+01  0.25605337883E+01 -0.80006357007E+01  0.10196394367E+02  0.51100000000E-03 0. -1.
        -11    1    3    3    0    0 -0.16701825165E+02  0.24322961742E+02 -0.19368501541E+02  0.35294422845E+02  0.51100000000E-03 0.  1.
         12    1    3    3    0    0  0.22966753725E+02 -0.27460587426E+02  0.26461408590E+02  0.44516983086E+02  0.00000000000E+00 0. -1.
</event>
<event>
 7    1  0.2490895E-015  0.9000794E+02  0.7816164E-02  0.1186339E+00
        -11   -1    0    0    0    0  0.00000000000E+00  0.00000000000E+00  0.45593999997E+02  0.45594000000E+02  0.51100000000E-03 0. -1.
         11   -1    0    0    0    0 -0.00000000000E+00 -0.00000000000E+00 -0.45593999997E+02  0.45594000000E+02  0.51100000000E-03 0.  1.
    9900012    2    1    2    0    0  0.37542638100E+00  0.35651016095E+00 -0.10604222882E+01  0.90007940725E+02  0.90000204743E+02 0.  0.
         12    1    1    2    0    0 -0.37542638100E+00 -0.35651016095E+00  0.10604222882E+01  0.11800592747E+01  0.00000000000E+00 0. -1.
         11    1    3    3    0    0  0.20518842604E+02  0.25123583939E+02 -0.15200543989E+02  0.35822812698E+02  0.51100000000E-03 0. -1.
        -11    1    3    3    0    0  0.56637932016E+01 -0.44740800842E+01 -0.10776547947E+02  0.12970348182E+02  0.51100000000E-03 0.  1.
        -12    1    3    3    0    0 -0.25807209424E+02 -0.20292993694E+02  0.24916669649E+02  0.41214779846E+02  0.00000000000E+00 0.  1.
</event>
<event>
 7    1  0.2490895E-015  0.9000770E+02  0.7816164E-02  0.1186339E+00
        -11   -1    0    0    0    0  0.00000000000E+00  0.00000000000E+00  0.45593999997E+02  0.45594000000E+02  0.51100000000E-03 0.  1.
         11   -1    0    0    0    0 -0.00000000000E+00 -0.00000000000E+00 -0.45593999997E+02  0.45594000000E+02  0.51100000000E-03 0. -1.
    9900012    2    1    2    0    0 -0.10247308079E+01 -0.22664823924E+00 -0.54005294729E+00  0.90007703495E+02  0.89999964382E+02 0.  0.
         12    1    1    2    0    0  0.10247308079E+01  0.22664823924E+00  0.54005294729E+00  0.11802965046E+01  0.00000000000E+00 0. -1.
         11    1    3    3    0    0 -0.12845177169E+02  0.26144196902E+01 -0.33837697183E+02  0.36288063020E+02  0.51100000000E-03 0. -1.
        -11    1    3    3    0    0 -0.66105313947E+01 -0.40621655754E+01 -0.63202494441E+01  0.10007290731E+02  0.51100000000E-03 0.  1.
        -12    1    3    3    0    0  0.18430977756E+02  0.12210976460E+01  0.39617893680E+02  0.43712349744E+02  0.00000000000E+00 0.  1.
</event>
<event>
 7    1  0.2490895E-015  0.9000775E+02  0.7816164E-02  0.1186339E+00
        -11   -1    0    0    0    0  0.00000000000E+00  0.00000000000E+00  0.45593999997E+02  0.45594000000E+02  0.51100000000E-03 0. -1.
         11   -1    0    0    0    0 -0.00000000000E+00 -0.00000000000E+00 -0.45593999997E+02  0.45594000000E+02  0.51100000000E-03 0.  1.
    9900012    2    1    2    0    0  0.92811679375E+00 -0.72770189212E+00  0.45153545940E-01  0.90007750167E+02  0.90000011669E+02 0.  0.
         12    1    1    2    0    0 -0.92811679375E+00  0.72770189212E+00 -0.45153545940E-01  0.11802498334E+01  0.00000000000E+00 0. -1.
         11    1    3    3    0    0  0.29476896591E+00 -0.71684082290E+01 -0.59342167004E+01  0.93106333505E+01  0.51100000000E-03 0. -1.
        -11    1    3    3    0    0  0.35551539399E+02  0.11016099730E+02  0.20630359111E+02  0.42554413687E+02  0.51100000000E-03 0.  1.
         12    1    3    3    0    0 -0.34918191571E+02 -0.45753933936E+01 -0.14650988865E+02  0.38142703129E+02  0.00000000000E+00 0. -1.
</event>
<event>
 7    1  0.2490895E-015  0.9000767E+02  0.7816164E-02  0.1186339E+00
        -11   -1    0    0    0    0  0.00000000000E+00  0.00000000000E+00  0.45593999997E+02  0.45594000000E+02  0.51100000000E-03 0.  1.
         11   -1    0    0    0    0 -0.00000000000E+00 -0.00000000000E+00 -0.45593999997E+02  0.45594000000E+02  0.51100000000E-03 0. -1.
    9900012    2    1    2    0    0 -0.10699616138E+01  0.72904047381E-01  0.49298743524E+00  0.90007674000E+02  0.89999934497E+02 0.  0.
         12    1    1    2    0    0  0.10699616138E+01 -0.72904047381E-01 -0.49298743524E+00  0.11803260001E+01  0.00000000000E+00 0. -1.
         11    1    3    3    0    0 -0.14246311045E+01 -0.93734841412E+01 -0.20202688405E+01  0.96939808736E+01  0.51100000000E-03 0. -1.
        -11    1    3    3    0    0  0.27648747354E+02 -0.23672917576E+02 -0.50120347847E+01  0.36742084178E+02  0.51100000000E-03 0.  1.
         12    1    3    3    0    0 -0.27294077864E+02  0.33119305765E+02  0.75252910604E+01  0.43571608948E+02  0.00000000000E+00 0. -1.
</event>
<event>
 7    1  0.2490895E-015  0.9000778E+02  0.7816164E-02  0.1186339E+00
        -11   -1    0    0    0    0  0.00000000000E+00  0.00000000000E+00  0.45593999997E+02  0.45594000000E+02  0.51100000000E-03 0. -1.
         11   -1    0    0    0    0 -0.00000000000E+00 -0.00000000000E+00 -0.45593999997E+02  0.45594000000E+02  0.51100000000E-03 0.  1.
    9900012    2    1    2    0    0 -0.33327999887E+00 -0.11301193217E+01 -0.68378379720E-01  0.90007779325E+02  0.90000041212E+02 0.  0.
         12    1    1    2    0    0  0.33327999887E+00  0.11301193217E+01  0.68378379720E-01  0.11802206750E+01  0.00000000000E+00 0. -1.
         11    1    3    3    0    0  0.15941762899E+02  0.10204901671E+02  0.36511468493E+02  0.41126234379E+02  0.51100000000E-03 0. -1.
        -11    1    3    3    0    0 -0.77070942974E+01  0.38373171449E+01 -0.27744682145E+00  0.86140166229E+01  0.51100000000E-03 0.  1.
        -12    1    3    3    0    0 -0.85679486008E+01 -0.15172338138E+02 -0.36302400051E+02  0.40267528323E+02  0.00000000000E+00 0.  1.
</event>
<event>
 7    1  0.2490895E-015  0.9000774E+02  0.7816164E-02  0.1186339E+00
        -11   -1    0    0    0    0  0.00000000000E+00  0.00000000000E+00  0.45593999997E+02  0.45594000000E+02  0.51100000000E-03 0.  1.
         11   -1    0    0    0    0 -0.00000000000E+00 -0.00000000000E+00 -0.45593999997E+02  0.45594000000E+02  0.51100000000E-03 0. -1.
    9900012    2    1    2    0    0 -0.69758480553E-01 -0.43073977258E+00  0.10966345098E+01  0.90007741450E+02  0.90000002837E+02 0.  0.
         12    1    1    2    0    0  0.69758480553E-01  0.43073977258E+00 -0.10966345098E+01  0.11802585502E+01  0.00000000000E+00 0. -1.
         11    1    3    3    0    0 -0.17072384370E+02  0.37382712062E+01 -0.24101167593E+02  0.29770912974E+02  0.51100000000E-03 0. -1.
        -11    1    3    3    0    0 -0.17631897646E+02 -0.85113805509E+01  0.64424784107E+01  0.20611475974E+02  0.51100000000E-03 0.  1.
        -12    1    3    3    0    0  0.34634523536E+02  0.43423695721E+01  0.18755323692E+02  0.39625352502E+02  0.00000000000E+00 0.  1.
</event>
<event>
 7    1  0.2490895E-015  0.9000774E+02  0.7816164E-02  0.1186339E+00
        -11   -1    0    0    0    0  0.00000000000E+00  0.00000000000E+00  0.45593999997E+02  0.45594000000E+02  0.51100000000E-03 0.  1.
         11   -1    0    0    0    0 -0.00000000000E+00 -0.00000000000E+00 -0.45593999997E+02  0.45594000000E+02  0.51100000000E-03 0. -1.
    9900012    2    1    2    0    0  0.54977908012E+00  0.10088412652E+01  0.27017915114E+00  0.90007739644E+02  0.90000001007E+02 0.  0.
         12    1    1    2    0    0 -0.54977908012E+00 -0.10088412652E+01 -0.27017915114E+00  0.11802603565E+01  0.00000000000E+00 0. -1.
         11    1    3    3    0    0 -0.44142709889E+01 -0.40321608708E+01  0.46619737348E+01  0.75814318579E+01  0.51100000000E-03 0. -1.
        -11    1    3    3    0    0  0.26860527484E+02  0.76727733482E+01  0.30366869094E+02  0.41261436311E+02  0.51100000000E-03 0.  1.
         12    1    3    3    0    0 -0.21896477415E+02 -0.26317712121E+01 -0.34758663678E+02  0.41164871475E+02  0.00000000000E+00 0. -1.
</event>
<event>
 7    1  0.2490895E-015  0.9000766E+02  0.7816164E-02  0.1186339E+00
        -11   -1    0    0    0    0  0.00000000000E+00  0.00000000000E+00  0.45593999997E+02  0.45594000000E+02  0.51100000000E-03 0.  1.
         11   -1    0    0    0    0 -0.00000000000E+00 -0.00000000000E+00 -0.45593999997E+02  0.45594000000E+02  0.51100000000E-03 0. -1.
    9900012    2    1    2    0    0 -0.95973204309E+00  0.34059514661E+00 -0.59674552085E+00  0.90007662817E+02  0.89999923166E+02 0.  0.
         12    1    1    2    0    0  0.95973204309E+00 -0.34059514661E+00  0.59674552085E+00  0.11803371828E+01  0.00000000000E+00 0. -1.
         11    1    3    3    0    0 -0.19235347144E+02 -0.30734283980E+02  0.61225983336E+01  0.36770654089E+02  0.51100000000E-03 0. -1.
        -11    1    3    3    0    0 -0.20583295162E+01 -0.76525835169E+01 -0.51828050964E+01  0.94689082691E+01  0.51100000000E-03 0.  1.
        -12    1    3    3    0    0  0.20333944617E+02  0.38727462643E+02 -0.15365387581E+01  0.43768100459E+02  0.00000000000E+00 0.  1.
</event>
<event>
 7    1  0.2490895E-015  0.9000776E+02  0.7816164E-02  0.1186339E+00
        -11   -1    0    0    0    0  0.00000000000E+00  0.00000000000E+00  0.45593999997E+02  0.45594000000E+02  0.51100000000E-03 0.  1.
         11   -1    0    0    0    0 -0.00000000000E+00 -0.00000000000E+00 -0.45593999997E+02  0.45594000000E+02  0.51100000000E-03 0. -1.
    9900012    2    1    2    0    0  0.65434851617E+00  0.96215637312E+00  0.19763611381E+00  0.90007755576E+02  0.90000017150E+02 0.  0.
         12    1    1    2    0    0 -0.65434851617E+00 -0.96215637312E+00 -0.19763611381E+00  0.11802444240E+01  0.00000000000E+00 0. -1.
         11    1    3    3    0    0  0.27524571058E+00  0.79866657423E+01 -0.53138316154E+01  0.95968430527E+01  0.51100000000E-03 0. -1.
        -11    1    3    3    0    0  0.23530442996E+02  0.28237656058E+02 -0.45709723196E+01  0.37039718620E+02  0.51100000000E-03 0.  1.
         12    1    3    3    0    0 -0.23151340191E+02 -0.35262165427E+02  0.10082440049E+02  0.43371193903E+02  0.00000000000E+00 0. -1.
</event>
<event>
 7    1  0.2490895E-015  0.9000771E+02  0.7816164E-02  0.1186339E+00
        -11   -1    0    0    0    0  0.00000000000E+00  0.00000000000E+00  0.45593999997E+02  0.45594000000E+02  0.51100000000E-03 0.  1.
         11   -1    0    0    0    0 -0.00000000000E+00 -0.00000000000E+00 -0.45593999997E+02  0.45594000000E+02  0.51100000000E-03 0. -1.
    9900012    2    1    2    0    0 -0.84237653155E+00  0.81503284546E+00 -0.13858646938E+00  0.90007710642E+02  0.89999971622E+02 0.  0.
         12    1    1    2    0    0  0.84237653155E+00 -0.81503284546E+00  0.13858646938E+00  0.11802893584E+01  0.00000000000E+00 0. -1.
         11    1    3    3    0    0 -0.18935764523E+02  0.27645349855E+02  0.16693837539E+02  0.37436783499E+02  0.51100000000E-03 0. -1.
        -11    1    3    3    0    0  0.77950569666E+01  0.81523486474E+01  0.21140864631E+01  0.11475759819E+02  0.51100000000E-03 0.  1.
        -12    1    3    3    0    0  0.10298331024E+02 -0.34982665657E+02 -0.18946510472E+02  0.41095167324E+02  0.00000000000E+00 0.  1.
</event>
<event>
 7    1  0.2490895E-015  0.9000770E+02  0.7816164E-02  0.1186339E+00
        -11   -1    0    0    0    0  0.00000000000E+00  0.00000000000E+00  0.45593999997E+02  0.45594000000E+02  0.51100000000E-03 0.  1.
         11   -1    0    0    0    0 -0.00000000000E+00 -0.00000000000E+00 -0.45593999997E+02  0.45594000000E+02  0.51100000000E-03 0. -1.
    9900012    2    1    2    0    0 -0.71130229208E+00  0.58890245139E+00  0.73508257845E+00  0.90007701968E+02  0.89999962834E+02 0.  0.
         12    1    1    2    0    0  0.71130229208E+00 -0.58890245139E+00 -0.73508257845E+00  0.11802980323E+01  0.00000000000E+00 0. -1.
         11    1    3    3    0    0  0.23262336592E+02 -0.15061318504E+02  0.17978202108E+02  0.33033246436E+02  0.51100000000E-03 0. -1.
        -11    1    3    3    0    0  0.73069440457E+01 -0.72602677837E+01  0.58492145309E+01  0.11845515205E+02  0.51100000000E-03 0.  1.
        -12    1    3    3    0    0 -0.31280582929E+02  0.22910488739E+02 -0.23092334061E+02  0.45128940327E+02  0.00000000000E+00 0.  1.
</event>
<event>
 7    1  0.2490895E-015  0.9000775E+02  0.7816164E-02  0.1186339E+00
        -11   -1    0    0    0    0  0.00000000000E+00  0.00000000000E+00  0.45593999997E+02  0.45594000000E+02  0.51100000000E-03 0.  1.
         11   -1    0    0    0    0 -0.00000000000E+00 -0.00000000000E+00 -0.45593999997E+02  0.45594000000E+02  0.51100000000E-03 0. -1.
    9900012    2    1    2    0    0  0.64405794878E+00  0.58111588809E+00  0.80030727872E+00  0.90007746613E+02  0.90000008068E+02 0.  0.
         12    1    1    2    0    0 -0.64405794878E+00 -0.58111588809E+00 -0.80030727872E+00  0.11802533868E+01  0.00000000000E+00 0. -1.
         11    1    3    3    0    0  0.19883118763E+02 -0.26543730460E+02 -0.10532495717E+02  0.34797147940E+02  0.51100000000E-03 0. -1.
        -11    1    3    3    0    0  0.88928796185E+01 -0.40456886181E+01 -0.39351829843E+01  0.10532643053E+02  0.51100000000E-03 0.  1.
        -12    1    3    3    0    0 -0.28131940432E+02  0.31170534966E+02  0.15267985980E+02  0.44677955620E+02  0.00000000000E+00 0.  1.
</event>
<event>
 7    1  0.2490895E-015  0.9000759E+02  0.7816164E-02  0.1186339E+00
        -11   -1    0    0    0    0  0.00000000000E+00  0.00000000000E+00  0.45593999997E+02  0.45594000000E+02  0.51100000000E-03 0.  1.
         11   -1    0    0    0    0 -0.00000000000E+00 -0.00000000000E+00 -0.45593999997E+02  0.45594000000E+02  0.51100000000E-03 0. -1.
    9900012    2    1    2    0    0 -0.92262707031E-01  0.11229069802E+01  0.35204788692E+00  0.90007588966E+02  0.89999848341E+02 0.  0.
         12    1    1    2    0    0  0.92262707031E-01 -0.11229069802E+01 -0.35204788692E+00  0.11804110335E+01  0.00000000000E+00 0. -1.
         11    1    3    3    0    0 -0.96406723094E+01 -0.39966880331E+01  0.41543899454E+01  0.11232766084E+02  0.51100000000E-03 0. -1.
        -11    1    3    3    0    0  0.20975320328E+02 -0.22579709963E+02  0.23092936050E+02  0.38510921315E+02  0.51100000000E-03 0.  1.
         12    1    3    3    0    0 -0.11426910726E+02  0.27699304976E+02 -0.26895278108E+02  0.40263901568E+02  0.00000000000E+00 0. -1.
</event>
<event>
 7    1  0.2490895E-015  0.9000773E+02  0.7816164E-02  0.1186339E+00
        -11   -1    0    0    0    0  0.00000000000E+00  0.00000000000E+00  0.45593999997E+02  0.45594000000E+02  0.51100000000E-03 0. -1.
         11   -1    0    0    0    0 -0.00000000000E+00 -0.00000000000E+00 -0.45593999997E+02  0.45594000000E+02  0.51100000000E-03 0.  1.
    9900012    2    1    2    0    0 -0.60211060363E+00 -0.98386006604E+00 -0.25005787677E+00  0.90007725985E+02  0.89999987168E+02 0.  0.
         12    1    1    2    0    0  0.60211060363E+00  0.98386006604E+00  0.25005787677E+00  0.11802740149E+01  0.00000000000E+00 0. -1.
         11    1    3    3    0    0 -0.27638341306E+02  0.23782812865E+02  0.64522020722E+00  0.36468018966E+02  0.51100000000E-03 0. -1.
        -11    1    3    3    0    0 -0.40475498310E+01  0.68551049076E+01  0.40354497591E+01  0.89252438593E+01  0.51100000000E-03 0.  1.
        -12    1    3    3    0    0  0.31083780534E+02 -0.31621777839E+02 -0.49307278431E+01  0.44614463160E+02  0.00000000000E+00 0.  1.
</event>
<event>
 7    1  0.2490895E-015  0.9000781E+02  0.7816164E-02  0.1186339E+00
        -11   -1    0    0    0    0  0.00000000000E+00  0.00000000000E+00  0.45593999997E+02  0.45594000000E+02  0.51100000000E-03 0. -1.
         11   -1    0    0    0    0 -0.00000000000E+00 -0.00000000000E+00 -0.45593999997E+02  0.45594000000E+02  0.51100000000E-03 0.  1.
    9900012    2    1    2    0    0 -0.85464487673E+00  0.42699415596E+00  0.69289267124E+00  0.90007812672E+02  0.90000075000E+02 0.  0.
         12    1    1    2    0    0  0.85464487673E+00 -0.42699415596E+00 -0.69289267124E+00  0.11801873277E+01  0.00000000000E+00 0. -1.
         11    1    3    3    0    0 -0.53563470456E+00  0.95898048910E+01  0.14564119948E+01  0.97145457199E+01  0.51100000000E-03 0. -1.
        -11    1    3    3    0    0  0.13657953230E+02  0.33047548812E+02  0.12865808074E+01  0.35781775520E+02  0.51100000000E-03 0.  1.
         12    1    3    3    0    0 -0.13976963403E+02 -0.42210359547E+02 -0.20501001310E+01  0.44511491433E+02  0.00000000000E+00 0. -1.
</event>
<event>
 7    1  0.2490895E-015  0.9000775E+02  0.7816164E-02  0.1186339E+00
        -11   -1    0    0    0    0  0.00000000000E+00  0.00000000000E+00  0.45593999997E+02  0.45594000000E+02  0.51100000000E-03 0.  1.
         11   -1    0    0    0    0 -0.00000000000E+00 -0.00000000000E+00 -0.45593999997E+02  0.45594000000E+02  0.51100000000E-03 0. -1.
    9900012    2    1    2    0    0 -0.66596269488E+00 -0.92835991336E+00 -0.29602449989E+00  0.90007750474E+02  0.90000011980E+02 0.  0.
         12    1    1    2    0    0  0.66596269488E+00  0.92835991336E+00  0.29602449989E+00  0.11802495263E+01  0.00000000000E+00 0. -1.
         11    1    3    3    0    0  0.10420664520E+02 -0.25917260717E+02  0.21811997491E+02  0.35440906971E+02  0.51100000000E-03 0. -1.
        -11    1    3    3    0    0  0.41580436280E+01 -0.63952887389E+01  0.60460226886E+01  0.97336239643E+01  0.51100000000E-03 0.  1.
        -12    1    3    3    0    0 -0.15244670843E+02  0.31384189543E+02 -0.28154044680E+02  0.44833219538E+02  0.00000000000E+00 0.  1.
</event>
<event>
 7    1  0.2490895E-015  0.9000790E+02  0.7816164E-02  0.1186339E+00
        -11   -1    0    0    0    0  0.00000000000E+00  0.00000000000E+00  0.45593999997E+02  0.45594000000E+02  0.51100000000E-03 0. -1.
         11   -1    0    0    0    0 -0.00000000000E+00 -0.00000000000E+00 -0.45593999997E+02  0.45594000000E+02  0.51100000000E-03 0.  1.
    9900012    2    1    2    0    0 -0.78366174782E+00  0.75176277975E+00 -0.46190769927E+00  0.90007901811E+02  0.90000165315E+02 0.  0.
         12    1    1    2    0    0  0.78366174782E+00 -0.75176277975E+00  0.46190769927E+00  0.11800981886E+01  0.00000000000E+00 0. -1.
         11    1    3    3    0    0 -0.16706333208E+00  0.58815687285E+01  0.68430915227E+01  0.90248912854E+01  0.51100000000E-03 0. -1.
        -11    1    3    3    0    0  0.20421725752E+02  0.26308495244E+02 -0.22526323766E+02  0.40207201686E+02  0.51100000000E-03 0.  1.
         12    1    3    3    0    0 -0.21038324167E+02 -0.31438301193E+02  0.15221324545E+02  0.40775808840E+02  0.00000000000E+00 0. -1.
</event>
<event>
 7    1  0.2490895E-015  0.9000775E+02  0.7816164E-02  0.1186339E+00
        -11   -1    0    0    0    0  0.00000000000E+00  0.00000000000E+00  0.45593999997E+02  0.45594000000E+02  0.51100000000E-03 0.  1.
         11   -1    0    0    0    0 -0.00000000000E+00 -0.00000000000E+00 -0.45593999997E+02  0.45594000000E+02  0.51100000000E-03 0. -1.
    9900012    2    1    2    0    0  0.16072396545E-01  0.77967955363E+00  0.88590945235E+00  0.90007748295E+02  0.90000009773E+02 0.  0.
         12    1    1    2    0    0 -0.16072396545E-01 -0.77967955363E+00 -0.88590945235E+00  0.11802517045E+01  0.00000000000E+00 0. -1.
         11    1    3    3    0    0  0.59912073435E+01  0.15006656540E+01  0.33332173339E+01  0.70183260749E+01  0.51100000000E-03 0. -1.
        -11    1    3    3    0    0  0.18826663402E+02 -0.16766867692E+02  0.29949064265E+02  0.39147382514E+02  0.51100000000E-03 0.  1.
         12    1    3    3    0    0 -0.24801798349E+02  0.16045881592E+02 -0.32396372147E+02  0.43842039707E+02  0.00000000000E+00 0. -1.
</event>
<event>
 7    1  0.2490895E-015  0.9000775E+02  0.7816164E-02  0.1186339E+00
        -11   -1    0    0    0    0  0.00000000000E+00  0.00000000000E+00  0.45593999997E+02  0.45594000000E+02  0.51100000000E-03 0. -1.
         11   -1    0    0    0    0 -0.00000000000E+00 -0.00000000000E+00 -0.45593999997E+02  0.45594000000E+02  0.51100000000E-03 0.  1.
    9900012    2    1    2    0    0  0.57886539076E+00  0.75690448563E+00  0.69641248442E+00  0.90007754310E+02  0.90000015867E+02 0.  0.
         12    1    1    2    0    0 -0.57886539076E+00 -0.75690448563E+00 -0.69641248442E+00  0.11802456903E+01  0.00000000000E+00 0. -1.
         11    1    3    3    0    0  0.25940584400E+01 -0.11024772990E+02 -0.55867463961E+01  0.12628796230E+02  0.51100000000E-03 0. -1.
        -11    1    3    3    0    0  0.32676307615E+02  0.13496490448E+02 -0.12979679521E+02  0.37661232249E+02  0.51100000000E-03 0.  1.
         12    1    3    3    0    0 -0.34691500664E+02 -0.17148129727E+01  0.19262838402E+02  0.39717725831E+02  0.00000000000E+00 0. -1.
</event>
<event>
 7    1  0.2490895E-015  0.9000778E+02  0.7816164E-02  0.1186339E+00
        -11   -1    0    0    0    0  0.00000000000E+00  0.00000000000E+00  0.45593999997E+02  0.45594000000E+02  0.51100000000E-03 0.  1.
         11   -1    0    0    0    0 -0.00000000000E+00 -0.00000000000E+00 -0.45593999997E+02  0.45594000000E+02  0.51100000000E-03 0. -1.
    9900012    2    1    2    0    0 -0.46061038561E+00  0.76562693817E+00  0.77108912672E+00  0.90007777573E+02  0.90000039437E+02 0.  0.
         12    1    1    2    0    0  0.46061038561E+00 -0.76562693817E+00 -0.77108912672E+00  0.11802224270E+01  0.00000000000E+00 0. -1.
         11    1    3    3    0    0 -0.87551220333E+01  0.33749237286E+02  0.20837916055E+02  0.40618738594E+02  0.51100000000E-03 0. -1.
        -11    1    3    3    0    0  0.71351069541E+01  0.39504974144E+01 -0.42092301575E+01  0.91778973544E+01  0.51100000000E-03 0.  1.
        -12    1    3    3    0    0  0.11594046936E+01 -0.36934107762E+02 -0.15857596771E+02  0.40211141625E+02  0.00000000000E+00 0.  1.
</event>
<event>
 7    1  0.2490895E-015  0.9000774E+02  0.7816164E-02  0.1186339E+00
        -11   -1    0    0    0    0  0.00000000000E+00  0.00000000000E+00  0.45593999997E+02  0.45594000000E+02  0.51100000000E-03 0. -1.
         11   -1    0    0    0    0 -0.00000000000E+00 -0.00000000000E+00 -0.45593999997E+02  0.45594000000E+02  0.51100000000E-03 0.  1.
    9900012    2    1    2    0    0 -0.15970737910E+00 -0.11522501803E+01  0.19956256846E+00  0.90007740646E+02  0.90000002022E+02 0.  0.
         12    1    1    2    0    0  0.15970737910E+00  0.11522501803E+01 -0.19956256846E+00  0.11802593544E+01  0.00000000000E+00 0. -1.
         11    1    3    3    0    0 -0.12916605523E+02 -0.33476285439E+02 -0.18461495875E+01  0.35929217269E+02  0.51100000000E-03 0. -1.
        -11    1    3    3    0    0 -0.15110406230E+01 -0.45932851793E+00  0.15720024209E+02  0.15799157821E+02  0.51100000000E-03 0.  1.
        -12    1    3    3    0    0  0.14267938767E+02  0.32783363777E+02 -0.13674312053E+02  0.38279365555E+02  0.00000000000E+00 0.  1.
</event>
<event>
 7    1  0.2490895E-015  0.9000776E+02  0.7816164E-02  0.1186339E+00
        -11   -1    0    0    0    0  0.00000000000E+00  0.00000000000E+00  0.45593999997E+02  0.45594000000E+02  0.51100000000E-03 0.  1.
         11   -1    0    0    0    0 -0.00000000000E+00 -0.00000000000E+00 -0.45593999997E+02  0.45594000000E+02  0.51100000000E-03 0. -1.
    9900012    2    1    2    0    0  0.19034619800E+00  0.89863818155E+00 -0.74106734477E+00  0.90007761437E+02  0.90000023088E+02 0.  0.
         12    1    1    2    0    0 -0.19034619800E+00 -0.89863818155E+00  0.74106734477E+00  0.11802385631E+01  0.00000000000E+00 0. -1.
         11    1    3    3    0    0 -0.74221209142E+01 -0.60727159248E+01  0.13841570332E+01  0.96892542809E+01  0.51100000000E-03 0. -1.
        -11    1    3    3    0    0 -0.33064399531E+02  0.71901689197E+01  0.13923175905E+02  0.36589723598E+02  0.51100000000E-03 0.  1.
         12    1    3    3    0    0  0.40676866643E+02 -0.21881481345E+00 -0.16048400283E+02  0.43728783558E+02  0.00000000000E+00 0. -1.
</event>
<event>
 7    1  0.3040250E-015  0.9000761E+02  0.7816164E-02  0.1186339E+00
        -11   -1    0    0    0    0  0.00000000000E+00  0.00000000000E+00  0.45593999997E+02  0.45594000000E+02  0.51100000000E-03 0.  1.
         11   -1    0    0    0    0 -0.00000000000E+00 -0.00000000000E+00 -0.45593999997E+02  0.45594000000E+02  0.51100000000E-03 0. -1.
    9900012    2    1    2    0    0  0.57576604915E+00 -0.74365424190E+00  0.71329427915E+00  0.90007611545E+02  0.89999871218E+02 0.  0.
         12    1    1    2    0    0 -0.57576604915E+00  0.74365424190E+00 -0.71329427915E+00  0.11803884545E+01  0.00000000000E+00 0. -1.
         11    1    3    3    0    0  0.25237736787E+01  0.28734057588E+02 -0.30718843623E+02  0.42138614748E+02  0.51100000000E-03 0. -1.
        -11    1    3    3    0    0  0.68329199251E+01 -0.17998887502E+01  0.60970070632E+01  0.93328393110E+01  0.51100000000E-03 0.  1.
        -12    1    3    3    0    0 -0.87809275546E+01 -0.27677823080E+02  0.25335130839E+02  0.38536157486E+02  0.00000000000E+00 0.  1.
</event>
<event>
 7    1  0.2490895E-015  0.9000769E+02  0.7816164E-02  0.1186339E+00
        -11   -1    0    0    0    0  0.00000000000E+00  0.00000000000E+00  0.45593999997E+02  0.45594000000E+02  0.51100000000E-03 0.  1.
         11   -1    0    0    0    0 -0.00000000000E+00 -0.00000000000E+00 -0.45593999997E+02  0.45594000000E+02  0.51100000000E-03 0. -1.
    9900012    2    1    2    0    0 -0.43619903488E+00  0.10967377094E+01  0.54703790107E-02  0.90007689394E+02  0.89999950094E+02 0.  0.
         12    1    1    2    0    0  0.43619903488E+00 -0.10967377094E+01 -0.54703790107E-02  0.11803106059E+01  0.00000000000E+00 0. -1.
         11    1    3    3    0    0  0.31241254271E+02  0.14747769405E+02 -0.55527349747E+01  0.34990649276E+02  0.51100000000E-03 0. -1.
        -11    1    3    3    0    0  0.73317222298E+01  0.73849536401E+01  0.65293689270E+00  0.10426793273E+02  0.51100000000E-03 0.  1.
        -12    1    3    3    0    0 -0.39009175535E+02 -0.21035985335E+02  0.49052684610E+01  0.44590246844E+02  0.00000000000E+00 0.  1.
</event>
<event>
 7    1  0.2490895E-015  0.9000786E+02  0.7816164E-02  0.1186339E+00
        -11   -1    0    0    0    0  0.00000000000E+00  0.00000000000E+00  0.45593999997E+02  0.45594000000E+02  0.51100000000E-03 0. -1.
         11   -1    0    0    0    0 -0.00000000000E+00 -0.00000000000E+00 -0.45593999997E+02  0.45594000000E+02  0.51100000000E-03 0.  1.
    9900012    2    1    2    0    0 -0.75298903726E+00 -0.84820542490E+00 -0.32603209291E+00  0.90007855154E+02  0.90000118041E+02 0.  0.
         12    1    1    2    0    0  0.75298903726E+00  0.84820542490E+00  0.32603209291E+00  0.11801448465E+01  0.00000000000E+00 0. -1.
         11    1    3    3    0    0  0.83105742731E+01  0.33421786988E+01 -0.52468205582E+01  0.10380988847E+02  0.51100000000E-03 0. -1.
        -11    1    3    3    0    0  0.23114135064E+02  0.21024507045E+02 -0.14407792251E+02  0.34407522638E+02  0.51100000000E-03 0.  1.
         12    1    3    3    0    0 -0.32177698375E+02 -0.25214891169E+02  0.19328580716E+02  0.45219343669E+02  0.00000000000E+00 0. -1.
</event>
<event>
 7    1  0.2490895E-015  0.9000775E+02  0.7816164E-02  0.1186339E+00
        -11   -1    0    0    0    0  0.00000000000E+00  0.00000000000E+00  0.45593999997E+02  0.45594000000E+02  0.51100000000E-03 0.  1.
         11   -1    0    0    0    0 -0.00000000000E+00 -0.00000000000E+00 -0.45593999997E+02  0.45594000000E+02  0.51100000000E-03 0. -1.
    9900012    2    1    2    0    0 -0.69769943355E-01  0.56936751135E+00  0.10314816827E+01  0.90007745083E+02  0.90000006518E+02 0.  0.
         12    1    1    2    0    0  0.69769943355E-01 -0.56936751135E+00 -0.10314816827E+01  0.11802549173E+01  0.00000000000E+00 0. -1.
         11    1    3    3    0    0 -0.29253456139E+02 -0.13413766237E+02 -0.27369889444E+02  0.42246948637E+02  0.51100000000E-03 0. -1.
        -11    1    3    3    0    0  0.26699398489E+01  0.93955675869E+01  0.18162898503E+01  0.99349976426E+01  0.51100000000E-03 0.  1.
        -12    1    3    3    0    0  0.26513746346E+02  0.45875661615E+01  0.26585081276E+02  0.37825798803E+02  0.00000000000E+00 0.  1.
</event>
<event>
 7    1  0.2490895E-015  0.9000771E+02  0.7816164E-02  0.1186339E+00
        -11   -1    0    0    0    0  0.00000000000E+00  0.00000000000E+00  0.45593999997E+02  0.45594000000E+02  0.51100000000E-03 0.  1.
         11   -1    0    0    0    0 -0.00000000000E+00 -0.00000000000E+00 -0.45593999997E+02  0.45594000000E+02  0.51100000000E-03 0. -1.
    9900012    2    1    2    0    0  0.11408659855E+01 -0.12877192919E+00 -0.27374768836E+00  0.90007705459E+02  0.89999966371E+02 0.  0.
         12    1    1    2    0    0 -0.11408659855E+01  0.12877192919E+00  0.27374768836E+00  0.11802945410E+01  0.00000000000E+00 0. -1.
         11    1    3    3    0    0 -0.12139084237E+02  0.17369666772E+02 -0.35523965041E+02  0.41364414445E+02  0.51100000000E-03 0. -1.
        -11    1    3    3    0    0  0.68600310257E+01  0.77615797594E+00 -0.15329423506E+01  0.70719416986E+01  0.51100000000E-03 0.  1.
        -12    1    3    3    0    0  0.64199191971E+01 -0.18274596677E+02  0.36783159703E+02  0.41571349316E+02  0.00000000000E+00 0.  1.
</event>
<event>
 7    1  0.2490895E-015  0.9000773E+02  0.7816164E-02  0.1186339E+00
        -11   -1    0    0    0    0  0.00000000000E+00  0.00000000000E+00  0.45593999997E+02  0.45594000000E+02  0.51100000000E-03 0.  1.
         11   -1    0    0    0    0 -0.00000000000E+00 -0.00000000000E+00 -0.45593999997E+02  0.45594000000E+02  0.51100000000E-03 0. -1.
    9900012    2    1    2    0    0  0.36016306132E+00  0.82979462950E-01  0.11209080423E+01  0.90007729751E+02  0.89999990983E+02 0.  0.
         12    1    1    2    0    0 -0.36016306132E+00 -0.82979462950E-01 -0.11209080423E+01  0.11802702492E+01  0.00000000000E+00 0. -1.
         11    1    3    3    0    0  0.24327235705E+02  0.27678821016E+02  0.25228472960E+01  0.36936381640E+02  0.51100000000E-03 0. -1.
        -11    1    3    3    0    0 -0.81470824312E+01  0.32650517606E+01 -0.13704638341E+02  0.16274293455E+02  0.51100000000E-03 0.  1.
        -12    1    3    3    0    0 -0.15819990213E+02 -0.30860893314E+02  0.12302699087E+02  0.36797054655E+02  0.00000000000E+00 0.  1.
</event>
<event>
 7    1  0.2490895E-015  0.9000777E+02  0.7816164E-02  0.1186339E+00
        -11   -1    0    0    0    0  0.00000000000E+00  0.00000000000E+00  0.45593999997E+02  0.45594000000E+02  0.51100000000E-03 0.  1.
         11   -1    0    0    0    0 -0.00000000000E+00 -0.00000000000E+00 -0.45593999997E+02  0.45594000000E+02  0.51100000000E-03 0. -1.
    9900012    2    1    2    0    0 -0.83108052077E+00 -0.26115291740E+00  0.79627456087E+00  0.90007767457E+02  0.90000029188E+02 0.  0.
         12    1    1    2    0    0  0.83108052077E+00  0.26115291740E+00 -0.79627456087E+00  0.11802325426E+01  0.00000000000E+00 0. -1.
         11    1    3    3    0    0 -0.48930713147E+01  0.10754476186E+02 -0.19456828291E+01  0.11974413842E+02  0.51100000000E-03 0. -1.
        -11    1    3    3    0    0 -0.83508905858E+01  0.98533462712E+00  0.37922938862E+02  0.38844015627E+02  0.51100000000E-03 0.  1.
         12    1    3    3    0    0  0.12412881380E+02 -0.12000963731E+02 -0.35180981472E+02  0.39189337988E+02  0.00000000000E+00 0. -1.
</event>
<event>
 7    1  0.2490895E-015  0.9000775E+02  0.7816164E-02  0.1186339E+00
        -11   -1    0    0    0    0  0.00000000000E+00  0.00000000000E+00  0.45593999997E+02  0.45594000000E+02  0.51100000000E-03 0.  1.
         11   -1    0    0    0    0 -0.00000000000E+00 -0.00000000000E+00 -0.45593999997E+02  0.45594000000E+02  0.51100000000E-03 0. -1.
    9900012    2    1    2    0    0 -0.43206895699E+00  0.85958165002E+00 -0.68369195660E+00  0.90007746261E+02  0.90000007712E+02 0.  0.
         12    1    1    2    0    0  0.43206895699E+00 -0.85958165002E+00  0.68369195660E+00  0.11802537389E+01  0.00000000000E+00 0. -1.
         11    1    3    3    0    0 -0.25018601981E+01  0.60227064025E+01  0.77212341878E+01  0.10106916172E+02  0.51100000000E-03 0. -1.
        -11    1    3    3    0    0 -0.60430022890E+01  0.15835435617E+02  0.30534150564E+02  0.34922961627E+02  0.51100000000E-03 0.  1.
         12    1    3    3    0    0  0.81127935301E+01 -0.20998560370E+02 -0.38939076709E+02  0.44977868462E+02  0.00000000000E+00 0. -1.
</event>
<event>
 7    1  0.2490895E-015  0.9000773E+02  0.7816164E-02  0.1186339E+00
        -11   -1    0    0    0    0  0.00000000000E+00  0.00000000000E+00  0.45593999997E+02  0.45594000000E+02  0.51100000000E-03 0. -1.
         11   -1    0    0    0    0 -0.00000000000E+00 -0.00000000000E+00 -0.45593999997E+02  0.45594000000E+02  0.51100000000E-03 0.  1.
    9900012    2    1    2    0    0 -0.81068770134E+00 -0.15232519240E+00 -0.84417372681E+00  0.90007725966E+02  0.89999987149E+02 0.  0.
         12    1    1    2    0    0  0.81068770134E+00  0.15232519240E+00  0.84417372681E+00  0.11802740336E+01  0.00000000000E+00 0. -1.
         11    1    3    3    0    0  0.82712626731E+01  0.61117041983E+01  0.20463122071E+01  0.10485900454E+02  0.51100000000E-03 0. -1.
        -11    1    3    3    0    0  0.58549117048E+01  0.32908321931E+02 -0.13863401743E+02  0.36186068473E+02  0.51100000000E-03 0.  1.
         12    1    3    3    0    0 -0.14936862079E+02 -0.39172351322E+02  0.10972915809E+02  0.43335757040E+02  0.00000000000E+00 0. -1.
</event>
<event>
 7    1  0.2490895E-015  0.9000701E+02  0.7816164E-02  0.1186341E+00
        -11   -1    0    0    0    0  0.00000000000E+00  0.00000000000E+00  0.45593999997E+02  0.45594000000E+02  0.51100000000E-03 0.  1.
         11   -1    0    0    0    0 -0.00000000000E+00 -0.00000000000E+00 -0.45593999997E+02  0.45594000000E+02  0.51100000000E-03 0. -1.
    9900012    2    1    2    0    0 -0.37971595701E+00 -0.88923749020E+00  0.67810131154E+00  0.90007005118E+02  0.89999256783E+02 0.  0.
         12    1    1    2    0    0  0.37971595701E+00  0.88923749020E+00 -0.67810131154E+00  0.11809948817E+01  0.00000000000E+00 0. -1.
         11    1    3    3    0    0 -0.46988773644E+01  0.84830945751E+01 -0.16308659218E+01  0.98337208610E+01  0.51100000000E-03 0. -1.
        -11    1    3    3    0    0 -0.17744501066E+02 -0.28510851078E+02 -0.23668688961E+02  0.41084580863E+02  0.51100000000E-03 0.  1.
         12    1    3    3    0    0  0.22063662473E+02  0.19138519012E+02  0.25977656195E+02  0.39088703395E+02  0.00000000000E+00 0. -1.
</event>
<event>
 7    1  0.2490895E-015  0.9000772E+02  0.7816164E-02  0.1186339E+00
        -11   -1    0    0    0    0  0.00000000000E+00  0.00000000000E+00  0.45593999997E+02  0.45594000000E+02  0.51100000000E-03 0. -1.
         11   -1    0    0    0    0 -0.00000000000E+00 -0.00000000000E+00 -0.45593999997E+02  0.45594000000E+02  0.51100000000E-03 0.  1.
    9900012    2    1    2    0    0 -0.90392203157E+00  0.35482299659E+00 -0.67088647303E+00  0.90007719077E+02  0.89999980169E+02 0.  0.
         12    1    1    2    0    0  0.90392203157E+00 -0.35482299659E+00  0.67088647303E+00  0.11802809232E+01  0.00000000000E+00 0. -1.
         11    1    3    3    0    0  0.32182792772E+02  0.13601143487E+02  0.15213832413E+02  0.38107531430E+02  0.51100000000E-03 0. -1.
        -11    1    3    3    0    0  0.26756974619E+01  0.73405338589E+01 -0.48113956055E+01  0.91756374261E+01  0.51100000000E-03 0.  1.
        -12    1    3    3    0    0 -0.35762412265E+02 -0.20586854350E+02 -0.11073323281E+02  0.42724550220E+02  0.00000000000E+00 0.  1.
</event>
<event>
 7    1  0.2490895E-015  0.9000776E+02  0.7816164E-02  0.1186339E+00
        -11   -1    0    0    0    0  0.00000000000E+00  0.00000000000E+00  0.45593999997E+02  0.45594000000E+02  0.51100000000E-03 0.  1.
         11   -1    0    0    0    0 -0.00000000000E+00 -0.00000000000E+00 -0.45593999997E+02  0.45594000000E+02  0.51100000000E-03 0. -1.
    9900012    2    1    2    0    0 -0.10907591884E+01 -0.44726892559E+00  0.56314984123E-01  0.90007755756E+02  0.90000017332E+02 0.  0.
         12    1    1    2    0    0  0.10907591884E+01  0.44726892559E+00 -0.56314984123E-01  0.11802442443E+01  0.00000000000E+00 0. -1.
         11    1    3    3    0    0 -0.11101111517E+02  0.29596538431E+02  0.29166938955E+02  0.43010464916E+02  0.51100000000E-03 0. -1.
        -11    1    3    3    0    0  0.81272759945E+01 -0.14886676752E+01 -0.71129245098E+01  0.10902405325E+02  0.51100000000E-03 0.  1.
        -12    1    3    3    0    0  0.18830763346E+01 -0.28555139682E+02 -0.21997699461E+02  0.36094885514E+02  0.00000000000E+00 0.  1.
</event>
<event>
 7    1  0.2490895E-015  0.9000766E+02  0.7816164E-02  0.1186339E+00
        -11   -1    0    0    0    0  0.00000000000E+00  0.00000000000E+00  0.45593999997E+02  0.45594000000E+02  0.51100000000E-03 0. -1.
         11   -1    0    0    0    0 -0.00000000000E+00 -0.00000000000E+00 -0.45593999997E+02  0.45594000000E+02  0.51100000000E-03 0.  1.
    9900012    2    1    2    0    0 -0.28757254268E+00 -0.24309729551E+00 -0.11186679260E+01  0.90007655901E+02  0.89999916159E+02 0.  0.
         12    1    1    2    0    0  0.28757254268E+00  0.24309729551E+00  0.11186679260E+01  0.11803440986E+01  0.00000000000E+00 0. -1.
         11    1    3    3    0    0 -0.32879378531E+02 -0.37621570912E+01 -0.17764329600E+02  0.37560334995E+02  0.51100000000E-03 0. -1.
        -11    1    3    3    0    0 -0.44473758597E+01  0.65216961061E+01 -0.50939768107E+01  0.93946938293E+01  0.51100000000E-03 0.  1.
        -12    1    3    3    0    0  0.37039181848E+02 -0.30026363104E+01  0.21739638484E+02  0.43052627077E+02  0.00000000000E+00 0.  1.
</event>
<event>
 7    1  0.2490895E-015  0.9000775E+02  0.7816164E-02  0.1186339E+00
        -11   -1    0    0    0    0  0.00000000000E+00  0.00000000000E+00  0.45593999997E+02  0.45594000000E+02  0.51100000000E-03 0. -1.
         11   -1    0    0    0    0 -0.00000000000E+00 -0.00000000000E+00 -0.45593999997E+02  0.45594000000E+02  0.51100000000E-03 0.  1.
    9900012    2    1    2    0    0 -0.84676972284E-01 -0.31158290051E+00 -0.11352257416E+01  0.90007749358E+02  0.90000010850E+02 0.  0.
         12    1    1    2    0    0  0.84676972284E-01  0.31158290051E+00  0.11352257416E+01  0.11802506420E+01  0.00000000000E+00 0. -1.
         11    1    3    3    0    0  0.48581361439E+01  0.93226734942E+01  0.17776965320E+01  0.10661797836E+02  0.51100000000E-03 0. -1.
        -11    1    3    3    0    0  0.25172364904E+02  0.22704716779E+02 -0.80982247778E+01  0.34853025172E+02  0.51100000000E-03 0.  1.
         12    1    3    3    0    0 -0.30115178020E+02 -0.32338973174E+02  0.51853025042E+01  0.44492926350E+02  0.00000000000E+00 0. -1.
</event>
<event>
 7    1  0.2490895E-015  0.9000775E+02  0.7816164E-02  0.1186339E+00
        -11   -1    0    0    0    0  0.00000000000E+00  0.00000000000E+00  0.45593999997E+02  0.45594000000E+02  0.51100000000E-03 0.  1.
         11   -1    0    0    0    0 -0.00000000000E+00 -0.00000000000E+00 -0.45593999997E+02  0.45594000000E+02  0.51100000000E-03 0. -1.
    9900012    2    1    2    0    0  0.45010128659E+00 -0.57318987069E+00  0.92836148278E+00  0.90007748824E+02  0.90000010308E+02 0.  0.
         12    1    1    2    0    0 -0.45010128659E+00  0.57318987069E+00 -0.92836148278E+00  0.11802511761E+01  0.00000000000E+00 0. -1.
         11    1    3    3    0    0 -0.35076813542E+01 -0.70494088896E+01 -0.47615922755E+01  0.92016713391E+01  0.51100000000E-03 0. -1.
        -11    1    3    3    0    0  0.38647107433E+02  0.19242975142E+02  0.74004980538E+01  0.43802492817E+02  0.51100000000E-03 0.  1.
         12    1    3    3    0    0 -0.34689324792E+02 -0.12766756124E+02 -0.17105442955E+01  0.37003584668E+02  0.00000000000E+00 0. -1.
</event>
<event>
 7    1  0.2490895E-015  0.9000774E+02  0.7816164E-02  0.1186339E+00
        -11   -1    0    0    0    0  0.00000000000E+00  0.00000000000E+00  0.45593999997E+02  0.45594000000E+02  0.51100000000E-03 0. -1.
         11   -1    0    0    0    0 -0.00000000000E+00 -0.00000000000E+00 -0.45593999997E+02  0.45594000000E+02  0.51100000000E-03 0.  1.
    9900012    2    1    2    0    0 -0.45793852501E+00 -0.10348297047E+01 -0.33531767680E+00  0.90007738099E+02  0.89999999442E+02 0.  0.
         12    1    1    2    0    0  0.45793852501E+00  0.10348297047E+01  0.33531767680E+00  0.11802619009E+01  0.00000000000E+00 0. -1.
         11    1    3    3    0    0 -0.21553321268E+02 -0.28957574722E+02 -0.87723445656E+01  0.37148900669E+02  0.51100000000E-03 0. -1.
        -11    1    3    3    0    0 -0.65644310951E+01 -0.16407276195E+01 -0.68077322183E+01  0.95983832462E+01  0.51100000000E-03 0.  1.
        -12    1    3    3    0    0  0.27659813838E+02  0.29563472637E+02  0.15244759107E+02  0.43260454184E+02  0.00000000000E+00 0.  1.
</event>
<event>
 7    1  0.2490895E-015  0.9000774E+02  0.7816164E-02  0.1186339E+00
        -11   -1    0    0    0    0  0.00000000000E+00  0.00000000000E+00  0.45593999997E+02  0.45594000000E+02  0.51100000000E-03 0. -1.
         11   -1    0    0    0    0 -0.00000000000E+00 -0.00000000000E+00 -0.45593999997E+02  0.45594000000E+02  0.51100000000E-03 0.  1.
    9900012    2    1    2    0    0  0.52739394125E+00 -0.21706239234E+00 -0.10333239559E+01  0.90007737805E+02  0.89999999144E+02 0.  0.
         12    1    1    2    0    0 -0.52739394125E+00  0.21706239234E+00  0.10333239559E+01  0.11802621951E+01  0.00000000000E+00 0. -1.
         11    1    3    3    0    0 -0.35647730846E+02  0.11160853996E+02 -0.16116826250E+02  0.40682643290E+02  0.51100000000E-03 0. -1.
        -11    1    3    3    0    0  0.54224069088E+01  0.77821980618E+01 -0.12750712889E+01  0.95703140184E+01  0.51100000000E-03 0.  1.
        -12    1    3    3    0    0  0.30752717879E+02 -0.19160114450E+02  0.16358573583E+02  0.39754780497E+02  0.00000000000E+00 0.  1.
</event>
<event>
 7    1  0.2490895E-015  0.9000771E+02  0.7816164E-02  0.1186339E+00
        -11   -1    0    0    0    0  0.00000000000E+00  0.00000000000E+00  0.45593999997E+02  0.45594000000E+02  0.51100000000E-03 0.  1.
         11   -1    0    0    0    0 -0.00000000000E+00 -0.00000000000E+00 -0.45593999997E+02  0.45594000000E+02  0.51100000000E-03 0. -1.
    9900012    2    1    2    0    0 -0.44130386569E+00  0.71951883392E+00  0.82499716734E+00  0.90007713263E+02  0.89999974279E+02 0.  0.
         12    1    1    2    0    0  0.44130386569E+00 -0.71951883392E+00 -0.82499716734E+00  0.11802867365E+01  0.00000000000E+00 0. -1.
         11    1    3    3    0    0  0.22935361123E+02 -0.21752325398E+02  0.21547595099E+02  0.38255631021E+02  0.51100000000E-03 0. -1.
        -11    1    3    3    0    0  0.69272354712E+01 -0.22577795715E+01 -0.75190023156E+01  0.10469935814E+02  0.51100000000E-03 0.  1.
        -12    1    3    3    0    0 -0.30303900460E+02  0.24729623803E+02 -0.13203595616E+02  0.41282146428E+02  0.00000000000E+00 0.  1.
</event>
<event>
 7    1  0.2490895E-015  0.9000776E+02  0.7816164E-02  0.1186339E+00
        -11   -1    0    0    0    0  0.00000000000E+00  0.00000000000E+00  0.45593999997E+02  0.45594000000E+02  0.51100000000E-03 0.  1.
         11   -1    0    0    0    0 -0.00000000000E+00 -0.00000000000E+00 -0.45593999997E+02  0.45594000000E+02  0.51100000000E-03 0. -1.
    9900012    2    1    2    0    0 -0.98464647207E+00 -0.63789728242E+00  0.12854206729E+00  0.90007760753E+02  0.90000022395E+02 0.  0.
         12    1    1    2    0    0  0.98464647207E+00  0.63789728242E+00 -0.12854206729E+00  0.11802392473E+01  0.00000000000E+00 0. -1.
         11    1    3    3    0    0  0.34916180785E+01  0.34229584666E+02 -0.23534697382E+02  0.41686182895E+02  0.51100000000E-03 0. -1.
        -11    1    3    3    0    0 -0.81515742604E+01 -0.17546774122E+01  0.78148346602E+01  0.11427978683E+02  0.51100000000E-03 0.  1.
        -12    1    3    3    0    0  0.36753097098E+01 -0.33112804537E+02  0.15848404789E+02  0.36893599175E+02  0.00000000000E+00 0.  1.
</event>
<event>
 7    1  0.2490895E-015  0.9000777E+02  0.7816164E-02  0.1186339E+00
        -11   -1    0    0    0    0  0.00000000000E+00  0.00000000000E+00  0.45593999997E+02  0.45594000000E+02  0.51100000000E-03 0. -1.
         11   -1    0    0    0    0 -0.00000000000E+00 -0.00000000000E+00 -0.45593999997E+02  0.45594000000E+02  0.51100000000E-03 0.  1.
    9900012    2    1    2    0    0  0.50619173203E-01 -0.10051914496E+01  0.61641478137E+00  0.90007771491E+02  0.90000033275E+02 0.  0.
         12    1    1    2    0    0 -0.50619173203E-01  0.10051914496E+01 -0.61641478137E+00  0.11802285091E+01  0.00000000000E+00 0. -1.
         11    1    3    3    0    0  0.34072450594E+01 -0.31308997761E+02  0.23469539291E+02  0.39276989886E+02  0.51100000000E-03 0. -1.
        -11    1    3    3    0    0  0.90265703919E+01 -0.26824912540E+01 -0.15114409178E+01  0.95372525539E+01  0.51100000000E-03 0.  1.
        -12    1    3    3    0    0 -0.12383196278E+02  0.32986297566E+02 -0.21341683592E+02  0.41193529051E+02  0.00000000000E+00 0.  1.
</event>
<event>
 7    1  0.2490895E-015  0.9000787E+02  0.7816164E-02  0.1186339E+00
        -11   -1    0    0    0    0  0.00000000000E+00  0.00000000000E+00  0.45593999997E+02  0.45594000000E+02  0.51100000000E-03 0.  1.
         11   -1    0    0    0    0 -0.00000000000E+00 -0.00000000000E+00 -0.45593999997E+02  0.45594000000E+02  0.51100000000E-03 0. -1.
    9900012    2    1    2    0    0 -0.53235338296E+00 -0.11834464577E+00  0.10465660520E+01  0.90007870312E+02  0.90000133400E+02 0.  0.
         12    1    1    2    0    0  0.53235338296E+00  0.11834464577E+00 -0.10465660520E+01  0.11801296881E+01  0.00000000000E+00 0. -1.
         11    1    3    3    0    0 -0.26932222783E+02 -0.12785597063E+02 -0.19313296660E+02  0.35522099381E+02  0.51100000000E-03 0. -1.
        -11    1    3    3    0    0 -0.11215164308E+02  0.36839174434E+01  0.36386818181E+01  0.12352779599E+02  0.51100000000E-03 0.  1.
        -12    1    3    3    0    0  0.37615033708E+02  0.89833349739E+01  0.16721180894E+02  0.42132991332E+02  0.00000000000E+00 0.  1.
</event>
<event>
 7    1  0.2490895E-015  0.9000777E+02  0.7816164E-02  0.1186339E+00
        -11   -1    0    0    0    0  0.00000000000E+00  0.00000000000E+00  0.45593999997E+02  0.45594000000E+02  0.51100000000E-03 0. -1.
         11   -1    0    0    0    0 -0.00000000000E+00 -0.00000000000E+00 -0.45593999997E+02  0.45594000000E+02  0.51100000000E-03 0.  1.
    9900012    2    1    2    0    0 -0.23185600937E+00 -0.36353608256E+00 -0.10986523689E+01  0.90007765820E+02  0.90000027529E+02 0.  0.
         12    1    1    2    0    0  0.23185600937E+00  0.36353608256E+00  0.10986523689E+01  0.11802341802E+01  0.00000000000E+00 0. -1.
         11    1    3    3    0    0 -0.77250561712E+01 -0.86462928900E+01 -0.13450564399E+02  0.17758168726E+02  0.51100000000E-03 0.  1.
        -11    1    3    3    0    0 -0.30046360452E+02  0.14057030009E+02  0.46645614067E+01  0.33498388058E+02  0.51100000000E-03 0. -1.
         12    1    3    3    0    0  0.37539560614E+02 -0.57742732010E+01  0.76873506237E+01  0.38751209036E+02  0.00000000000E+00 0. -1.
</event>
<event>
 7    1  0.2490895E-015  0.9000773E+02  0.7816164E-02  0.1186339E+00
        -11   -1    0    0    0    0  0.00000000000E+00  0.00000000000E+00  0.45593999997E+02  0.45594000000E+02  0.51100000000E-03 0.  1.
         11   -1    0    0    0    0 -0.00000000000E+00 -0.00000000000E+00 -0.45593999997E+02  0.45594000000E+02  0.51100000000E-03 0. -1.
    9900012    2    1    2    0    0  0.27732843747E+00 -0.47526597204E+00  0.10441524790E+01  0.90007727487E+02  0.89999988689E+02 0.  0.
         12    1    1    2    0    0 -0.27732843747E+00  0.47526597204E+00 -0.10441524790E+01  0.11802725134E+01  0.00000000000E+00 0. -1.
         11    1    3    3    0    0 -0.12504351621E+00  0.38617124786E+02 -0.42416739230E+01  0.38849578640E+02  0.51100000000E-03 0. -1.
        -11    1    3    3    0    0 -0.98684448251E+01  0.20072221915E-02  0.41931003716E+01  0.10722327093E+02  0.51100000000E-03 0.  1.
        -12    1    3    3    0    0  0.10270816779E+02 -0.39094397980E+02  0.10927260304E+01  0.40435821754E+02  0.00000000000E+00 0.  1.
</event>
<event>
 7    1  0.2490895E-015  0.9000782E+02  0.7816164E-02  0.1186339E+00
        -11   -1    0    0    0    0  0.00000000000E+00  0.00000000000E+00  0.45593999997E+02  0.45594000000E+02  0.51100000000E-03 0. -1.
         11   -1    0    0    0    0 -0.00000000000E+00 -0.00000000000E+00 -0.45593999997E+02  0.45594000000E+02  0.51100000000E-03 0.  1.
    9900012    2    1    2    0    0  0.90801521700E+00  0.57756325913E+00  0.48450239393E+00  0.90007824792E+02  0.90000087279E+02 0.  0.
         12    1    1    2    0    0 -0.90801521700E+00 -0.57756325913E+00 -0.48450239393E+00  0.11801752083E+01  0.00000000000E+00 0. -1.
         11    1    3    3    0    0 -0.58371114772E-01  0.61361502616E+00 -0.24558956933E+02  0.24566690792E+02  0.51100000000E-03 0. -1.
        -11    1    3    3    0    0 -0.58646475009E+01 -0.48570557240E+01 -0.19074298186E+02  0.20538109265E+02  0.51100000000E-03 0.  1.
         12    1    3    3    0    0  0.68310338327E+01  0.48210039570E+01  0.44117757513E+02  0.44903024735E+02  0.00000000000E+00 0. -1.
</event>
<event>
 7    1  0.2490895E-015  0.9000774E+02  0.7816164E-02  0.1186339E+00
        -11   -1    0    0    0    0  0.00000000000E+00  0.00000000000E+00  0.45593999997E+02  0.45594000000E+02  0.51100000000E-03 0.  1.
         11   -1    0    0    0    0 -0.00000000000E+00 -0.00000000000E+00 -0.45593999997E+02  0.45594000000E+02  0.51100000000E-03 0. -1.
    9900012    2    1    2    0    0  0.29858609073E+00 -0.56299518969E+00  0.99343043451E+00  0.90007736781E+02  0.89999998107E+02 0.  0.
         12    1    1    2    0    0 -0.29858609073E+00  0.56299518969E+00 -0.99343043451E+00  0.11802632187E+01  0.00000000000E+00 0. -1.
         11    1    3    3    0    0 -0.63645294117E+01 -0.59497012999E+00 -0.75425838709E+01  0.98869507837E+01  0.51100000000E-03 0. -1.
        -11    1    3    3    0    0  0.26389289304E+00  0.38700769853E+02  0.12635897969E+02  0.40712223526E+02  0.51100000000E-03 0.  1.
         12    1    3    3    0    0  0.63992226094E+01 -0.38668794913E+02 -0.40998836637E+01  0.39408562472E+02  0.00000000000E+00 0. -1.
</event>
<event>
 7    1  0.2490895E-015  0.9000783E+02  0.7816164E-02  0.1186339E+00
        -11   -1    0    0    0    0  0.00000000000E+00  0.00000000000E+00  0.45593999997E+02  0.45594000000E+02  0.51100000000E-03 0.  1.
         11   -1    0    0    0    0 -0.00000000000E+00 -0.00000000000E+00 -0.45593999997E+02  0.45594000000E+02  0.51100000000E-03 0. -1.
    9900012    2    1    2    0    0  0.13921276930E+00  0.11593559550E+01 -0.17121625239E+00  0.90007829914E+02  0.90000092469E+02 0.  0.
         12    1    1    2    0    0 -0.13921276930E+00 -0.11593559550E+01  0.17121625239E+00  0.11801700855E+01  0.00000000000E+00 0. -1.
         11    1    3    3    0    0  0.10140290577E+02 -0.10647268102E+02 -0.40640124164E+02  0.43218161730E+02  0.51100000000E-03 0. -1.
        -11    1    3    3    0    0 -0.82337768440E+01  0.10901083281E+00  0.55734394353E+01  0.99433491279E+01  0.51100000000E-03 0.  1.
        -12    1    3    3    0    0 -0.17673009639E+01  0.11697613224E+02  0.34895468476E+02  0.36846319056E+02  0.00000000000E+00 0.  1.
</event>
<event>
 7    1  0.2490895E-015  0.9000772E+02  0.7816164E-02  0.1186339E+00
        -11   -1    0    0    0    0  0.00000000000E+00  0.00000000000E+00  0.45593999997E+02  0.45594000000E+02  0.51100000000E-03 0. -1.
         11   -1    0    0    0    0 -0.00000000000E+00 -0.00000000000E+00 -0.45593999997E+02  0.45594000000E+02  0.51100000000E-03 0.  1.
    9900012    2    1    2    0    0  0.90115699358E+00 -0.76189535773E+00 -0.22326704949E-01  0.90007717430E+02  0.89999978500E+02 0.  0.
         12    1    1    2    0    0 -0.90115699358E+00  0.76189535773E+00  0.22326704948E-01  0.11802825700E+01  0.00000000000E+00 0. -1.
         11    1    3    3    0    0  0.32580674506E+02  0.26120694460E+01 -0.16169761075E+02  0.36466209449E+02  0.51100000000E-03 0. -1.
        -11    1    3    3    0    0 -0.10264489600E+02  0.16759350645E+02 -0.69459514627E+00  0.19665147939E+02  0.51100000000E-03 0.  1.
        -12    1    3    3    0    0 -0.21415027913E+02 -0.20133315449E+02  0.16842029516E+02  0.33876360042E+02  0.00000000000E+00 0.  1.
</event>
<event>
 7    1  0.2490895E-015  0.9000773E+02  0.7816164E-02  0.1186339E+00
        -11   -1    0    0    0    0  0.00000000000E+00  0.00000000000E+00  0.45593999997E+02  0.45594000000E+02  0.51100000000E-03 0.  1.
         11   -1    0    0    0    0 -0.00000000000E+00 -0.00000000000E+00 -0.45593999997E+02  0.45594000000E+02  0.51100000000E-03 0. -1.
    9900012    2    1    2    0    0  0.32057633464E+00 -0.10689848780E+01  0.38412374461E+00  0.90007725071E+02  0.89999986242E+02 0.  0.
         12    1    1    2    0    0 -0.32057633464E+00  0.10689848780E+01 -0.38412374461E+00  0.11802749285E+01  0.00000000000E+00 0. -1.
         11    1    3    3    0    0 -0.11428950216E+00  0.88639961251E+01  0.13261248237E+01  0.89633752965E+01  0.51100000000E-03 0. -1.
        -11    1    3    3    0    0 -0.82180940719E+01 -0.21602003491E+00  0.38574558726E+02  0.39440845782E+02  0.51100000000E-03 0.  1.
         12    1    3    3    0    0  0.86529599087E+01 -0.97169609682E+01 -0.39516559805E+02  0.41603503993E+02  0.00000000000E+00 0. -1.
</event>
<event>
 7    1  0.2490895E-015  0.9000783E+02  0.7816164E-02  0.1186339E+00
        -11   -1    0    0    0    0  0.00000000000E+00  0.00000000000E+00  0.45593999997E+02  0.45594000000E+02  0.51100000000E-03 0.  1.
         11   -1    0    0    0    0 -0.00000000000E+00 -0.00000000000E+00 -0.45593999997E+02  0.45594000000E+02  0.51100000000E-03 0. -1.
    9900012    2    1    2    0    0  0.11428243773E+00  0.11168753994E+01 -0.36378357737E+00  0.90007826443E+02  0.90000088952E+02 0.  0.
         12    1    1    2    0    0 -0.11428243773E+00 -0.11168753994E+01  0.36378357737E+00  0.11801735569E+01  0.00000000000E+00 0. -1.
         11    1    3    3    0    0  0.34583785365E+01 -0.68175188808E+01 -0.36734120633E+01  0.84813266792E+01  0.51100000000E-03 0. -1.
        -11    1    3    3    0    0 -0.28767975513E+02 -0.22723716907E+02  0.15605502540E+02  0.39843386339E+02  0.51100000000E-03 0.  1.
         12    1    3    3    0    0  0.25423879414E+02  0.30658111187E+02 -0.12295874054E+02  0.41683113425E+02  0.00000000000E+00 0. -1.
</event>
<event>
 7    1  0.2490895E-015  0.9000768E+02  0.7816164E-02  0.1186339E+00
        -11   -1    0    0    0    0  0.00000000000E+00  0.00000000000E+00  0.45593999997E+02  0.45594000000E+02  0.51100000000E-03 0. -1.
         11   -1    0    0    0    0 -0.00000000000E+00 -0.00000000000E+00 -0.45593999997E+02  0.45594000000E+02  0.51100000000E-03 0.  1.
    9900012    2    1    2    0    0  0.89080935636E+00  0.72039216549E+00  0.28400593071E+00  0.90007675659E+02  0.89999936178E+02 0.  0.
         12    1    1    2    0    0 -0.89080935636E+00 -0.72039216549E+00 -0.28400593071E+00  0.11803243411E+01  0.00000000000E+00 0. -1.
         11    1    3    3    0    0  0.30570246828E+01  0.64174602281E+01 -0.10232117603E+02  0.12458949659E+02  0.51100000000E-03 0. -1.
        -11    1    3    3    0    0  0.20261907076E+02 -0.34188985362E+02 -0.18440755971E+00  0.39742491176E+02  0.51100000000E-03 0.  1.
         12    1    3    3    0    0 -0.22428122402E+02  0.28491917300E+02  0.10700531093E+02  0.37806234824E+02  0.00000000000E+00 0. -1.
</event>
<event>
 7    1  0.2490895E-015  0.9000773E+02  0.7816164E-02  0.1186339E+00
        -11   -1    0    0    0    0  0.00000000000E+00  0.00000000000E+00  0.45593999997E+02  0.45594000000E+02  0.51100000000E-03 0. -1.
         11   -1    0    0    0    0 -0.00000000000E+00 -0.00000000000E+00 -0.45593999997E+02  0.45594000000E+02  0.51100000000E-03 0.  1.
    9900012    2    1    2    0    0 -0.55965985522E+00 -0.83027652905E+00 -0.62487024800E+00  0.90007728381E+02  0.89999989595E+02 0.  0.
         12    1    1    2    0    0  0.55965985522E+00  0.83027652905E+00  0.62487024800E+00  0.11802716192E+01  0.00000000000E+00 0. -1.
         11    1    3    3    0    0  0.28090560794E+00  0.62968225016E+00 -0.17902928895E+02  0.17916201355E+02  0.51100000000E-03 0. -1.
        -11    1    3    3    0    0  0.17692072132E+02  0.92676123447E+01 -0.20528913889E+02  0.28641479721E+02  0.51100000000E-03 0.  1.
         12    1    3    3    0    0 -0.18532637595E+02 -0.10727571124E+02  0.37806972536E+02  0.43450047305E+02  0.00000000000E+00 0. -1.
</event>
<event>
 7    1  0.2490895E-015  0.9000776E+02  0.7816164E-02  0.1186339E+00
        -11   -1    0    0    0    0  0.00000000000E+00  0.00000000000E+00  0.45593999997E+02  0.45594000000E+02  0.51100000000E-03 0.  1.
         11   -1    0    0    0    0 -0.00000000000E+00 -0.00000000000E+00 -0.45593999997E+02  0.45594000000E+02  0.51100000000E-03 0. -1.
    9900012    2    1    2    0    0  0.19675224439E+00 -0.46774520749E-02  0.11637141013E+01  0.90007761112E+02  0.90000022758E+02 0.  0.
         12    1    1    2    0    0 -0.19675224439E+00  0.46774520749E-02 -0.11637141013E+01  0.11802388885E+01  0.00000000000E+00 0. -1.
         11    1    3    3    0    0 -0.25927909306E+02  0.18766963575E+02  0.13328567601E+02  0.34671402011E+02  0.51100000000E-03 0. -1.
        -11    1    3    3    0    0 -0.81458463810E+01  0.71191798130E+01 -0.50257790600E+00  0.10830056292E+02  0.51100000000E-03 0.  1.
        -12    1    3    3    0    0  0.34270507931E+02 -0.25890820841E+02 -0.11662275594E+02  0.44506302809E+02  0.00000000000E+00 0.  1.
</event>
<event>
 7    1  0.2490895E-015  0.9000782E+02  0.7816164E-02  0.1186339E+00
        -11   -1    0    0    0    0  0.00000000000E+00  0.00000000000E+00  0.45593999997E+02  0.45594000000E+02  0.51100000000E-03 0.  1.
         11   -1    0    0    0    0 -0.00000000000E+00 -0.00000000000E+00 -0.45593999997E+02  0.45594000000E+02  0.51100000000E-03 0. -1.
    9900012    2    1    2    0    0  0.11079486907E+01  0.38067780835E+00 -0.14264771411E+00  0.90007824477E+02  0.90000086960E+02 0.  0.
         12    1    1    2    0    0 -0.11079486907E+01 -0.38067780835E+00  0.14264771411E+00  0.11801755231E+01  0.00000000000E+00 0. -1.
         11    1    3    3    0    0  0.82467775883E+01 -0.53150082249E+01 -0.37174422672E+02  0.38447319207E+02  0.51100000000E-03 0. -1.
        -11    1    3    3    0    0 -0.25825965608E+01  0.96666399354E+01 -0.34851552863E+01  0.10595283869E+02  0.51100000000E-03 0.  1.
        -12    1    3    3    0    0 -0.45562323368E+01 -0.39709539022E+01  0.40516930244E+02  0.40965221400E+02  0.00000000000E+00 0.  1.
</event>
<event>
 7    1  0.2490895E-015  0.9000774E+02  0.7816164E-02  0.1186339E+00
        -11   -1    0    0    0    0  0.00000000000E+00  0.00000000000E+00  0.45593999997E+02  0.45594000000E+02  0.51100000000E-03 0. -1.
         11   -1    0    0    0    0 -0.00000000000E+00 -0.00000000000E+00 -0.45593999997E+02  0.45594000000E+02  0.51100000000E-03 0.  1.
    9900012    2    1    2    0    0 -0.87812058227E+00 -0.61407093897E+00 -0.49480820475E+00  0.90007739845E+02  0.90000001210E+02 0.  0.
         12    1    1    2    0    0  0.87812058227E+00  0.61407093897E+00  0.49480820475E+00  0.11802601555E+01  0.00000000000E+00 0. -1.
         11    1    3    3    0    0  0.76791150185E+00 -0.22365611837E+02 -0.11063473282E+02  0.24964188796E+02  0.51100000000E-03 0. -1.
        -11    1    3    3    0    0 -0.20341960291E+02  0.94218335584E+00 -0.16430154788E+02  0.26165493394E+02  0.51100000000E-03 0.  1.
         12    1    3    3    0    0  0.18695928207E+02  0.20809357542E+02  0.26998819865E+02  0.38878057654E+02  0.00000000000E+00 0. -1.
</event>
<event>
 7    1  0.2490895E-015  0.9000766E+02  0.7816164E-02  0.1186339E+00
        -11   -1    0    0    0    0  0.00000000000E+00  0.00000000000E+00  0.45593999997E+02  0.45594000000E+02  0.51100000000E-03 0.  1.
         11   -1    0    0    0    0 -0.00000000000E+00 -0.00000000000E+00 -0.45593999997E+02  0.45594000000E+02  0.51100000000E-03 0. -1.
    9900012    2    1    2    0    0 -0.73872796147E+00 -0.53092337581E+00  0.75206950032E+00  0.90007658030E+02  0.89999918316E+02 0.  0.
         12    1    1    2    0    0  0.73872796147E+00  0.53092337581E+00 -0.75206950032E+00  0.11803419697E+01  0.00000000000E+00 0. -1.
         11    1    3    3    0    0  0.13187707914E+02  0.44110054614E+01 -0.27819293310E+01  0.14181387106E+02  0.51100000000E-03 0. -1.
        -11    1    3    3    0    0 -0.22126690184E+00  0.33681740281E+02 -0.47455994036E+01  0.34015133417E+02  0.51100000000E-03 0.  1.
         12    1    3    3    0    0 -0.13705168973E+02 -0.38623669118E+02  0.82795982350E+01  0.41811137507E+02  0.00000000000E+00 0. -1.
</event>
<event>
 7    1  0.2490895E-015  0.9000779E+02  0.7816164E-02  0.1186339E+00
        -11   -1    0    0    0    0  0.00000000000E+00  0.00000000000E+00  0.45593999997E+02  0.45594000000E+02  0.51100000000E-03 0.  1.
         11   -1    0    0    0    0 -0.00000000000E+00 -0.00000000000E+00 -0.45593999997E+02  0.45594000000E+02  0.51100000000E-03 0. -1.
    9900012    2    1    2    0    0 -0.72585063601E+00  0.90644597172E+00  0.21071734390E+00  0.90007785933E+02  0.90000047907E+02 0.  0.
         12    1    1    2    0    0  0.72585063601E+00 -0.90644597172E+00 -0.21071734390E+00  0.11802140672E+01  0.00000000000E+00 0. -1.
         11    1    3    3    0    0  0.29662681452E+00 -0.41223604236E+01 -0.66985012700E+01  0.78709441908E+01  0.51100000000E-03 0. -1.
        -11    1    3    3    0    0 -0.21435157091E+02 -0.32278968177E+02  0.81330073951E+01  0.39592215846E+02  0.51100000000E-03 0.  1.
         12    1    3    3    0    0  0.20412679641E+02  0.37307774572E+02 -0.12237887811E+01  0.42544625896E+02  0.00000000000E+00 0. -1.
</event>
<event>
 7    1  0.2490895E-015  0.9000769E+02  0.7816164E-02  0.1186339E+00
        -11   -1    0    0    0    0  0.00000000000E+00  0.00000000000E+00  0.45593999997E+02  0.45594000000E+02  0.51100000000E-03 0.  1.
         11   -1    0    0    0    0 -0.00000000000E+00 -0.00000000000E+00 -0.45593999997E+02  0.45594000000E+02  0.51100000000E-03 0. -1.
    9900012    2    1    2    0    0 -0.14576661493E+00  0.20608812256E+00  0.11530024291E+01  0.90007688676E+02  0.89999949366E+02 0.  0.
         12    1    1    2    0    0  0.14576661493E+00 -0.20608812256E+00 -0.11530024291E+01  0.11803113241E+01  0.00000000000E+00 0. -1.
         11    1    3    3    0    0  0.21610415831E+02  0.80306278028E+01 -0.32404977017E+02  0.39769128618E+02  0.51100000000E-03 0. -1.
        -11    1    3    3    0    0 -0.66673267883E+01 -0.29772376821E+01 -0.47981226782E+01  0.87372290925E+01  0.51100000000E-03 0.  1.
        -12    1    3    3    0    0 -0.15088855657E+02 -0.48473019982E+01  0.38356102125E+02  0.41501330965E+02  0.00000000000E+00 0.  1.
</event>
<event>
 7    1  0.2490895E-015  0.9000773E+02  0.7816164E-02  0.1186339E+00
        -11   -1    0    0    0    0  0.00000000000E+00  0.00000000000E+00  0.45593999997E+02  0.45594000000E+02  0.51100000000E-03 0. -1.
         11   -1    0    0    0    0 -0.00000000000E+00 -0.00000000000E+00 -0.45593999997E+02  0.45594000000E+02  0.51100000000E-03 0.  1.
    9900012    2    1    2    0    0  0.11007555091E+01 -0.17307879285E+00  0.38912592695E+00  0.90007729715E+02  0.89999990947E+02 0.  0.
         12    1    1    2    0    0 -0.11007555091E+01  0.17307879285E+00 -0.38912592695E+00  0.11802702853E+01  0.00000000000E+00 0. -1.
         11    1    3    3    0    0 -0.24748942270E+01  0.68680490124E+01 -0.10341717878E+02  0.12658843849E+02  0.51100000000E-03 0. -1.
        -11    1    3    3    0    0  0.20970874775E+02 -0.62686351065E+01 -0.27613585470E+02  0.35236110422E+02  0.51100000000E-03 0.  1.
         12    1    3    3    0    0 -0.17395225038E+02 -0.77249269875E+00  0.38344429275E+02  0.42112775443E+02  0.00000000000E+00 0. -1.
</event>
<event>
 7    1  0.2490895E-015  0.9000767E+02  0.7816164E-02  0.1186339E+00
        -11   -1    0    0    0    0  0.00000000000E+00  0.00000000000E+00  0.45593999997E+02  0.45594000000E+02  0.51100000000E-03 0. -1.
         11   -1    0    0    0    0 -0.00000000000E+00 -0.00000000000E+00 -0.45593999997E+02  0.45594000000E+02  0.51100000000E-03 0.  1.
    9900012    2    1    2    0    0  0.14120240775E+00 -0.53894614682E+00 -0.10405614170E+01  0.90007674142E+02  0.89999934640E+02 0.  0.
         12    1    1    2    0    0 -0.14120240775E+00  0.53894614682E+00  0.10405614170E+01  0.11803258583E+01  0.00000000000E+00 0. -1.
         11    1    3    3    0    0 -0.68997833685E+01  0.63791226819E+01  0.30034763917E+01  0.98651450785E+01  0.51100000000E-03 0. -1.
        -11    1    3    3    0    0  0.21674233108E+02  0.13435993131E+02 -0.33089088477E+02  0.41775424220E+02  0.51100000000E-03 0.  1.
         12    1    3    3    0    0 -0.14633247331E+02 -0.20354061960E+02  0.29045050668E+02  0.38367104843E+02  0.00000000000E+00 0. -1.
</event>
<event>
 7    1  0.2490895E-015  0.9000788E+02  0.7816164E-02  0.1186339E+00
        -11   -1    0    0    0    0  0.00000000000E+00  0.00000000000E+00  0.45593999997E+02  0.45594000000E+02  0.51100000000E-03 0.  1.
         11   -1    0    0    0    0 -0.00000000000E+00 -0.00000000000E+00 -0.45593999997E+02  0.45594000000E+02  0.51100000000E-03 0. -1.
    9900012    2    1    2    0    0 -0.30844450634E+00 -0.10557608444E+01  0.42767515734E+00  0.90007883474E+02  0.90000146736E+02 0.  0.
         12    1    1    2    0    0  0.30844450634E+00  0.10557608444E+01 -0.42767515734E+00  0.11801165258E+01  0.00000000000E+00 0. -1.
         11    1    3    3    0    0  0.26078444689E+02  0.28026858308E+02 -0.59997763568E+01  0.38750321038E+02  0.51100000000E-03 0. -1.
        -11    1    3    3    0    0 -0.70030884400E+01  0.53667746257E+01 -0.49599927689E+01  0.10121612822E+02  0.51100000000E-03 0.  1.
        -12    1    3    3    0    0 -0.19383800755E+02 -0.34449393778E+02  0.11387444283E+02  0.41135949614E+02  0.00000000000E+00 0.  1.
</event>
<event>
 7    1  0.2794648E-015  0.9000776E+02  0.7816164E-02  0.1186339E+00
        -11   -1    0    0    0    0  0.00000000000E+00  0.00000000000E+00  0.45593999997E+02  0.45594000000E+02  0.51100000000E-03 0. -1.
         11   -1    0    0    0    0 -0.00000000000E+00 -0.00000000000E+00 -0.45593999997E+02  0.45594000000E+02  0.51100000000E-03 0.  1.
    9900012    2    1    2    0    0  0.57463463464E+00  0.71132577832E-01 -0.10284483914E+01  0.90007758118E+02  0.90000019725E+02 0.  0.
         12    1    1    2    0    0 -0.57463463464E+00 -0.71132577832E-01  0.10284483914E+01  0.11802418823E+01  0.00000000000E+00 0. -1.
         11    1    3    3    0    0  0.38087933319E+02 -0.73377872035E+01  0.98555310554E+01  0.40020810564E+02  0.51100000000E-03 0. -1.
        -11    1    3    3    0    0  0.27573283210E+01  0.32694388996E+01 -0.84022333572E+01  0.94281289680E+01  0.51100000000E-03 0.  1.
        -12    1    3    3    0    0 -0.40270627006E+02  0.41394808817E+01 -0.24817460896E+01  0.40558818585E+02  0.00000000000E+00 0.  1.
</event>
<event>
 7    1  0.2490895E-015  0.9000767E+02  0.7816164E-02  0.1186339E+00
        -11   -1    0    0    0    0  0.00000000000E+00  0.00000000000E+00  0.45593999997E+02  0.45594000000E+02  0.51100000000E-03 0.  1.
         11   -1    0    0    0    0 -0.00000000000E+00 -0.00000000000E+00 -0.45593999997E+02  0.45594000000E+02  0.51100000000E-03 0. -1.
    9900012    2    1    2    0    0  0.61514302084E-01  0.30910284200E+00  0.11374703113E+01  0.90007674924E+02  0.89999935433E+02 0.  0.
         12    1    1    2    0    0 -0.61514302084E-01 -0.30910284200E+00 -0.11374703113E+01  0.11803250762E+01  0.00000000000E+00 0. -1.
         11    1    3    3    0    0 -0.62310489728E+01  0.34674352346E+02 -0.85730229178E+01  0.36257873685E+02  0.51100000000E-03 0. -1.
        -11    1    3    3    0    0  0.14774148222E+01  0.75480720619E+01 -0.48802961013E+01  0.91089756123E+01  0.51100000000E-03 0.  1.
        -12    1    3    3    0    0  0.48151484528E+01 -0.41913321566E+02  0.14590789330E+02  0.44640825627E+02  0.00000000000E+00 0.  1.
</event>
<event>
 7    1  0.2490895E-015  0.9000774E+02  0.7816164E-02  0.1186339E+00
        -11   -1    0    0    0    0  0.00000000000E+00  0.00000000000E+00  0.45593999997E+02  0.45594000000E+02  0.51100000000E-03 0.  1.
         11   -1    0    0    0    0 -0.00000000000E+00 -0.00000000000E+00 -0.45593999997E+02  0.45594000000E+02  0.51100000000E-03 0. -1.
    9900012    2    1    2    0    0 -0.88152842888E-01 -0.11669853419E+01  0.15295140302E+00  0.90007737384E+02  0.89999998717E+02 0.  0.
         12    1    1    2    0    0  0.88152842888E-01  0.11669853419E+01 -0.15295140302E+00  0.11802626164E+01  0.00000000000E+00 0. -1.
         11    1    3    3    0    0 -0.64837529547E+01  0.33142667933E+01  0.35262215439E+01  0.80905905466E+01  0.51100000000E-03 0. -1.
        -11    1    3    3    0    0  0.12634523742E+02 -0.41791476063E+02  0.20204100988E+01  0.43706300678E+02  0.51100000000E-03 0.  1.
         12    1    3    3    0    0 -0.62389236306E+01  0.37310223928E+02 -0.53936802397E+01  0.38210846159E+02  0.00000000000E+00 0. -1.
</event>
<event>
 7    1  0.2490895E-015  0.9000720E+02  0.7816164E-02  0.1186340E+00
        -11   -1    0    0    0    0  0.00000000000E+00  0.00000000000E+00  0.45593999997E+02  0.45594000000E+02  0.51100000000E-03 0.  1.
         11   -1    0    0    0    0 -0.00000000000E+00 -0.00000000000E+00 -0.45593999997E+02  0.45594000000E+02  0.51100000000E-03 0. -1.
    9900012    2    1    2    0    0 -0.70835728609E+00  0.28822737126E+00  0.89969454672E+00  0.90007197163E+02  0.89999451364E+02 0.  0.
         12    1    1    2    0    0  0.70835728609E+00 -0.28822737126E+00 -0.89969454672E+00  0.11808028369E+01  0.00000000000E+00 0. -1.
         11    1    3    3    0    0 -0.43537493931E+01  0.20710942183E+01  0.83225646826E+01  0.96181936036E+01  0.51100000000E-03 0. -1.
        -11    1    3    3    0    0 -0.48366564713E+01 -0.30839993992E+01  0.35833470415E+02  0.36289694134E+02  0.51100000000E-03 0.  1.
         12    1    3    3    0    0  0.84820485784E+01  0.13011325521E+01 -0.43256340550E+02  0.44099309426E+02  0.00000000000E+00 0. -1.
</event>
<event>
 7    1  0.2490895E-015  0.9000771E+02  0.7816164E-02  0.1186339E+00
        -11   -1    0    0    0    0  0.00000000000E+00  0.00000000000E+00  0.45593999997E+02  0.45594000000E+02  0.51100000000E-03 0.  1.
         11   -1    0    0    0    0 -0.00000000000E+00 -0.00000000000E+00 -0.45593999997E+02  0.45594000000E+02  0.51100000000E-03 0. -1.
    9900012    2    1    2    0    0 -0.38061389441E-01 -0.57521388965E+00  0.10299352392E+01  0.90007709237E+02  0.89999970199E+02 0.  0.
         12    1    1    2    0    0  0.38061389441E-01  0.57521388965E+00 -0.10299352392E+01  0.11802907630E+01  0.00000000000E+00 0. -1.
         11    1    3    3    0    0 -0.10029437322E+01  0.17110522973E+02  0.17842090204E+01  0.17232506917E+02  0.51100000000E-03 0. -1.
        -11    1    3    3    0    0 -0.36851742277E+01  0.26379466476E+02  0.75693981456E+01  0.27690297022E+02  0.51100000000E-03 0.  1.
         12    1    3    3    0    0  0.46500565705E+01 -0.44065203339E+02 -0.83236719268E+01  0.45084905298E+02  0.00000000000E+00 0. -1.
</event>
<event>
 7    1  0.4183219E-015  0.9000774E+02  0.7816164E-02  0.1186339E+00
        -11   -1    0    0    0    0  0.00000000000E+00  0.00000000000E+00  0.45593999997E+02  0.45594000000E+02  0.51100000000E-03 0.  1.
         11   -1    0    0    0    0 -0.00000000000E+00 -0.00000000000E+00 -0.45593999997E+02  0.45594000000E+02  0.51100000000E-03 0. -1.
    9900012    2    1    2    0    0  0.90655983823E+00  0.74416589623E+00 -0.13179909530E+00  0.90007743832E+02  0.90000005250E+02 0.  0.
         12    1    1    2    0    0 -0.90655983823E+00 -0.74416589623E+00  0.13179909530E+00  0.11802561683E+01  0.00000000000E+00 0. -1.
         11    1    3    3    0    0 -0.38787066621E+02  0.55031122364E+01  0.14536339745E+02  0.41785475405E+02  0.51100000000E-03 0. -1.
        -11    1    3    3    0    0  0.20239791306E+01 -0.73699259871E+01 -0.53507724217E+01  0.93296873659E+01  0.51100000000E-03 0.  1.
        -12    1    3    3    0    0  0.37669647329E+02  0.26109796469E+01 -0.93173664183E+01  0.38892581061E+02  0.00000000000E+00 0.  1.
</event>
<event>
 7    1  0.2490895E-015  0.9000771E+02  0.7816164E-02  0.1186339E+00
        -11   -1    0    0    0    0  0.00000000000E+00  0.00000000000E+00  0.45593999997E+02  0.45594000000E+02  0.51100000000E-03 0.  1.
         11   -1    0    0    0    0 -0.00000000000E+00 -0.00000000000E+00 -0.45593999997E+02  0.45594000000E+02  0.51100000000E-03 0. -1.
    9900012    2    1    2    0    0  0.21574854733E+00  0.14317429183E+00  0.11515340118E+01  0.90007713215E+02  0.89999974230E+02 0.  0.
         12    1    1    2    0    0 -0.21574854733E+00 -0.14317429183E+00 -0.11515340118E+01  0.11802867845E+01  0.00000000000E+00 0. -1.
         11    1    3    3    0    0 -0.24294013674E+02 -0.28517176893E+02 -0.13879220302E+02  0.39950735097E+02  0.51100000000E-03 0. -1.
        -11    1    3    3    0    0  0.10353460287E+02  0.11274145102E+01 -0.65638903503E+01  0.12310558890E+02  0.51100000000E-03 0.  1.
        -12    1    3    3    0    0  0.14156301934E+02  0.27532936675E+02  0.21594644664E+02  0.37746419228E+02  0.00000000000E+00 0.  1.
</event>
<event>
 7    1  0.2490895E-015  0.9000770E+02  0.7816164E-02  0.1186339E+00
        -11   -1    0    0    0    0  0.00000000000E+00  0.00000000000E+00  0.45593999997E+02  0.45594000000E+02  0.51100000000E-03 0.  1.
         11   -1    0    0    0    0 -0.00000000000E+00 -0.00000000000E+00 -0.45593999997E+02  0.45594000000E+02  0.51100000000E-03 0. -1.
    9900012    2    1    2    0    0  0.10974315965E+01 -0.41456061249E+00 -0.13001218235E+00  0.90007695049E+02  0.89999955823E+02 0.  0.
         12    1    1    2    0    0 -0.10974315965E+01  0.41456061249E+00  0.13001218235E+00  0.11803049513E+01  0.00000000000E+00 0. -1.
         11    1    3    3    0    0 -0.90138466860E+01  0.70410890296E+01 -0.33961717074E+02  0.35836079497E+02  0.51100000000E-03 0. -1.
        -11    1    3    3    0    0  0.34369642197E+01 -0.63579457316E+01 -0.85831502528E+01  0.11220813941E+02  0.51100000000E-03 0.  1.
        -12    1    3    3    0    0  0.66743140627E+01 -0.10977039105E+01  0.42414855145E+02  0.42950801611E+02  0.00000000000E+00 0.  1.
</event>
<event>
 7    1  0.2490895E-015  0.9000777E+02  0.7816164E-02  0.1186339E+00
        -11   -1    0    0    0    0  0.00000000000E+00  0.00000000000E+00  0.45593999997E+02  0.45594000000E+02  0.51100000000E-03 0.  1.
         11   -1    0    0    0    0 -0.00000000000E+00 -0.00000000000E+00 -0.45593999997E+02  0.45594000000E+02  0.51100000000E-03 0. -1.
    9900012    2    1    2    0    0 -0.22661160304E+00 -0.36309644840E+00  0.10998845045E+01  0.90007772152E+02  0.90000033945E+02 0.  0.
         12    1    1    2    0    0  0.22661160304E+00  0.36309644840E+00 -0.10998845045E+01  0.11802278478E+01  0.00000000000E+00 0. -1.
         11    1    3    3    0    0  0.21009857423E+02  0.29811793586E+02  0.45884102394E+01  0.36758817372E+02  0.51100000000E-03 0. -1.
        -11    1    3    3    0    0 -0.38914209160E+01 -0.15621964487E+01  0.14615854248E+02  0.15205486185E+02  0.51100000000E-03 0.  1.
        -12    1    3    3    0    0 -0.17345048110E+02 -0.28612693586E+02 -0.18104379982E+02  0.38043468595E+02  0.00000000000E+00 0.  1.
</event>
<event>
 7    1  0.2490895E-015  0.9000770E+02  0.7816164E-02  0.1186339E+00
        -11   -1    0    0    0    0  0.00000000000E+00  0.00000000000E+00  0.45593999997E+02  0.45594000000E+02  0.51100000000E-03 0.  1.
         11   -1    0    0    0    0 -0.00000000000E+00 -0.00000000000E+00 -0.45593999997E+02  0.45594000000E+02  0.51100000000E-03 0. -1.
    9900012    2    1    2    0    0 -0.48616840171E+00 -0.20801073723E+00  0.10552181433E+01  0.90007697703E+02  0.89999958513E+02 0.  0.
         12    1    1    2    0    0  0.48616840171E+00  0.20801073723E+00 -0.10552181433E+01  0.11803022967E+01  0.00000000000E+00 0. -1.
         11    1    3    3    0    0 -0.50541002977E+01  0.94116490746E+01  0.41187527657E+01  0.11449331541E+02  0.51100000000E-03 0. -1.
        -11    1    3    3    0    0  0.84542057753E+01  0.83340784283E+01  0.34640118969E+02  0.36617868602E+02  0.51100000000E-03 0.  1.
         12    1    3    3    0    0 -0.38862738793E+01 -0.17953738240E+02 -0.37703653591E+02  0.41940497560E+02  0.00000000000E+00 0. -1.
</event>
<event>
 7    1  0.2490895E-015  0.9000763E+02  0.7816164E-02  0.1186339E+00
        -11   -1    0    0    0    0  0.00000000000E+00  0.00000000000E+00  0.45593999997E+02  0.45594000000E+02  0.51100000000E-03 0.  1.
         11   -1    0    0    0    0 -0.00000000000E+00 -0.00000000000E+00 -0.45593999997E+02  0.45594000000E+02  0.51100000000E-03 0. -1.
    9900012    2    1    2    0    0  0.11265546646E+01  0.19201007875E+00  0.29542171825E+00  0.90007632568E+02  0.89999892518E+02 0.  0.
         12    1    1    2    0    0 -0.11265546646E+01 -0.19201007875E+00 -0.29542171825E+00  0.11803674319E+01  0.00000000000E+00 0. -1.
         11    1    3    3    0    0 -0.33712328084E+02 -0.20625387060E+00 -0.13578011145E+02  0.36344545566E+02  0.51100000000E-03 0. -1.
        -11    1    3    3    0    0 -0.60859139494E+01  0.63739589156E+01  0.79755212895E+01  0.11885900932E+02  0.51100000000E-03 0.  1.
        -12    1    3    3    0    0  0.40924796698E+02 -0.59756949663E+01  0.58979115733E+01  0.41777186071E+02  0.00000000000E+00 0.  1.
</event>
<event>
 7    1  0.2490895E-015  0.9000775E+02  0.7816164E-02  0.1186339E+00
        -11   -1    0    0    0    0  0.00000000000E+00  0.00000000000E+00  0.45593999997E+02  0.45594000000E+02  0.51100000000E-03 0.  1.
         11   -1    0    0    0    0 -0.00000000000E+00 -0.00000000000E+00 -0.45593999997E+02  0.45594000000E+02  0.51100000000E-03 0. -1.
    9900012    2    1    2    0    0  0.63626717461E+00  0.28257540624E+00  0.95305256168E+00  0.90007748348E+02  0.90000009826E+02 0.  0.
         12    1    1    2    0    0 -0.63626717461E+00 -0.28257540624E+00 -0.95305256168E+00  0.11802516524E+01  0.00000000000E+00 0. -1.
         11    1    3    3    0    0 -0.17788669757E+01  0.63033923650E+01 -0.86684112258E+01  0.10864551370E+02  0.51100000000E-03 0. -1.
        -11    1    3    3    0    0  0.14166133955E+02  0.27643338838E+02  0.25426147163E+02  0.40141281659E+02  0.51100000000E-03 0.  1.
         12    1    3    3    0    0 -0.11750999805E+02 -0.33664155797E+02 -0.15804683376E+02  0.39001915319E+02  0.00000000000E+00 0. -1.
</event>
<event>
 7    1  0.2490895E-015  0.9000771E+02  0.7816164E-02  0.1186339E+00
        -11   -1    0    0    0    0  0.00000000000E+00  0.00000000000E+00  0.45593999997E+02  0.45594000000E+02  0.51100000000E-03 0.  1.
         11   -1    0    0    0    0 -0.00000000000E+00 -0.00000000000E+00 -0.45593999997E+02  0.45594000000E+02  0.51100000000E-03 0. -1.
    9900012    2    1    2    0    0 -0.81276219703E+00  0.50908062776E+00  0.68799677497E+00  0.90007709766E+02  0.89999970735E+02 0.  0.
         12    1    1    2    0    0  0.81276219703E+00 -0.50908062776E+00 -0.68799677497E+00  0.11802902342E+01  0.00000000000E+00 0. -1.
         11    1    3    3    0    0  0.58138098013E+01 -0.24945637346E+01  0.11027344004E+01  0.64217798196E+01  0.51100000000E-03 0. -1.
        -11    1    3    3    0    0  0.23830794493E+01  0.11408362469E+02  0.39828540754E+02  0.41498704326E+02  0.51100000000E-03 0.  1.
         12    1    3    3    0    0 -0.90096514477E+01 -0.84047181070E+01 -0.40243278379E+02  0.42087225620E+02  0.00000000000E+00 0. -1.
</event>
<event>
 7    1  0.2490895E-015  0.9000774E+02  0.7816164E-02  0.1186339E+00
        -11   -1    0    0    0    0  0.00000000000E+00  0.00000000000E+00  0.45593999997E+02  0.45594000000E+02  0.51100000000E-03 0.  1.
         11   -1    0    0    0    0 -0.00000000000E+00 -0.00000000000E+00 -0.45593999997E+02  0.45594000000E+02  0.51100000000E-03 0. -1.
    9900012    2    1    2    0    0 -0.11347569180E+01 -0.18923382843E+00  0.26369605620E+00  0.90007738031E+02  0.89999999373E+02 0.  0.
         12    1    1    2    0    0  0.11347569180E+01  0.18923382843E+00 -0.26369605620E+00  0.11802619687E+01  0.00000000000E+00 0. -1.
         11    1    3    3    0    0 -0.96960449329E+01  0.51829273405E+01 -0.40249155370E+01  0.11707944674E+02  0.51100000000E-03 0. -1.
        -11    1    3    3    0    0 -0.94539552331E+01  0.76686810842E+01  0.36883518191E+02  0.38840440954E+02  0.51100000000E-03 0.  1.
         12    1    3    3    0    0  0.18015243248E+02 -0.13040842253E+02 -0.32594906598E+02  0.39459352403E+02  0.00000000000E+00 0. -1.
</event>
<event>
 7    1  0.2490895E-015  0.9000772E+02  0.7816164E-02  0.1186339E+00
        -11   -1    0    0    0    0  0.00000000000E+00  0.00000000000E+00  0.45593999997E+02  0.45594000000E+02  0.51100000000E-03 0. -1.
         11   -1    0    0    0    0 -0.00000000000E+00 -0.00000000000E+00 -0.45593999997E+02  0.45594000000E+02  0.51100000000E-03 0.  1.
    9900012    2    1    2    0    0 -0.90211521081E+00  0.70574765166E+00 -0.28491416178E+00  0.90007717118E+02  0.89999978184E+02 0.  0.
         12    1    1    2    0    0  0.90211521081E+00 -0.70574765166E+00  0.28491416178E+00  0.11802828818E+01  0.00000000000E+00 0. -1.
         11    1    3    3    0    0  0.85944755287E+01  0.12575662668E+01 -0.14554366034E+01  0.88070868337E+01  0.51100000000E-03 0. -1.
        -11    1    3    3    0    0  0.27516697033E+02  0.57656541207E+01  0.24248628504E+02  0.37126908943E+02  0.51100000000E-03 0.  1.
         12    1    3    3    0    0 -0.37013287773E+02 -0.63174727358E+01 -0.23078106062E+02  0.44073721342E+02  0.00000000000E+00 0. -1.
</event>
<event>
 7    1  0.2490895E-015  0.9000770E+02  0.7816164E-02  0.1186339E+00
        -11   -1    0    0    0    0  0.00000000000E+00  0.00000000000E+00  0.45593999997E+02  0.45594000000E+02  0.51100000000E-03 0.  1.
         11   -1    0    0    0    0 -0.00000000000E+00 -0.00000000000E+00 -0.45593999997E+02  0.45594000000E+02  0.51100000000E-03 0. -1.
    9900012    2    1    2    0    0 -0.14275938970E+00 -0.11702301556E+01 -0.57257330428E-01  0.90007704587E+02  0.89999965487E+02 0.  0.
         12    1    1    2    0    0  0.14275938970E+00  0.11702301556E+01  0.57257330428E-01  0.11802954131E+01  0.00000000000E+00 0. -1.
         11    1    3    3    0    0 -0.15253452657E+02  0.16177309734E+02 -0.28993088049E+02  0.36537273065E+02  0.51100000000E-03 0. -1.
        -11    1    3    3    0    0 -0.51810199074E+01  0.97356353508E+01  0.86358875025E+01  0.14007287967E+02  0.51100000000E-03 0.  1.
        -12    1    3    3    0    0  0.20291713175E+02 -0.27083175240E+02  0.20299943216E+02  0.39463143555E+02  0.00000000000E+00 0.  1.
</event>
<event>
 7    1  0.2490895E-015  0.9000735E+02  0.7816164E-02  0.1186340E+00
        -11   -1    0    0    0    0  0.00000000000E+00  0.00000000000E+00  0.45593999997E+02  0.45594000000E+02  0.51100000000E-03 0.  1.
         11   -1    0    0    0    0 -0.00000000000E+00 -0.00000000000E+00 -0.45593999997E+02  0.45594000000E+02  0.51100000000E-03 0. -1.
    9900012    2    1    2    0    0  0.94651025332E+00  0.29918654482E+00  0.63917206636E+00  0.90007349680E+02  0.89999605895E+02 0.  0.
         12    1    1    2    0    0 -0.94651025332E+00 -0.29918654482E+00 -0.63917206636E+00  0.11806503202E+01  0.00000000000E+00 0. -1.
         11    1    3    3    0    0 -0.11543422174E+02  0.15580377730E+02 -0.85062068081E+01  0.21174378863E+02  0.51100000000E-03 0. -1.
        -11    1    3    3    0    0 -0.17780876040E+02  0.43178267243E+01 -0.16454959844E+02  0.24608309249E+02  0.51100000000E-03 0.  1.
        -12    1    3    3    0    0  0.30270808467E+02 -0.19599017910E+02  0.25600338718E+02  0.44224661568E+02  0.00000000000E+00 0.  1.
</event>
<event>
 7    1  0.2490895E-015  0.9000783E+02  0.7816164E-02  0.1186339E+00
        -11   -1    0    0    0    0  0.00000000000E+00  0.00000000000E+00  0.45593999997E+02  0.45594000000E+02  0.51100000000E-03 0. -1.
         11   -1    0    0    0    0 -0.00000000000E+00 -0.00000000000E+00 -0.45593999997E+02  0.45594000000E+02  0.51100000000E-03 0.  1.
    9900012    2    1    2    0    0 -0.68917612580E+00 -0.54542939226E+00  0.78762293099E+00  0.90007827625E+02  0.90000090149E+02 0.  0.
         12    1    1    2    0    0  0.68917612580E+00  0.54542939226E+00 -0.78762293099E+00  0.11801723754E+01  0.00000000000E+00 0. -1.
         11    1    3    3    0    0  0.87726264742E+01  0.20255601213E+02  0.34551841096E+02  0.41000952174E+02  0.51100000000E-03 0. -1.
        -11    1    3    3    0    0 -0.94551290231E+01 -0.84677470105E+01  0.38533061396E+00  0.12698452040E+02  0.51100000000E-03 0.  1.
        -12    1    3    3    0    0 -0.66735768877E-02 -0.12333283595E+02 -0.34149548779E+02  0.36308423411E+02  0.00000000000E+00 0.  1.
</event>
<event>
 7    1  0.2490895E-015  0.9000760E+02  0.7816164E-02  0.1186339E+00
        -11   -1    0    0    0    0  0.00000000000E+00  0.00000000000E+00  0.45593999997E+02  0.45594000000E+02  0.51100000000E-03 0.  1.
         11   -1    0    0    0    0 -0.00000000000E+00 -0.00000000000E+00 -0.45593999997E+02  0.45594000000E+02  0.51100000000E-03 0. -1.
    9900012    2    1    2    0    0 -0.35265573028E+00 -0.47132790049E+00  0.10231413321E+01  0.90007604202E+02  0.89999863778E+02 0.  0.
         12    1    1    2    0    0  0.35265573028E+00  0.47132790049E+00 -0.10231413321E+01  0.11803957977E+01  0.00000000000E+00 0. -1.
         11    1    3    3    0    0  0.12706421991E+01  0.29780255751E+00  0.87215133604E+01  0.88186174380E+01  0.51100000000E-03 0. -1.
        -11    1    3    3    0    0  0.91722832619E+01  0.22251345883E+01  0.35411221533E+02  0.36647463963E+02  0.51100000000E-03 0.  1.
         12    1    3    3    0    0 -0.10795581191E+02 -0.29942650463E+01 -0.43109593562E+02  0.44541522801E+02  0.00000000000E+00 0. -1.
</event>
<event>
 7    1  0.2490895E-015  0.9000770E+02  0.7816164E-02  0.1186339E+00
        -11   -1    0    0    0    0  0.00000000000E+00  0.00000000000E+00  0.45593999997E+02  0.45594000000E+02  0.51100000000E-03 0. -1.
         11   -1    0    0    0    0 -0.00000000000E+00 -0.00000000000E+00 -0.45593999997E+02  0.45594000000E+02  0.51100000000E-03 0.  1.
    9900012    2    1    2    0    0  0.28454774513E+00  0.11313960157E+01 -0.17912711037E+00  0.90007698816E+02  0.89999959640E+02 0.  0.
         12    1    1    2    0    0 -0.28454774513E+00 -0.11313960157E+01  0.17912711037E+00  0.11803011841E+01  0.00000000000E+00 0. -1.
         11    1    3    3    0    0  0.15161311687E+01  0.12355757596E+02 -0.60907792519E+01  0.13858607133E+02  0.51100000000E-03 0. -1.
        -11    1    3    3    0    0  0.13762591681E+02 -0.13256463742E+02 -0.30910014776E+02  0.36339672184E+02  0.51100000000E-03 0.  1.
        -12    1    3    3    0    0 -0.14994175105E+02  0.20321021610E+01  0.36821666918E+02  0.39809419499E+02  0.00000000000E+00 0.  1.
</event>
<event>
 7    1  0.2490895E-015  0.9000769E+02  0.7816164E-02  0.1186339E+00
        -11   -1    0    0    0    0  0.00000000000E+00  0.00000000000E+00  0.45593999997E+02  0.45594000000E+02  0.51100000000E-03 0. -1.
         11   -1    0    0    0    0 -0.00000000000E+00 -0.00000000000E+00 -0.45593999997E+02  0.45594000000E+02  0.51100000000E-03 0.  1.
    9900012    2    1    2    0    0 -0.26952012399E+00  0.10255029120E+01 -0.51849925761E+00  0.90007686991E+02  0.89999947659E+02 0.  0.
         12    1    1    2    0    0  0.26952012399E+00 -0.10255029120E+01  0.51849925761E+00  0.11803130093E+01  0.00000000000E+00 0. -1.
         11    1    3    3    0    0  0.30713588724E+02  0.11678398056E+02  0.25512807525E+02  0.41600635351E+02  0.51100000000E-03 0. -1.
        -11    1    3    3    0    0 -0.24768142025E+01 -0.10290962465E+02 -0.12966826454E+01  0.10663953451E+02  0.51100000000E-03 0.  1.
        -12    1    3    3    0    0 -0.28506294646E+02 -0.36193267900E+00 -0.24734624138E+02  0.37743098189E+02  0.00000000000E+00 0.  1.
</event>
<event>
 7    1  0.2490895E-015  0.9000777E+02  0.7816164E-02  0.1186339E+00
        -11   -1    0    0    0    0  0.00000000000E+00  0.00000000000E+00  0.45593999997E+02  0.45594000000E+02  0.51100000000E-03 0.  1.
         11   -1    0    0    0    0 -0.00000000000E+00 -0.00000000000E+00 -0.45593999997E+02  0.45594000000E+02  0.51100000000E-03 0. -1.
    9900012    2    1    2    0    0  0.28938952323E+00  0.35977330579E+00  0.10861678858E+01  0.90007769597E+02  0.90000031356E+02 0.  0.
         12    1    1    2    0    0 -0.28938952323E+00 -0.35977330579E+00 -0.10861678858E+01  0.11802304029E+01  0.00000000000E+00 0. -1.
         11    1    3    3    0    0  0.71789094131E+01 -0.23766084221E+01 -0.21021454601E+01  0.78488230806E+01  0.51100000000E-03 0. -1.
        -11    1    3    3    0    0  0.14076066720E+02 -0.34395750246E+02  0.11104922317E+02  0.38788175894E+02  0.51100000000E-03 0.  1.
         12    1    3    3    0    0 -0.20965586610E+02  0.37132131974E+02 -0.79166089706E+01  0.43370770622E+02  0.00000000000E+00 0. -1.
</event>
<event>
 7    1  0.2490895E-015  0.9000774E+02  0.7816164E-02  0.1186339E+00
        -11   -1    0    0    0    0  0.00000000000E+00  0.00000000000E+00  0.45593999997E+02  0.45594000000E+02  0.51100000000E-03 0.  1.
         11   -1    0    0    0    0 -0.00000000000E+00 -0.00000000000E+00 -0.45593999997E+02  0.45594000000E+02  0.51100000000E-03 0. -1.
    9900012    2    1    2    0    0 -0.51533267430E+00 -0.10617842407E+01 -0.73091695323E-02  0.90007742840E+02  0.90000004246E+02 0.  0.
         12    1    1    2    0    0  0.51533267430E+00  0.10617842407E+01  0.73091695322E-02  0.11802571597E+01  0.00000000000E+00 0. -1.
         11    1    3    3    0    0  0.27640051783E+01 -0.96683618131E+01 -0.93981791202E+01  0.13763819085E+02  0.51100000000E-03 0. -1.
        -11    1    3    3    0    0  0.29592665272E+02 -0.96558229096E+01  0.20210934340E+02  0.37113914118E+02  0.51100000000E-03 0.  1.
         12    1    3    3    0    0 -0.32872003125E+02  0.18262400482E+02 -0.10820064390E+02  0.39130009637E+02  0.00000000000E+00 0. -1.
</event>
<event>
 7    1  0.2490895E-015  0.9000769E+02  0.7816164E-02  0.1186339E+00
        -11   -1    0    0    0    0  0.00000000000E+00  0.00000000000E+00  0.45593999997E+02  0.45594000000E+02  0.51100000000E-03 0.  1.
         11   -1    0    0    0    0 -0.00000000000E+00 -0.00000000000E+00 -0.45593999997E+02  0.45594000000E+02  0.51100000000E-03 0. -1.
    9900012    2    1    2    0    0 -0.41506834433E+00 -0.25758906533E+00  0.10744746529E+01  0.90007690872E+02  0.89999951592E+02 0.  0.
         12    1    1    2    0    0  0.41506834433E+00  0.25758906533E+00 -0.10744746529E+01  0.11803091276E+01  0.00000000000E+00 0. -1.
         11    1    3    3    0    0 -0.16431269492E+01 -0.25709474996E+01  0.65481285874E+01  0.72241003229E+01  0.51100000000E-03 0. -1.
        -11    1    3    3    0    0 -0.35668232648E+02  0.14295190799E+01  0.17036307665E+02  0.39553787734E+02  0.51100000000E-03 0.  1.
         12    1    3    3    0    0  0.36896291253E+02  0.88383935443E+00 -0.22509961599E+02  0.43229802815E+02  0.00000000000E+00 0. -1.
</event>
<event>
 7    1  0.2490895E-015  0.9000773E+02  0.7816164E-02  0.1186339E+00
        -11   -1    0    0    0    0  0.00000000000E+00  0.00000000000E+00  0.45593999997E+02  0.45594000000E+02  0.51100000000E-03 0.  1.
         11   -1    0    0    0    0 -0.00000000000E+00 -0.00000000000E+00 -0.45593999997E+02  0.45594000000E+02  0.51100000000E-03 0. -1.
    9900012    2    1    2    0    0 -0.33672328461E+00 -0.28257578259E+00  0.10953533579E+01  0.90007732818E+02  0.89999994091E+02 0.  0.
         12    1    1    2    0    0  0.33672328461E+00  0.28257578259E+00 -0.10953533579E+01  0.11802671825E+01  0.00000000000E+00 0. -1.
         11    1    3    3    0    0  0.31637161323E+02 -0.16127748370E+02 -0.14913446781E+01  0.35542064561E+02  0.51100000000E-03 0. -1.
        -11    1    3    3    0    0 -0.89750616987E+01 -0.13559711526E+02 -0.35229072914E+01  0.16638160512E+02  0.51100000000E-03 0.  1.
        -12    1    3    3    0    0 -0.22998822909E+02  0.29404884114E+02  0.61096053275E+01  0.37827507745E+02  0.00000000000E+00 0.  1.
</event>
<event>
 7    1  0.2490895E-015  0.9000778E+02  0.7816164E-02  0.1186339E+00
        -11   -1    0    0    0    0  0.00000000000E+00  0.00000000000E+00  0.45593999997E+02  0.45594000000E+02  0.51100000000E-03 0.  1.
         11   -1    0    0    0    0 -0.00000000000E+00 -0.00000000000E+00 -0.45593999997E+02  0.45594000000E+02  0.51100000000E-03 0. -1.
    9900012    2    1    2    0    0  0.81224034572E+00 -0.39914465776E+00  0.75754628143E+00  0.90007776629E+02  0.90000038480E+02 0.  0.
         12    1    1    2    0    0 -0.81224034572E+00  0.39914465776E+00 -0.75754628143E+00  0.11802233710E+01  0.00000000000E+00 0. -1.
         11    1    3    3    0    0 -0.48204909824E+01  0.11099548820E+02  0.35777432239E+01  0.12618928804E+02  0.51100000000E-03 0. -1.
        -11    1    3    3    0    0 -0.32772686642E+02  0.79267828747E+01 -0.59414476192E+01  0.34237168057E+02  0.51100000000E-03 0.  1.
         12    1    3    3    0    0  0.38405417971E+02 -0.19425476352E+02  0.31212506768E+01  0.43151679768E+02  0.00000000000E+00 0. -1.
</event>
<event>
 7    1  0.2490895E-015  0.9000774E+02  0.7816164E-02  0.1186339E+00
        -11   -1    0    0    0    0  0.00000000000E+00  0.00000000000E+00  0.45593999997E+02  0.45594000000E+02  0.51100000000E-03 0.  1.
         11   -1    0    0    0    0 -0.00000000000E+00 -0.00000000000E+00 -0.45593999997E+02  0.45594000000E+02  0.51100000000E-03 0. -1.
    9900012    2    1    2    0    0  0.25955973216E+00 -0.39962908502E+00  0.10797867066E+01  0.90007739863E+02  0.90000001229E+02 0.  0.
         12    1    1    2    0    0 -0.25955973216E+00  0.39962908502E+00 -0.10797867066E+01  0.11802601374E+01  0.00000000000E+00 0. -1.
         11    1    3    3    0    0 -0.19925863142E+02 -0.41351222869E+01 -0.31929494246E+02  0.37863331356E+02  0.51100000000E-03 0. -1.
        -11    1    3    3    0    0 -0.52755883570E+01 -0.75360254885E+01  0.32125029442E+00  0.92047115484E+01  0.51100000000E-03 0.  1.
        -12    1    3    3    0    0  0.25461011232E+02  0.11271518690E+02  0.32688030659E+02  0.42939696958E+02  0.00000000000E+00 0.  1.
</event>
<event>
 7    1  0.2490895E-015  0.9000775E+02  0.7816164E-02  0.1186339E+00
        -11   -1    0    0    0    0  0.00000000000E+00  0.00000000000E+00  0.45593999997E+02  0.45594000000E+02  0.51100000000E-03 0.  1.
         11   -1    0    0    0    0 -0.00000000000E+00 -0.00000000000E+00 -0.45593999997E+02  0.45594000000E+02  0.51100000000E-03 0. -1.
    9900012    2    1    2    0    0  0.52904763431E+00 -0.10464514477E+01 -0.13431944933E+00  0.90007748439E+02  0.90000009919E+02 0.  0.
         12    1    1    2    0    0 -0.52904763431E+00  0.10464514477E+01  0.13431944933E+00  0.11802515605E+01  0.00000000000E+00 0. -1.
         11    1    3    3    0    0  0.37025624487E+01 -0.34931781025E+01  0.91722283222E+01  0.10490044547E+02  0.51100000000E-03 0. -1.
        -11    1    3    3    0    0  0.32670110761E+02 -0.17845439769E+02  0.28182366560E+00  0.37227345897E+02  0.51100000000E-03 0.  1.
         12    1    3    3    0    0 -0.35843625575E+02  0.20292166424E+02 -0.95883714371E+01  0.42290357996E+02  0.00000000000E+00 0. -1.
</event>
<event>
 7    1  0.2490895E-015  0.9000765E+02  0.7816164E-02  0.1186339E+00
        -11   -1    0    0    0    0  0.00000000000E+00  0.00000000000E+00  0.45593999997E+02  0.45594000000E+02  0.51100000000E-03 0. -1.
         11   -1    0    0    0    0 -0.00000000000E+00 -0.00000000000E+00 -0.45593999997E+02  0.45594000000E+02  0.51100000000E-03 0.  1.
    9900012    2    1    2    0    0  0.10354553345E+01  0.37972988993E+00  0.42053830360E+00  0.90007654710E+02  0.89999914952E+02 0.  0.
         12    1    1    2    0    0 -0.10354553345E+01 -0.37972988993E+00 -0.42053830360E+00  0.11803452901E+01  0.00000000000E+00 0. -1.
         11    1    3    3    0    0  0.40551668111E+02 -0.12200523758E-01  0.16667793692E+01  0.40585909983E+02  0.51100000000E-03 0. -1.
        -11    1    3    3    0    0  0.32391595294E-01  0.58820344052E+01  0.64817954445E+01  0.87528881179E+01  0.51100000000E-03 0.  1.
        -12    1    3    3    0    0 -0.39548604372E+02 -0.54901039915E+01 -0.77280365102E+01  0.40668856609E+02  0.00000000000E+00 0.  1.
</event>
<event>
 7    1  0.2490895E-015  0.9000775E+02  0.7816164E-02  0.1186339E+00
        -11   -1    0    0    0    0  0.00000000000E+00  0.00000000000E+00  0.45593999997E+02  0.45594000000E+02  0.51100000000E-03 0. -1.
         11   -1    0    0    0    0 -0.00000000000E+00 -0.00000000000E+00 -0.45593999997E+02  0.45594000000E+02  0.51100000000E-03 0.  1.
    9900012    2    1    2    0    0 -0.11287645607E+01 -0.12060209063E-01 -0.34456335705E+00  0.90007754776E+02  0.90000016339E+02 0.  0.
         12    1    1    2    0    0  0.11287645607E+01  0.12060209063E-01  0.34456335705E+00  0.11802452242E+01  0.00000000000E+00 0. -1.
         11    1    3    3    0    0 -0.27559639292E+02  0.95547900966E+01  0.26439817377E+02  0.39368663616E+02  0.51100000000E-03 0. -1.
        -11    1    3    3    0    0 -0.59738953480E+00 -0.10229236251E+02  0.27392314948E+01  0.10606485656E+02  0.51100000000E-03 0.  1.
        -12    1    3    3    0    0  0.27028264266E+02  0.66238594528E+00 -0.29523612229E+02  0.40032605504E+02  0.00000000000E+00 0.  1.
</event>
<event>
 7    1  0.2490895E-015  0.9000780E+02  0.7816164E-02  0.1186339E+00
        -11   -1    0    0    0    0  0.00000000000E+00  0.00000000000E+00  0.45593999997E+02  0.45594000000E+02  0.51100000000E-03 0. -1.
         11   -1    0    0    0    0 -0.00000000000E+00 -0.00000000000E+00 -0.45593999997E+02  0.45594000000E+02  0.51100000000E-03 0.  1.
    9900012    2    1    2    0    0 -0.71274169015E+00 -0.78179227444E+00  0.52312968300E+00  0.90007803176E+02  0.90000065378E+02 0.  0.
         12    1    1    2    0    0  0.71274169015E+00  0.78179227444E+00 -0.52312968300E+00  0.11801968236E+01  0.00000000000E+00 0. -1.
         11    1    3    3    0    0 -0.16180105680E+00  0.96560357921E+01 -0.36109665831E+01  0.10310397021E+02  0.51100000000E-03 0. -1.
        -11    1    3    3    0    0 -0.14841989595E+02 -0.12098781346E+02 -0.33954733856E+02  0.38981907555E+02  0.51100000000E-03 0.  1.
         12    1    3    3    0    0  0.14291048962E+02  0.16609532794E+01  0.38088830122E+02  0.40715498600E+02  0.00000000000E+00 0. -1.
</event>
<event>
 7    1  0.2490895E-015  0.9000796E+02  0.7816164E-02  0.1186339E+00
        -11   -1    0    0    0    0  0.00000000000E+00  0.00000000000E+00  0.45593999997E+02  0.45594000000E+02  0.51100000000E-03 0.  1.
         11   -1    0    0    0    0 -0.00000000000E+00 -0.00000000000E+00 -0.45593999997E+02  0.45594000000E+02  0.51100000000E-03 0. -1.
    9900012    2    1    2    0    0 -0.20370640305E+00  0.91167026307E+00 -0.72100746867E+00  0.90007961553E+02  0.90000225845E+02 0.  0.
         12    1    1    2    0    0  0.20370640305E+00 -0.91167026307E+00  0.72100746867E+00  0.11800384473E+01  0.00000000000E+00 0. -1.
         11    1    3    3    0    0 -0.29728192935E+02 -0.22980811204E+02  0.21384131815E+02  0.43233832036E+02  0.51100000000E-03 0. -1.
        -11    1    3    3    0    0  0.56972853380E+01  0.94375587492E+01  0.28105782200E+00  0.11027491516E+02  0.51100000000E-03 0.  1.
        -12    1    3    3    0    0  0.23827201194E+02  0.14454922718E+02 -0.22386197105E+02  0.35746638001E+02  0.00000000000E+00 0.  1.
</event>
<event>
 7    1  0.2490895E-015  0.9000771E+02  0.7816164E-02  0.1186339E+00
        -11   -1    0    0    0    0  0.00000000000E+00  0.00000000000E+00  0.45593999997E+02  0.45594000000E+02  0.51100000000E-03 0. -1.
         11   -1    0    0    0    0 -0.00000000000E+00 -0.00000000000E+00 -0.45593999997E+02  0.45594000000E+02  0.51100000000E-03 0.  1.
    9900012    2    1    2    0    0  0.28232207444E-02 -0.98958915534E+00 -0.64326740810E+00  0.90007708669E+02  0.89999969624E+02 0.  0.
         12    1    1    2    0    0 -0.28232207444E-02  0.98958915534E+00  0.64326740810E+00  0.11802913307E+01  0.00000000000E+00 0. -1.
         11    1    3    3    0    0  0.70172440803E+01 -0.42876778492E+01 -0.44773074878E+01  0.93633422677E+01  0.51100000000E-03 0. -1.
        -11    1    3    3    0    0 -0.22370345618E+02 -0.25520087502E+02 -0.20743608140E+02  0.39774420274E+02  0.51100000000E-03 0.  1.
         12    1    3    3    0    0  0.15355924759E+02  0.28818176196E+02  0.24577648220E+02  0.40869946128E+02  0.00000000000E+00 0. -1.
</event>
<event>
 7    1  0.2490895E-015  0.9000769E+02  0.7816164E-02  0.1186339E+00
        -11   -1    0    0    0    0  0.00000000000E+00  0.00000000000E+00  0.45593999997E+02  0.45594000000E+02  0.51100000000E-03 0. -1.
         11   -1    0    0    0    0 -0.00000000000E+00 -0.00000000000E+00 -0.45593999997E+02  0.45594000000E+02  0.51100000000E-03 0.  1.
    9900012    2    1    2    0    0 -0.24170110862E+00 -0.10765292204E+01 -0.41927564687E+00  0.90007692135E+02  0.89999952871E+02 0.  0.
         12    1    1    2    0    0  0.24170110862E+00  0.10765292204E+01  0.41927564687E+00  0.11803078650E+01  0.00000000000E+00 0. -1.
         11    1    3    3    0    0 -0.47503950889E+01 -0.12376710625E+02  0.19178884970E+01  0.13395055653E+02  0.51100000000E-03 0. -1.
        -11    1    3    3    0    0  0.21994901830E+02  0.21324433926E+02 -0.29672825884E+02  0.42649546129E+02  0.51100000000E-03 0.  1.
         12    1    3    3    0    0 -0.17486207850E+02 -0.10024252521E+02  0.27335661740E+02  0.33963090353E+02  0.00000000000E+00 0. -1.
</event>
<event>
 7    1  0.2490895E-015  0.9000768E+02  0.7816164E-02  0.1186339E+00
        -11   -1    0    0    0    0  0.00000000000E+00  0.00000000000E+00  0.45593999997E+02  0.45594000000E+02  0.51100000000E-03 0.  1.
         11   -1    0    0    0    0 -0.00000000000E+00 -0.00000000000E+00 -0.45593999997E+02  0.45594000000E+02  0.51100000000E-03 0. -1.
    9900012    2    1    2    0    0 -0.23961340576E+00  0.11408861246E+01 -0.18468490182E+00  0.90007684683E+02  0.89999945321E+02 0.  0.
         12    1    1    2    0    0  0.23961340576E+00 -0.11408861246E+01  0.18468490182E+00  0.11803153166E+01  0.00000000000E+00 0. -1.
         11    1    3    3    0    0  0.59146068172E+01 -0.51762896048E+01  0.39759206932E+01  0.88082060316E+01  0.51100000000E-03 0. -1.
        -11    1    3    3    0    0  0.71280855419E+01  0.57057412559E+01  0.36913978449E+02  0.38026397305E+02  0.51100000000E-03 0.  1.
         12    1    3    3    0    0 -0.13282305765E+02  0.61143447358E+00 -0.41074584045E+02  0.43173081347E+02  0.00000000000E+00 0. -1.
</event>
<event>
 7    1  0.2490895E-015  0.9000775E+02  0.7816164E-02  0.1186339E+00
        -11   -1    0    0    0    0  0.00000000000E+00  0.00000000000E+00  0.45593999997E+02  0.45594000000E+02  0.51100000000E-03 0. -1.
         11   -1    0    0    0    0 -0.00000000000E+00 -0.00000000000E+00 -0.45593999997E+02  0.45594000000E+02  0.51100000000E-03 0.  1.
    9900012    2    1    2    0    0 -0.81570436371E+00  0.49599614785E+00 -0.69397981623E+00  0.90007748428E+02  0.90000009907E+02 0.  0.
         12    1    1    2    0    0  0.81570436371E+00 -0.49599614785E+00  0.69397981623E+00  0.11802515719E+01  0.00000000000E+00 0. -1.
         11    1    3    3    0    0  0.27785809754E+01  0.25466198697E+02  0.28120548355E+02  0.38039624450E+02  0.51100000000E-03 0. -1.
        -11    1    3    3    0    0 -0.67759971844E+01 -0.33677531809E+01  0.68127745831E+01  0.10181836628E+02  0.51100000000E-03 0.  1.
        -12    1    3    3    0    0  0.31817118453E+01 -0.21602449368E+02 -0.35627302754E+02  0.41786287350E+02  0.00000000000E+00 0.  1.
</event>
<event>
 7    1  0.2490895E-015  0.9000778E+02  0.7816164E-02  0.1186339E+00
        -11   -1    0    0    0    0  0.00000000000E+00  0.00000000000E+00  0.45593999997E+02  0.45594000000E+02  0.51100000000E-03 0. -1.
         11   -1    0    0    0    0 -0.00000000000E+00 -0.00000000000E+00 -0.45593999997E+02  0.45594000000E+02  0.51100000000E-03 0.  1.
    9900012    2    1    2    0    0  0.15329975328E+00 -0.62010852905E+00  0.99240806752E+00  0.90007784268E+02  0.90000046220E+02 0.  0.
         12    1    1    2    0    0 -0.15329975328E+00  0.62010852905E+00 -0.99240806752E+00  0.11802157322E+01  0.00000000000E+00 0. -1.
         11    1    3    3    0    0 -0.24918635318E+01  0.33493702334E+01 -0.40787976021E+01  0.58364591116E+01  0.51100000000E-03 0. -1.
        -11    1    3    3    0    0 -0.21366641582E+02 -0.37109400942E+02  0.59805063697E+01  0.43236644960E+02  0.51100000000E-03 0.  1.
         12    1    3    3    0    0  0.24011804867E+02  0.33139922179E+02 -0.90930070014E+00  0.40934680196E+02  0.00000000000E+00 0. -1.
</event>
<event>
 7    1  0.2490895E-015  0.9000770E+02  0.7816164E-02  0.1186339E+00
        -11   -1    0    0    0    0  0.00000000000E+00  0.00000000000E+00  0.45593999997E+02  0.45594000000E+02  0.51100000000E-03 0. -1.
         11   -1    0    0    0    0 -0.00000000000E+00 -0.00000000000E+00 -0.45593999997E+02  0.45594000000E+02  0.51100000000E-03 0.  1.
    9900012    2    1    2    0    0  0.87797988721E+00  0.44797581882E+00  0.64928145064E+00  0.90007704521E+02  0.89999965420E+02 0.  0.
         12    1    1    2    0    0 -0.87797988721E+00 -0.44797581882E+00 -0.64928145064E+00  0.11802954794E+01  0.00000000000E+00 0. -1.
         11    1    3    3    0    0 -0.31043124796E+02  0.91910669585E+01  0.26809855231E+02  0.42034743329E+02  0.51100000000E-03 0. -1.
        -11    1    3    3    0    0 -0.19855518306E+01  0.65003289683E+00 -0.82158380388E+01  0.84773199645E+01  0.51100000000E-03 0.  1.
        -12    1    3    3    0    0  0.33906656514E+02 -0.93931240365E+01 -0.17944735742E+02  0.39495641227E+02  0.00000000000E+00 0.  1.
</event>
<event>
 7    1  0.2490895E-015  0.9000776E+02  0.7816164E-02  0.1186339E+00
        -11   -1    0    0    0    0  0.00000000000E+00  0.00000000000E+00  0.45593999997E+02  0.45594000000E+02  0.51100000000E-03 0. -1.
         11   -1    0    0    0    0 -0.00000000000E+00 -0.00000000000E+00 -0.45593999997E+02  0.45594000000E+02  0.51100000000E-03 0.  1.
    9900012    2    1    2    0    0 -0.11367510021E+01 -0.11650912006E+00  0.29528211571E+00  0.90007759031E+02  0.90000020651E+02 0.  0.
         12    1    1    2    0    0  0.11367510021E+01  0.11650912006E+00 -0.29528211571E+00  0.11802409685E+01  0.00000000000E+00 0. -1.
         11    1    3    3    0    0 -0.77966096179E+00  0.28367700255E+01  0.96039170313E+01  0.10044419246E+02  0.51100000000E-03 0. -1.
        -11    1    3    3    0    0 -0.29932311940E+02  0.71376197116E+01  0.20340594768E+02  0.36886700977E+02  0.51100000000E-03 0.  1.
         12    1    3    3    0    0  0.29575221899E+02 -0.10090898857E+02 -0.29649229684E+02  0.43076638808E+02  0.00000000000E+00 0. -1.
</event>
<event>
 7    1  0.2490895E-015  0.9000772E+02  0.7816164E-02  0.1186339E+00
        -11   -1    0    0    0    0  0.00000000000E+00  0.00000000000E+00  0.45593999997E+02  0.45594000000E+02  0.51100000000E-03 0. -1.
         11   -1    0    0    0    0 -0.00000000000E+00 -0.00000000000E+00 -0.45593999997E+02  0.45594000000E+02  0.51100000000E-03 0.  1.
    9900012    2    1    2    0    0  0.75613634619E+00  0.25268091896E+00 -0.87032179768E+00  0.90007724671E+02  0.89999985837E+02 0.  0.
         12    1    1    2    0    0 -0.75613634619E+00 -0.25268091896E+00  0.87032179768E+00  0.11802753290E+01  0.00000000000E+00 0. -1.
         11    1    3    3    0    0 -0.28359800215E+01 -0.85281563985E+01  0.18540647421E+01  0.91765892667E+01  0.51100000000E-03 0. -1.
        -11    1    3    3    0    0 -0.17056249310E+02 -0.19458546912E+02 -0.27655572244E+02  0.37873227547E+02  0.51100000000E-03 0.  1.
         12    1    3    3    0    0  0.20648365678E+02  0.28239384229E+02  0.24931185704E+02  0.42957907857E+02  0.00000000000E+00 0. -1.
</event>
<event>
 7    1  0.2490895E-015  0.9000783E+02  0.7816164E-02  0.1186339E+00
        -11   -1    0    0    0    0  0.00000000000E+00  0.00000000000E+00  0.45593999997E+02  0.45594000000E+02  0.51100000000E-03 0.  1.
         11   -1    0    0    0    0 -0.00000000000E+00 -0.00000000000E+00 -0.45593999997E+02  0.45594000000E+02  0.51100000000E-03 0. -1.
    9900012    2    1    2    0    0 -0.25339317539E+00  0.10739033765E+01  0.41872661160E+00  0.90007826903E+02  0.90000089418E+02 0.  0.
         12    1    1    2    0    0  0.25339317539E+00 -0.10739033765E+01 -0.41872661160E+00  0.11801730969E+01  0.00000000000E+00 0. -1.
         11    1    3    3    0    0  0.32688189663E+02  0.64235420862E+01 -0.12052146401E+02  0.35426457197E+02  0.51100000000E-03 0. -1.
        -11    1    3    3    0    0 -0.84558997554E+00  0.84042122132E+01 -0.99748803359E+01  0.13070732317E+02  0.51100000000E-03 0.  1.
        -12    1    3    3    0    0 -0.32095992863E+02 -0.13753850923E+02  0.22445753348E+02  0.41510637389E+02  0.00000000000E+00 0.  1.
</event>
<event>
 7    1  0.2490895E-015  0.9000762E+02  0.7816164E-02  0.1186339E+00
        -11   -1    0    0    0    0  0.00000000000E+00  0.00000000000E+00  0.45593999997E+02  0.45594000000E+02  0.51100000000E-03 0.  1.
         11   -1    0    0    0    0 -0.00000000000E+00 -0.00000000000E+00 -0.45593999997E+02  0.45594000000E+02  0.51100000000E-03 0. -1.
    9900012    2    1    2    0    0 -0.31308367390E+00 -0.79378229076E+00  0.81558238060E+00  0.90007624496E+02  0.89999884339E+02 0.  0.
         12    1    1    2    0    0  0.31308367390E+00  0.79378229076E+00 -0.81558238060E+00  0.11803755045E+01  0.00000000000E+00 0. -1.
         11    1    3    3    0    0 -0.23779150765E+02  0.26165401782E+02  0.67405488214E+01  0.35993211307E+02  0.51100000000E-03 0. -1.
        -11    1    3    3    0    0 -0.65401754961E+01  0.60803999791E+01  0.38806862481E+00  0.89384426465E+01  0.51100000000E-03 0.  1.
        -12    1    3    3    0    0  0.30006242588E+02 -0.33039584052E+02 -0.63130350656E+01  0.45075970542E+02  0.00000000000E+00 0.  1.
</event>
<event>
 7    1  0.2490895E-015  0.9000773E+02  0.7816164E-02  0.1186339E+00
        -11   -1    0    0    0    0  0.00000000000E+00  0.00000000000E+00  0.45593999997E+02  0.45594000000E+02  0.51100000000E-03 0.  1.
         11   -1    0    0    0    0 -0.00000000000E+00 -0.00000000000E+00 -0.45593999997E+02  0.45594000000E+02  0.51100000000E-03 0. -1.
    9900012    2    1    2    0    0  0.10108373602E+01  0.59194824707E+00 -0.14437267326E+00  0.90007729537E+02  0.89999990767E+02 0.  0.
         12    1    1    2    0    0 -0.10108373602E+01 -0.59194824707E+00  0.14437267326E+00  0.11802704626E+01  0.00000000000E+00 0. -1.
         11    1    3    3    0    0  0.15508743096E+01 -0.63254843673E+01 -0.47176614855E+01  0.80419707633E+01  0.51100000000E-03 0. -1.
        -11    1    3    3    0    0  0.22330376375E+02 -0.25731014852E+02  0.19670868092E+02  0.39340486602E+02  0.51100000000E-03 0.  1.
         12    1    3    3    0    0 -0.22870413324E+02  0.32648447466E+02 -0.15097579280E+02  0.42625272172E+02  0.00000000000E+00 0. -1.
</event>
<event>
 7    1  0.2490895E-015  0.9000767E+02  0.7816164E-02  0.1186339E+00
        -11   -1    0    0    0    0  0.00000000000E+00  0.00000000000E+00  0.45593999997E+02  0.45594000000E+02  0.51100000000E-03 0. -1.
         11   -1    0    0    0    0 -0.00000000000E+00 -0.00000000000E+00 -0.45593999997E+02  0.45594000000E+02  0.51100000000E-03 0.  1.
    9900012    2    1    2    0    0 -0.39938570259E+00  0.10577036197E+01 -0.33903419882E+00  0.90007665270E+02  0.89999925652E+02 0.  0.
         12    1    1    2    0    0  0.39938570259E+00 -0.10577036197E+01  0.33903419882E+00  0.11803347299E+01  0.00000000000E+00 0. -1.
         11    1    3    3    0    0  0.85018421906E+01  0.66360294401E+01  0.37084596874E+02  0.38621050386E+02  0.51100000000E-03 0. -1.
        -11    1    3    3    0    0  0.14764046921E+01 -0.82752793343E+01  0.34823289908E+01  0.90987160818E+01  0.51100000000E-03 0.  1.
        -12    1    3    3    0    0 -0.10377632585E+02  0.26969535139E+01 -0.40905960064E+02  0.42287898802E+02  0.00000000000E+00 0.  1.
</event>
<event>
 7    1  0.2490895E-015  0.9000769E+02  0.7816164E-02  0.1186339E+00
        -11   -1    0    0    0    0  0.00000000000E+00  0.00000000000E+00  0.45593999997E+02  0.45594000000E+02  0.51100000000E-03 0.  1.
         11   -1    0    0    0    0 -0.00000000000E+00 -0.00000000000E+00 -0.45593999997E+02  0.45594000000E+02  0.51100000000E-03 0. -1.
    9900012    2    1    2    0    0  0.74035127545E+00 -0.80649239450E+00  0.44111966196E+00  0.90007687944E+02  0.89999948625E+02 0.  0.
         12    1    1    2    0    0 -0.74035127545E+00  0.80649239450E+00 -0.44111966196E+00  0.11803120560E+01  0.00000000000E+00 0. -1.
         11    1    3    3    0    0  0.23527549719E+02  0.61790493495E+01  0.12463694483E+01  0.24357333264E+02  0.51100000000E-03 0. -1.
        -11    1    3    3    0    0  0.20091031790E+02  0.57568609353E+01  0.38236839206E+00  0.20903043130E+02  0.51100000000E-03 0.  1.
        -12    1    3    3    0    0 -0.42878230234E+02 -0.12742402679E+02 -0.11876181784E+01  0.44747311551E+02  0.00000000000E+00 0.  1.
</event>
<event>
 7    1  0.2490895E-015  0.9000784E+02  0.7816164E-02  0.1186339E+00
        -11   -1    0    0    0    0  0.00000000000E+00  0.00000000000E+00  0.45593999997E+02  0.45594000000E+02  0.51100000000E-03 0.  1.
         11   -1    0    0    0    0 -0.00000000000E+00 -0.00000000000E+00 -0.45593999997E+02  0.45594000000E+02  0.51100000000E-03 0. -1.
    9900012    2    1    2    0    0  0.44779205711E+00  0.10438148585E+01  0.32049122753E+00  0.90007838226E+02  0.90000100891E+02 0.  0.
         12    1    1    2    0    0 -0.44779205711E+00 -0.10438148585E+01 -0.32049122753E+00  0.11801617737E+01  0.00000000000E+00 0. -1.
         11    1    3    3    0    0  0.19770452515E+00 -0.11406589139E+02 -0.18161507590E+01  0.11551959431E+02  0.51100000000E-03 0. -1.
        -11    1    3    3    0    0 -0.47827500360E+01 -0.16495039659E+02  0.32154069852E+02  0.36453329609E+02  0.51100000000E-03 0.  1.
         12    1    3    3    0    0  0.50328375680E+01  0.28945443657E+02 -0.30017427865E+02  0.42002549186E+02  0.00000000000E+00 0. -1.
</event>
<event>
 7    1  0.2490895E-015  0.9000741E+02  0.7816164E-02  0.1186340E+00
        -11   -1    0    0    0    0  0.00000000000E+00  0.00000000000E+00  0.45593999997E+02  0.45594000000E+02  0.51100000000E-03 0. -1.
         11   -1    0    0    0    0 -0.00000000000E+00 -0.00000000000E+00 -0.45593999997E+02  0.45594000000E+02  0.51100000000E-03 0.  1.
    9900012    2    1    2    0    0 -0.79514322391E+00 -0.82860409992E+00 -0.27376344623E+00  0.90007413737E+02  0.89999670797E+02 0.  0.
         12    1    1    2    0    0  0.79514322391E+00  0.82860409992E+00  0.27376344623E+00  0.11805862634E+01  0.00000000000E+00 0. -1.
         11    1    3    3    0    0  0.29042563504E+02  0.15922934358E+02  0.60821676746E+01  0.33674962470E+02  0.51100000000E-03 0. -1.
        -11    1    3    3    0    0 -0.51888010826E+01  0.14269665371E+02  0.33284923584E+01  0.15544319480E+02  0.51100000000E-03 0.  1.
        -12    1    3    3    0    0 -0.24648905645E+02 -0.31021203829E+02 -0.96844234793E+01  0.40788131786E+02  0.00000000000E+00 0.  1.
</event>
<event>
 7    1  0.2490895E-015  0.9000778E+02  0.7816164E-02  0.1186339E+00
        -11   -1    0    0    0    0  0.00000000000E+00  0.00000000000E+00  0.45593999997E+02  0.45594000000E+02  0.51100000000E-03 0.  1.
         11   -1    0    0    0    0 -0.00000000000E+00 -0.00000000000E+00 -0.45593999997E+02  0.45594000000E+02  0.51100000000E-03 0. -1.
    9900012    2    1    2    0    0  0.75605411548E+00 -0.65455531173E+00  0.62677799177E+00  0.90007783438E+02  0.90000045380E+02 0.  0.
         12    1    1    2    0    0 -0.75605411548E+00  0.65455531173E+00 -0.62677799177E+00  0.11802165617E+01  0.00000000000E+00 0. -1.
         11    1    3    3    0    0  0.28446946118E+02  0.32176332198E+01 -0.19614034645E+02  0.34702914320E+02  0.51100000000E-03 0. -1.
        -11    1    3    3    0    0  0.59743731640E+01 -0.10163495368E+02 -0.49537415453E+01  0.12787858630E+02  0.51100000000E-03 0.  1.
        -12    1    3    3    0    0 -0.33665265166E+02  0.62913068360E+01  0.25194554182E+02  0.42517010488E+02  0.00000000000E+00 0.  1.
</event>
<event>
 7    1  0.2490895E-015  0.9000773E+02  0.7816164E-02  0.1186339E+00
        -11   -1    0    0    0    0  0.00000000000E+00  0.00000000000E+00  0.45593999997E+02  0.45594000000E+02  0.51100000000E-03 0.  1.
         11   -1    0    0    0    0 -0.00000000000E+00 -0.00000000000E+00 -0.45593999997E+02  0.45594000000E+02  0.51100000000E-03 0. -1.
    9900012    2    1    2    0    0  0.32217288574E+00 -0.31148456815E+00  0.10918924851E+01  0.90007725793E+02  0.89999986974E+02 0.  0.
         12    1    1    2    0    0 -0.32217288574E+00  0.31148456815E+00 -0.10918924851E+01  0.11802742070E+01  0.00000000000E+00 0. -1.
         11    1    3    3    0    0 -0.13167059286E+01  0.45019456461E+01  0.92806770068E+01  0.10398663139E+02  0.51100000000E-03 0. -1.
        -11    1    3    3    0    0  0.17754168867E+02 -0.32586896220E+02  0.14973630035E+02  0.40016570493E+02  0.51100000000E-03 0.  1.
         12    1    3    3    0    0 -0.16115290052E+02  0.27773466005E+02 -0.23162414557E+02  0.39592492161E+02  0.00000000000E+00 0. -1.
</event>
<event>
 7    1  0.2490895E-015  0.9000775E+02  0.7816164E-02  0.1186339E+00
        -11   -1    0    0    0    0  0.00000000000E+00  0.00000000000E+00  0.45593999997E+02  0.45594000000E+02  0.51100000000E-03 0.  1.
         11   -1    0    0    0    0 -0.00000000000E+00 -0.00000000000E+00 -0.45593999997E+02  0.45594000000E+02  0.51100000000E-03 0. -1.
    9900012    2    1    2    0    0 -0.11488606775E+01  0.25804921647E+00  0.80708444488E-01  0.90007752523E+02  0.90000014056E+02 0.  0.
         12    1    1    2    0    0  0.11488606775E+01 -0.25804921647E+00 -0.80708444488E-01  0.11802474772E+01  0.00000000000E+00 0. -1.
         11    1    3    3    0    0 -0.25361179458E+01  0.28757799919E+01  0.96113239319E+01  0.10347925047E+02  0.51100000000E-03 0. -1.
        -11    1    3    3    0    0  0.85107945663E+01  0.17251120092E+01  0.34125810824E+02  0.35213358264E+02  0.51100000000E-03 0.  1.
         12    1    3    3    0    0 -0.71235372980E+01 -0.43428427846E+01 -0.43656426311E+02  0.44446469211E+02  0.00000000000E+00 0. -1.
</event>
<event>
 7    1  0.2490895E-015  0.9000767E+02  0.7816164E-02  0.1186339E+00
        -11   -1    0    0    0    0  0.00000000000E+00  0.00000000000E+00  0.45593999997E+02  0.45594000000E+02  0.51100000000E-03 0.  1.
         11   -1    0    0    0    0 -0.00000000000E+00 -0.00000000000E+00 -0.45593999997E+02  0.45594000000E+02  0.51100000000E-03 0. -1.
    9900012    2    1    2    0    0  0.65852209078E+00 -0.95521415635E+00  0.21699539671E+00  0.90007672744E+02  0.89999933224E+02 0.  0.
         12    1    1    2    0    0 -0.65852209078E+00  0.95521415635E+00 -0.21699539671E+00  0.11803272558E+01  0.00000000000E+00 0. -1.
         11    1    3    3    0    0 -0.22330613991E+01  0.79726933675E+00 -0.92123369354E+01  0.95125892206E+01  0.51100000000E-03 0. -1.
        -11    1    3    3    0    0  0.30774028496E+02 -0.19817095655E+02  0.24467225198E+02  0.44027300839E+02  0.51100000000E-03 0.  1.
         12    1    3    3    0    0 -0.27882445006E+02  0.18064612162E+02 -0.15037892866E+02  0.36467782684E+02  0.00000000000E+00 0. -1.
</event>
<event>
 7    1  0.2490895E-015  0.9000756E+02  0.7816164E-02  0.1186339E+00
        -11   -1    0    0    0    0  0.00000000000E+00  0.00000000000E+00  0.45593999997E+02  0.45594000000E+02  0.51100000000E-03 0. -1.
         11   -1    0    0    0    0 -0.00000000000E+00 -0.00000000000E+00 -0.45593999997E+02  0.45594000000E+02  0.51100000000E-03 0.  1.
    9900012    2    1    2    0    0 -0.47476422806E+00  0.26060150280E+00 -0.10488737377E+01  0.90007555027E+02  0.89999813954E+02 0.  0.
         12    1    1    2    0    0  0.47476422806E+00 -0.26060150280E+00  0.10488737377E+01  0.11804449725E+01  0.00000000000E+00 0. -1.
         11    1    3    3    0    0 -0.33602363609E+02  0.63483357188E+01 -0.14049665559E+02  0.36970438313E+02  0.51100000000E-03 0. -1.
        -11    1    3    3    0    0 -0.37076156956E+01  0.10320500763E+02  0.43350054193E+01  0.11792006716E+02  0.51100000000E-03 0.  1.
        -12    1    3    3    0    0  0.36835215076E+02 -0.16408234979E+02  0.86657864018E+01  0.41245109999E+02  0.00000000000E+00 0.  1.
</event>
<event>
 7    1  0.2490895E-015  0.9000777E+02  0.7816164E-02  0.1186339E+00
        -11   -1    0    0    0    0  0.00000000000E+00  0.00000000000E+00  0.45593999997E+02  0.45594000000E+02  0.51100000000E-03 0.  1.
         11   -1    0    0    0    0 -0.00000000000E+00 -0.00000000000E+00 -0.45593999997E+02  0.45594000000E+02  0.51100000000E-03 0. -1.
    9900012    2    1    2    0    0 -0.84193423587E+00  0.18312594424E+00  0.80656801875E+00  0.90007771065E+02  0.90000032844E+02 0.  0.
         12    1    1    2    0    0  0.84193423587E+00 -0.18312594424E+00 -0.80656801875E+00  0.11802289345E+01  0.00000000000E+00 0. -1.
         11    1    3    3    0    0 -0.55375256569E+00 -0.32784990166E+02 -0.12730904406E+02  0.35174396218E+02  0.51100000000E-03 0. -1.
        -11    1    3    3    0    0  0.20101308832E+01 -0.30680227523E+01 -0.10721696869E+02  0.11331733044E+02  0.51100000000E-03 0.  1.
        -12    1    3    3    0    0 -0.22983125534E+01  0.36036138862E+02  0.24259169294E+02  0.43501641803E+02  0.00000000000E+00 0.  1.
</event>
<event>
 7    1  0.2490895E-015  0.9000774E+02  0.7816164E-02  0.1186339E+00
        -11   -1    0    0    0    0  0.00000000000E+00  0.00000000000E+00  0.45593999997E+02  0.45594000000E+02  0.51100000000E-03 0.  1.
         11   -1    0    0    0    0 -0.00000000000E+00 -0.00000000000E+00 -0.45593999997E+02  0.45594000000E+02  0.51100000000E-03 0. -1.
    9900012    2    1    2    0    0 -0.79223260172E+00 -0.39677178152E+00 -0.77971746923E+00  0.90007737456E+02  0.89999998790E+02 0.  0.
         12    1    1    2    0    0  0.79223260172E+00  0.39677178152E+00  0.77971746923E+00  0.11802625444E+01  0.00000000000E+00 0. -1.
         11    1    3    3    0    0  0.16259846775E+02 -0.19111969249E+02 -0.24058191190E+02  0.34762717807E+02  0.51100000000E-03 0. -1.
        -11    1    3    3    0    0  0.37832156392E+01 -0.95450347104E+01 -0.37554366342E+01  0.10932690098E+02  0.51100000000E-03 0.  1.
        -12    1    3    3    0    0 -0.20835295016E+02  0.28260232177E+02  0.27033910355E+02  0.44312329551E+02  0.00000000000E+00 0.  1.
</event>
<event>
 7    1  0.2490895E-015  0.9000777E+02  0.7816164E-02  0.1186339E+00
        -11   -1    0    0    0    0  0.00000000000E+00  0.00000000000E+00  0.45593999997E+02  0.45594000000E+02  0.51100000000E-03 0.  1.
         11   -1    0    0    0    0 -0.00000000000E+00 -0.00000000000E+00 -0.45593999997E+02  0.45594000000E+02  0.51100000000E-03 0. -1.
    9900012    2    1    2    0    0  0.77050694913E+00  0.66922981670E+00  0.59278907371E+00  0.90007767653E+02  0.90000029386E+02 0.  0.
         12    1    1    2    0    0 -0.77050694913E+00 -0.66922981670E+00 -0.59278907371E+00  0.11802323467E+01  0.00000000000E+00 0. -1.
         11    1    3    3    0    0  0.46590326546E+01  0.12599951105E+02 -0.32548490720E+02  0.35211782141E+02  0.51100000000E-03 0. -1.
        -11    1    3    3    0    0  0.50780760799E+01  0.11976358346E+02  0.62032938995E-01  0.13008607314E+02  0.51100000000E-03 0.  1.
        -12    1    3    3    0    0 -0.89666017854E+01 -0.23907079634E+02  0.33079246855E+02  0.41787378198E+02  0.00000000000E+00 0.  1.
</event>
<event>
 7    1  0.2490895E-015  0.9000782E+02  0.7816164E-02  0.1186339E+00
        -11   -1    0    0    0    0  0.00000000000E+00  0.00000000000E+00  0.45593999997E+02  0.45594000000E+02  0.51100000000E-03 0.  1.
         11   -1    0    0    0    0 -0.00000000000E+00 -0.00000000000E+00 -0.45593999997E+02  0.45594000000E+02  0.51100000000E-03 0. -1.
    9900012    2    1    2    0    0 -0.71556662048E+00 -0.86396878466E+00 -0.36652501020E+00  0.90007822796E+02  0.90000085257E+02 0.  0.
         12    1    1    2    0    0  0.71556662048E+00  0.86396878466E+00  0.36652501020E+00  0.11801772038E+01  0.00000000000E+00 0. -1.
         11    1    3    3    0    0 -0.20103943929E+02  0.10486615252E+02 -0.30156191499E+02  0.37729743531E+02  0.51100000000E-03 0. -1.
        -11    1    3    3    0    0 -0.39467462687E+01 -0.12651598478E+02 -0.13744192122E+01  0.13323992592E+02  0.51100000000E-03 0.  1.
        -12    1    3    3    0    0  0.23335123577E+02  0.13010144415E+01  0.31164085701E+02  0.38954086673E+02  0.00000000000E+00 0.  1.
</event>
<event>
 7    1  0.2490895E-015  0.9000755E+02  0.7816164E-02  0.1186339E+00
        -11   -1    0    0    0    0  0.00000000000E+00  0.00000000000E+00  0.45593999997E+02  0.45594000000E+02  0.51100000000E-03 0.  1.
         11   -1    0    0    0    0 -0.00000000000E+00 -0.00000000000E+00 -0.45593999997E+02  0.45594000000E+02  0.51100000000E-03 0. -1.
    9900012    2    1    2    0    0  0.11236983673E+01  0.33927198878E-01  0.36002449008E+00  0.90007548091E+02  0.89999806926E+02 0.  0.
         12    1    1    2    0    0 -0.11236983673E+01 -0.33927198878E-01 -0.36002449008E+00  0.11804519088E+01  0.00000000000E+00 0. -1.
         11    1    3    3    0    0 -0.65406738471E+01 -0.15541284502E+01 -0.63828798296E+01  0.92702149271E+01  0.51100000000E-03 0. -1.
        -11    1    3    3    0    0 -0.14831119389E+02  0.20785334282E+02  0.32630804018E+02  0.41433821869E+02  0.51100000000E-03 0.  1.
         12    1    3    3    0    0  0.22495491603E+02 -0.19197278633E+02 -0.25887899698E+02  0.39303511295E+02  0.00000000000E+00 0. -1.
</event>
<event>
 7    1  0.2490895E-015  0.9000784E+02  0.7816164E-02  0.1186339E+00
        -11   -1    0    0    0    0  0.00000000000E+00  0.00000000000E+00  0.45593999997E+02  0.45594000000E+02  0.51100000000E-03 0. -1.
         11   -1    0    0    0    0 -0.00000000000E+00 -0.00000000000E+00 -0.45593999997E+02  0.45594000000E+02  0.51100000000E-03 0.  1.
    9900012    2    1    2    0    0  0.48981741603E+00  0.38825194990E+00  0.10010577587E+01  0.90007840132E+02  0.90000102822E+02 0.  0.
         12    1    1    2    0    0 -0.48981741603E+00 -0.38825194990E+00 -0.10010577587E+01  0.11801598680E+01  0.00000000000E+00 0. -1.
         11    1    3    3    0    0  0.18953764017E+02 -0.19410059576E+02  0.29755604486E+02  0.40266506948E+02  0.51100000000E-03 0. -1.
        -11    1    3    3    0    0  0.20191269713E+01 -0.64689567863E+01 -0.80445595194E+01  0.10518517659E+02  0.51100000000E-03 0.  1.
        -12    1    3    3    0    0 -0.20483073573E+02  0.26267268312E+02 -0.20709987208E+02  0.39222815525E+02  0.00000000000E+00 0.  1.
</event>
<event>
 7    1  0.2490895E-015  0.9000776E+02  0.7816164E-02  0.1186339E+00
        -11   -1    0    0    0    0  0.00000000000E+00  0.00000000000E+00  0.45593999997E+02  0.45594000000E+02  0.51100000000E-03 0. -1.
         11   -1    0    0    0    0 -0.00000000000E+00 -0.00000000000E+00 -0.45593999997E+02  0.45594000000E+02  0.51100000000E-03 0.  1.
    9900012    2    1    2    0    0  0.75442952525E+00 -0.33149434246E+00 -0.84493376435E+00  0.90007760417E+02  0.90000022054E+02 0.  0.
         12    1    1    2    0    0 -0.75442952525E+00  0.33149434246E+00  0.84493376435E+00  0.11802395832E+01  0.00000000000E+00 0. -1.
         11    1    3    3    0    0 -0.36973386727E+02  0.17334419010E+02  0.88455471570E+01  0.41782258355E+02  0.51100000000E-03 0. -1.
        -11    1    3    3    0    0  0.46984771937E+01  0.18091549379E+01 -0.84812142008E+01  0.98630484187E+01  0.51100000000E-03 0.  1.
        -12    1    3    3    0    0  0.33029339058E+02 -0.19475068290E+02 -0.12092667205E+01  0.38362453643E+02  0.00000000000E+00 0.  1.
</event>
<event>
 7    1  0.3298713E-015  0.9000753E+02  0.7816164E-02  0.1186339E+00
        -11   -1    0    0    0    0  0.00000000000E+00  0.00000000000E+00  0.45593999997E+02  0.45594000000E+02  0.51100000000E-03 0. -1.
         11   -1    0    0    0    0 -0.00000000000E+00 -0.00000000000E+00 -0.45593999997E+02  0.45594000000E+02  0.51100000000E-03 0.  1.
    9900012    2    1    2    0    0 -0.29502756042E+00  0.11427171629E+01 -0.25919957367E-01  0.90007527374E+02  0.89999785935E+02 0.  0.
         12    1    1    2    0    0  0.29502756042E+00 -0.11427171629E+01  0.25919957367E-01  0.11804726257E+01  0.00000000000E+00 0. -1.
         11    1    3    3    0    0  0.90323883523E+01  0.19751544594E+02  0.31996263088E+02  0.38671286571E+02  0.51100000000E-03 0. -1.
        -11    1    3    3    0    0  0.42496367833E+01  0.80872374107E+01 -0.29597821202E+01  0.96032875718E+01  0.51100000000E-03 0.  1.
        -12    1    3    3    0    0 -0.13577052696E+02 -0.26696064841E+02 -0.29062400925E+02  0.41732953232E+02  0.00000000000E+00 0.  1.
</event>
<event>
 7    1  0.2490895E-015  0.9000739E+02  0.7816164E-02  0.1186340E+00
        -11   -1    0    0    0    0  0.00000000000E+00  0.00000000000E+00  0.45593999997E+02  0.45594000000E+02  0.51100000000E-03 0.  1.
         11   -1    0    0    0    0 -0.00000000000E+00 -0.00000000000E+00 -0.45593999997E+02  0.45594000000E+02  0.51100000000E-03 0. -1.
    9900012    2    1    2    0    0  0.43073708924E+00 -0.92085056792E+00  0.60028494374E+00  0.90007389047E+02  0.89999645782E+02 0.  0.
         12    1    1    2    0    0 -0.43073708924E+00  0.92085056792E+00 -0.60028494374E+00  0.11806109529E+01  0.00000000000E+00 0. -1.
         11    1    3    3    0    0 -0.15844041755E+01  0.11962646804E+02 -0.23863351411E+01  0.12300806917E+02  0.51100000000E-03 0. -1.
        -11    1    3    3    0    0 -0.27552941733E+02 -0.93114485873E+01  0.26819203743E+02  0.39561816978E+02  0.51100000000E-03 0.  1.
         12    1    3    3    0    0  0.29568082998E+02 -0.35720487843E+01 -0.23832583658E+02  0.38144765152E+02  0.00000000000E+00 0. -1.
</event>
<event>
 7    1  0.2490895E-015  0.9000755E+02  0.7816164E-02  0.1186339E+00
        -11   -1    0    0    0    0  0.00000000000E+00  0.00000000000E+00  0.45593999997E+02  0.45594000000E+02  0.51100000000E-03 0.  1.
         11   -1    0    0    0    0 -0.00000000000E+00 -0.00000000000E+00 -0.45593999997E+02  0.45594000000E+02  0.51100000000E-03 0. -1.
    9900012    2    1    2    0    0  0.10990845587E+01  0.81185046138E-01  0.42294371380E+00  0.90007551245E+02  0.89999810121E+02 0.  0.
         12    1    1    2    0    0 -0.10990845587E+01 -0.81185046138E-01 -0.42294371380E+00  0.11804487553E+01  0.00000000000E+00 0. -1.
         11    1    3    3    0    0  0.39219384393E+01  0.45863461073E+01  0.15423842770E+01  0.62285729711E+01  0.51100000000E-03 0. -1.
        -11    1    3    3    0    0 -0.26031853934E+02 -0.29597495780E+01 -0.34359492279E+02  0.43208705682E+02  0.51100000000E-03 0.  1.
         12    1    3    3    0    0  0.23209000053E+02 -0.15454114832E+01  0.33240051715E+02  0.40570272592E+02  0.00000000000E+00 0. -1.
</event>
<event>
 7    1  0.2490895E-015  0.9000775E+02  0.7816164E-02  0.1186339E+00
        -11   -1    0    0    0    0  0.00000000000E+00  0.00000000000E+00  0.45593999997E+02  0.45594000000E+02  0.51100000000E-03 0. -1.
         11   -1    0    0    0    0 -0.00000000000E+00 -0.00000000000E+00 -0.45593999997E+02  0.45594000000E+02  0.51100000000E-03 0.  1.
    9900012    2    1    2    0    0  0.73356642056E+00 -0.84563818899E+00 -0.37386567913E+00  0.90007746135E+02  0.90000007584E+02 0.  0.
         12    1    1    2    0    0 -0.73356642056E+00  0.84563818899E+00  0.37386567913E+00  0.11802538651E+01  0.00000000000E+00 0. -1.
         11    1    3    3    0    0 -0.14499211937E+01  0.55150577135E+01 -0.83571653402E+01  0.10117328987E+02  0.51100000000E-03 0. -1.
        -11    1    3    3    0    0 -0.27809346047E+02  0.10574730817E+02 -0.19714914915E+02  0.35691210820E+02  0.51100000000E-03 0.  1.
         12    1    3    3    0    0  0.29992833662E+02 -0.16935426720E+02  0.27698214577E+02  0.44199206327E+02  0.00000000000E+00 0. -1.
</event>
<event>
 7    1  0.2490895E-015  0.9000677E+02  0.7816164E-02  0.1186341E+00
        -11   -1    0    0    0    0  0.00000000000E+00  0.00000000000E+00  0.45593999997E+02  0.45594000000E+02  0.51100000000E-03 0. -1.
         11   -1    0    0    0    0 -0.00000000000E+00 -0.00000000000E+00 -0.45593999997E+02  0.45594000000E+02  0.51100000000E-03 0.  1.
    9900012    2    1    2    0    0 -0.68135214577E+00  0.68827356405E+00 -0.67627614448E+00  0.90006767310E+02  0.89999015833E+02 0.  0.
         12    1    1    2    0    0  0.68135214577E+00 -0.68827356405E+00  0.67627614448E+00  0.11812326905E+01  0.00000000000E+00 0. -1.
         11    1    3    3    0    0  0.94084515900E+00  0.74292156961E+01 -0.62477539169E+01  0.97525824652E+01  0.51100000000E-03 0. -1.
        -11    1    3    3    0    0 -0.81587059611E+01  0.21852035120E+02 -0.27493381863E+02  0.36054985347E+02  0.51100000000E-03 0.  1.
         12    1    3    3    0    0  0.65365086563E+01 -0.28592977252E+02  0.33064859635E+02  0.44199199498E+02  0.00000000000E+00 0. -1.
</event>
<event>
 7    1  0.2490895E-015  0.9000770E+02  0.7816164E-02  0.1186339E+00
        -11   -1    0    0    0    0  0.00000000000E+00  0.00000000000E+00  0.45593999997E+02  0.45594000000E+02  0.51100000000E-03 0. -1.
         11   -1    0    0    0    0 -0.00000000000E+00 -0.00000000000E+00 -0.45593999997E+02  0.45594000000E+02  0.51100000000E-03 0.  1.
    9900012    2    1    2    0    0 -0.26989465368E+00  0.52816633961E-01 -0.11478179978E+01  0.90007695430E+02  0.89999956210E+02 0.  0.
         12    1    1    2    0    0  0.26989465368E+00 -0.52816633961E-01  0.11478179978E+01  0.11803045695E+01  0.00000000000E+00 0. -1.
         11    1    3    3    0    0 -0.51712231580E+01  0.23748441820E+02 -0.10319547389E+02  0.26404982416E+02  0.51100000000E-03 0. -1.
        -11    1    3    3    0    0  0.23023864180E+02 -0.15919449046E+02 -0.15517028147E+02  0.32004770621E+02  0.51100000000E-03 0.  1.
         12    1    3    3    0    0 -0.18122535676E+02 -0.77761761394E+01  0.24688757539E+02  0.31597942393E+02  0.00000000000E+00 0. -1.
</event>
<event>
 7    1  0.2490895E-015  0.9000774E+02  0.7816164E-02  0.1186339E+00
        -11   -1    0    0    0    0  0.00000000000E+00  0.00000000000E+00  0.45593999997E+02  0.45594000000E+02  0.51100000000E-03 0.  1.
         11   -1    0    0    0    0 -0.00000000000E+00 -0.00000000000E+00 -0.45593999997E+02  0.45594000000E+02  0.51100000000E-03 0. -1.
    9900012    2    1    2    0    0 -0.74698469264E+00  0.77351834246E+00  0.48652654674E+00  0.90007735268E+02  0.89999996573E+02 0.  0.
         12    1    1    2    0    0  0.74698469264E+00 -0.77351834246E+00 -0.48652654674E+00  0.11802647321E+01  0.00000000000E+00 0. -1.
         11    1    3    3    0    0  0.33061861988E+01  0.10797043132E+02  0.48645734051E+01  0.12295164995E+02  0.51100000000E-03 0. -1.
        -11    1    3    3    0    0 -0.23884658739E+02  0.10000665146E+02  0.25708163090E+02  0.36488352610E+02  0.51100000000E-03 0.  1.
         12    1    3    3    0    0  0.19831487848E+02 -0.20024189936E+02 -0.30086209948E+02  0.41224217663E+02  0.00000000000E+00 0. -1.
</event>
<event>
 7    1  0.2490895E-015  0.9000770E+02  0.7816164E-02  0.1186339E+00
        -11   -1    0    0    0    0  0.00000000000E+00  0.00000000000E+00  0.45593999997E+02  0.45594000000E+02  0.51100000000E-03 0. -1.
         11   -1    0    0    0    0 -0.00000000000E+00 -0.00000000000E+00 -0.45593999997E+02  0.45594000000E+02  0.51100000000E-03 0.  1.
    9900012    2    1    2    0    0 -0.37983737007E+00 -0.11134528293E+01 -0.95131863749E-01  0.90007701859E+02  0.89999962723E+02 0.  0.
         12    1    1    2    0    0  0.37983737007E+00  0.11134528293E+01  0.95131863749E-01  0.11802981413E+01  0.00000000000E+00 0. -1.
         11    1    3    3    0    0  0.40524536875E+01 -0.36739403651E+02  0.61581528794E+01  0.37471709445E+02  0.51100000000E-03 0. -1.
        -11    1    3    3    0    0  0.11428089638E+02 -0.14260762989E+01  0.10914540531E+01  0.11568327390E+02  0.51100000000E-03 0.  1.
        -12    1    3    3    0    0 -0.15860380695E+02  0.37052027121E+02 -0.73447387962E+01  0.40967665025E+02  0.00000000000E+00 0.  1.
</event>
<event>
 7    1  0.2490895E-015  0.9000743E+02  0.7816164E-02  0.1186340E+00
        -11   -1    0    0    0    0  0.00000000000E+00  0.00000000000E+00  0.45593999997E+02  0.45594000000E+02  0.51100000000E-03 0.  1.
         11   -1    0    0    0    0 -0.00000000000E+00 -0.00000000000E+00 -0.45593999997E+02  0.45594000000E+02  0.51100000000E-03 0. -1.
    9900012    2    1    2    0    0  0.79600610664E+00 -0.60128511769E+00  0.63133708583E+00  0.90007425551E+02  0.89999682767E+02 0.  0.
         12    1    1    2    0    0 -0.79600610664E+00  0.60128511769E+00 -0.63133708583E+00  0.11805744494E+01  0.00000000000E+00 0. -1.
         11    1    3    3    0    0 -0.16349343315E-01 -0.56724066512E+01  0.76087989962E+01  0.94905367047E+01  0.51100000000E-03 0. -1.
        -11    1    3    3    0    0 -0.13921213324E+02  0.12271891331E+02  0.32691621565E+02  0.37591775937E+02  0.51100000000E-03 0.  1.
         12    1    3    3    0    0  0.14733568774E+02 -0.72007697976E+01 -0.39669083475E+02  0.42925112909E+02  0.00000000000E+00 0. -1.
</event>
<event>
 7    1  0.2490895E-015  0.9000715E+02  0.7816164E-02  0.1186340E+00
        -11   -1    0    0    0    0  0.00000000000E+00  0.00000000000E+00  0.45593999997E+02  0.45594000000E+02  0.51100000000E-03 0.  1.
         11   -1    0    0    0    0 -0.00000000000E+00 -0.00000000000E+00 -0.45593999997E+02  0.45594000000E+02  0.51100000000E-03 0. -1.
    9900012    2    1    2    0    0  0.13246803764E+00  0.65110518727E+00  0.97618034125E+00  0.90007147001E+02  0.89999400540E+02 0.  0.
         12    1    1    2    0    0 -0.13246803764E+00 -0.65110518727E+00 -0.97618034125E+00  0.11808529987E+01  0.00000000000E+00 0. -1.
         11    1    3    3    0    0  0.30829696953E+01  0.68350306524E+01 -0.56392413722E+01  0.93820781108E+01  0.51100000000E-03 0. -1.
        -11    1    3    3    0    0 -0.15175254772E+02 -0.30778572953E+01  0.41092586143E+02  0.43913121036E+02  0.51100000000E-03 0.  1.
         12    1    3    3    0    0  0.12224753115E+02 -0.31060681698E+01 -0.34477164429E+02  0.36711947855E+02  0.00000000000E+00 0. -1.
</event>
<event>
 7    1  0.2490895E-015  0.9000763E+02  0.7816164E-02  0.1186339E+00
        -11   -1    0    0    0    0  0.00000000000E+00  0.00000000000E+00  0.45593999997E+02  0.45594000000E+02  0.51100000000E-03 0.  1.
         11   -1    0    0    0    0 -0.00000000000E+00 -0.00000000000E+00 -0.45593999997E+02  0.45594000000E+02  0.51100000000E-03 0. -1.
    9900012    2    1    2    0    0  0.93976549476E+00 -0.36722610766E+00  0.61258267174E+00  0.90007630681E+02  0.89999890606E+02 0.  0.
         12    1    1    2    0    0 -0.93976549476E+00  0.36722610766E+00 -0.61258267174E+00  0.11803693189E+01  0.00000000000E+00 0. -1.
         11    1    3    3    0    0 -0.33786286190E+01 -0.90170741197E+01 -0.41230709103E+00  0.96380887329E+01  0.51100000000E-03 0. -1.
        -11    1    3    3    0    0  0.22749559283E+02 -0.33002859322E+01  0.33822864254E+02  0.40895237882E+02  0.51100000000E-03 0.  1.
         12    1    3    3    0    0 -0.18431165169E+02  0.11950133944E+02 -0.32797974492E+02  0.39474304066E+02  0.00000000000E+00 0. -1.
</event>
<event>
 7    1  0.2490895E-015  0.9000765E+02  0.7816164E-02  0.1186339E+00
        -11   -1    0    0    0    0  0.00000000000E+00  0.00000000000E+00  0.45593999997E+02  0.45594000000E+02  0.51100000000E-03 0.  1.
         11   -1    0    0    0    0 -0.00000000000E+00 -0.00000000000E+00 -0.45593999997E+02  0.45594000000E+02  0.51100000000E-03 0. -1.
    9900012    2    1    2    0    0 -0.67171827709E+00 -0.11877246807E+00  0.96328708558E+00  0.90007646514E+02  0.89999906648E+02 0.  0.
         12    1    1    2    0    0  0.67171827709E+00  0.11877246807E+00 -0.96328708558E+00  0.11803534861E+01  0.00000000000E+00 0. -1.
         11    1    3    3    0    0  0.26328225823E+02  0.86658957003E+01 -0.22644508962E+02  0.35791717053E+02  0.51100000000E-03 0. -1.
        -11    1    3    3    0    0  0.94646628451E+01  0.38437367825E+01  0.51038140814E+01  0.11419416520E+02  0.51100000000E-03 0.  1.
        -12    1    3    3    0    0 -0.36464606945E+02 -0.12628404951E+02  0.18503981966E+02  0.42796512940E+02  0.00000000000E+00 0.  1.
</event>
<event>
 7    1  0.2490895E-015  0.9000771E+02  0.7816164E-02  0.1186339E+00
        -11   -1    0    0    0    0  0.00000000000E+00  0.00000000000E+00  0.45593999997E+02  0.45594000000E+02  0.51100000000E-03 0. -1.
         11   -1    0    0    0    0 -0.00000000000E+00 -0.00000000000E+00 -0.45593999997E+02  0.45594000000E+02  0.51100000000E-03 0.  1.
    9900012    2    1    2    0    0 -0.60723253332E+00 -0.36263259448E+00 -0.94490869588E+00  0.90007709277E+02  0.89999970239E+02 0.  0.
         12    1    1    2    0    0  0.60723253332E+00  0.36263259448E+00  0.94490869588E+00  0.11802907234E+01  0.00000000000E+00 0. -1.
         11    1    3    3    0    0 -0.58079358571E+01  0.25966104809E+01  0.10787996345E+02  0.12524191403E+02  0.51100000000E-03 0. -1.
        -11    1    3    3    0    0 -0.33086886538E+02  0.11055354771E+02  0.59025269230E+00  0.34889988943E+02  0.51100000000E-03 0.  1.
         12    1    3    3    0    0  0.38287589862E+02 -0.14014597847E+02 -0.12323157733E+02  0.42593528931E+02  0.00000000000E+00 0. -1.
</event>
<event>
 7    1  0.2490895E-015  0.9000773E+02  0.7816164E-02  0.1186339E+00
        -11   -1    0    0    0    0  0.00000000000E+00  0.00000000000E+00  0.45593999997E+02  0.45594000000E+02  0.51100000000E-03 0.  1.
         11   -1    0    0    0    0 -0.00000000000E+00 -0.00000000000E+00 -0.45593999997E+02  0.45594000000E+02  0.51100000000E-03 0. -1.
    9900012    2    1    2    0    0 -0.39798348052E+00  0.18644696996E+00  0.10953876449E+01  0.90007734176E+02  0.89999995467E+02 0.  0.
         12    1    1    2    0    0  0.39798348052E+00 -0.18644696996E+00 -0.10953876449E+01  0.11802658243E+01  0.00000000000E+00 0. -1.
         11    1    3    3    0    0 -0.24869123639E+02 -0.47212885125E+01 -0.28243742357E+02  0.37927204727E+02  0.51100000000E-03 0. -1.
        -11    1    3    3    0    0 -0.50235664941E+01  0.31871472302E+01 -0.42763662420E+01  0.73267616506E+01  0.51100000000E-03 0.  1.
        -12    1    3    3    0    0  0.29494706653E+02  0.17205882523E+01  0.33615496244E+02  0.44753767799E+02  0.00000000000E+00 0.  1.
</event>
<event>
 7    1  0.2490895E-015  0.9000775E+02  0.7816164E-02  0.1186339E+00
        -11   -1    0    0    0    0  0.00000000000E+00  0.00000000000E+00  0.45593999997E+02  0.45594000000E+02  0.51100000000E-03 0.  1.
         11   -1    0    0    0    0 -0.00000000000E+00 -0.00000000000E+00 -0.45593999997E+02  0.45594000000E+02  0.51100000000E-03 0. -1.
    9900012    2    1    2    0    0  0.63764677928E+00  0.32582156140E+00  0.93820692407E+00  0.90007752002E+02  0.90000013528E+02 0.  0.
         12    1    1    2    0    0 -0.63764677928E+00 -0.32582156140E+00 -0.93820692407E+00  0.11802479982E+01  0.00000000000E+00 0. -1.
         11    1    3    3    0    0 -0.39895575209E+02  0.20944295395E+01 -0.58053570588E+01  0.40370109328E+02  0.51100000000E-03 0. -1.
        -11    1    3    3    0    0  0.30810109258E+01 -0.63779703880E+01 -0.65324456310E+01  0.96355581457E+01  0.51100000000E-03 0.  1.
        -12    1    3    3    0    0  0.37452211062E+02  0.46093624099E+01  0.13276009614E+02  0.40002084528E+02  0.00000000000E+00 0.  1.
</event>
<event>
 7    1  0.2490895E-015  0.9000773E+02  0.7816164E-02  0.1186339E+00
        -11   -1    0    0    0    0  0.00000000000E+00  0.00000000000E+00  0.45593999997E+02  0.45594000000E+02  0.51100000000E-03 0.  1.
         11   -1    0    0    0    0 -0.00000000000E+00 -0.00000000000E+00 -0.45593999997E+02  0.45594000000E+02  0.51100000000E-03 0. -1.
    9900012    2    1    2    0    0  0.57302975914E-01 -0.42312609246E+00  0.11003210238E+01  0.90007734913E+02  0.89999996213E+02 0.  0.
         12    1    1    2    0    0 -0.57302975914E-01  0.42312609246E+00 -0.11003210238E+01  0.11802650875E+01  0.00000000000E+00 0. -1.
         11    1    3    3    0    0 -0.13686188101E+02 -0.89177253713E+00 -0.39147504086E+02  0.41480526508E+02  0.51100000000E-03 0. -1.
        -11    1    3    3    0    0 -0.56162574730E+01  0.37141345479E+01  0.58371145707E+01  0.89111755799E+01  0.51100000000E-03 0.  1.
        -12    1    3    3    0    0  0.19359748550E+02 -0.32454881032E+01  0.34410710539E+02  0.39616032824E+02  0.00000000000E+00 0.  1.
</event>
<event>
 7    1  0.2490895E-015  0.9000773E+02  0.7816164E-02  0.1186339E+00
        -11   -1    0    0    0    0  0.00000000000E+00  0.00000000000E+00  0.45593999997E+02  0.45594000000E+02  0.51100000000E-03 0.  1.
         11   -1    0    0    0    0 -0.00000000000E+00 -0.00000000000E+00 -0.45593999997E+02  0.45594000000E+02  0.51100000000E-03 0. -1.
    9900012    2    1    2    0    0  0.26933856874E+00  0.11352831302E+01  0.17784296980E+00  0.90007729195E+02  0.89999990421E+02 0.  0.
         12    1    1    2    0    0 -0.26933856874E+00 -0.11352831302E+01 -0.17784296980E+00  0.11802708046E+01  0.00000000000E+00 0. -1.
         11    1    3    3    0    0  0.10044781784E+02 -0.19587924263E+01 -0.37673229783E+01  0.10905376268E+02  0.51100000000E-03 0. -1.
        -11    1    3    3    0    0  0.30042983279E+02 -0.47483669763E+01  0.18947458521E+02  0.35834815723E+02  0.51100000000E-03 0.  1.
         12    1    3    3    0    0 -0.39818426494E+02  0.78424425328E+01 -0.15002292572E+02  0.43267537205E+02  0.00000000000E+00 0. -1.
</event>
<event>
 7    1  0.2490895E-015  0.9000691E+02  0.7816164E-02  0.1186341E+00
        -11   -1    0    0    0    0  0.00000000000E+00  0.00000000000E+00  0.45593999997E+02  0.45594000000E+02  0.51100000000E-03 0.  1.
         11   -1    0    0    0    0 -0.00000000000E+00 -0.00000000000E+00 -0.45593999997E+02  0.45594000000E+02  0.51100000000E-03 0. -1.
    9900012    2    1    2    0    0  0.88090727093E+00  0.69524459227E+00  0.36825535482E+00  0.90006909542E+02  0.89999159944E+02 0.  0.
         12    1    1    2    0    0 -0.88090727093E+00 -0.69524459227E+00 -0.36825535482E+00  0.11810904578E+01  0.00000000000E+00 0. -1.
         11    1    3    3    0    0  0.64026046031E+01 -0.62184696426E+01  0.84648732749E-01  0.89257983435E+01  0.51100000000E-03 0. -1.
        -11    1    3    3    0    0  0.24831680918E+02 -0.20697370287E+02  0.17294477481E+02  0.36661866641E+02  0.51100000000E-03 0.  1.
         12    1    3    3    0    0 -0.30353378250E+02  0.27611084522E+02 -0.17010870859E+02  0.44419244558E+02  0.00000000000E+00 0. -1.
</event>
<event>
 7    1  0.2490895E-015  0.9000774E+02  0.7816164E-02  0.1186339E+00
        -11   -1    0    0    0    0  0.00000000000E+00  0.00000000000E+00  0.45593999997E+02  0.45594000000E+02  0.51100000000E-03 0.  1.
         11   -1    0    0    0    0 -0.00000000000E+00 -0.00000000000E+00 -0.45593999997E+02  0.45594000000E+02  0.51100000000E-03 0. -1.
    9900012    2    1    2    0    0 -0.59555881670E+00  0.81608774572E+00  0.61018216216E+00  0.90007740798E+02  0.90000002177E+02 0.  0.
         12    1    1    2    0    0  0.59555881670E+00 -0.81608774572E+00 -0.61018216216E+00  0.11802592020E+01  0.00000000000E+00 0. -1.
         11    1    3    3    0    0 -0.30362650324E+00  0.13022778871E+02 -0.25952075378E+02  0.29037823184E+02  0.51100000000E-03 0. -1.
        -11    1    3    3    0    0 -0.11652006455E+02  0.18535558864E+02  0.80351178940E+01  0.23321649098E+02  0.51100000000E-03 0.  1.
        -12    1    3    3    0    0  0.11360074141E+02 -0.30742249988E+02  0.18527139646E+02  0.37648268517E+02  0.00000000000E+00 0.  1.
</event>
<event>
 7    1  0.2490895E-015  0.9000774E+02  0.7816164E-02  0.1186339E+00
        -11   -1    0    0    0    0  0.00000000000E+00  0.00000000000E+00  0.45593999997E+02  0.45594000000E+02  0.51100000000E-03 0.  1.
         11   -1    0    0    0    0 -0.00000000000E+00 -0.00000000000E+00 -0.45593999997E+02  0.45594000000E+02  0.51100000000E-03 0. -1.
    9900012    2    1    2    0    0  0.89184409508E+00 -0.76802881598E+00  0.88131817828E-01  0.90007736737E+02  0.89999998062E+02 0.  0.
         12    1    1    2    0    0 -0.89184409508E+00  0.76802881598E+00 -0.88131817828E-01  0.11802632628E+01  0.00000000000E+00 0. -1.
         11    1    3    3    0    0  0.87852987503E+01  0.23709600343E+01 -0.66177577708E+01  0.11251561838E+02  0.51100000000E-03 0. -1.
        -11    1    3    3    0    0  0.35104721690E+02  0.18352318078E+01  0.41337602923E+01  0.35394880070E+02  0.51100000000E-03 0.  1.
         12    1    3    3    0    0 -0.42998176345E+02 -0.49742206581E+01  0.25721292963E+01  0.43361294830E+02  0.00000000000E+00 0. -1.
</event>
<event>
 7    1  0.2490895E-015  0.9000766E+02  0.7816164E-02  0.1186339E+00
        -11   -1    0    0    0    0  0.00000000000E+00  0.00000000000E+00  0.45593999997E+02  0.45594000000E+02  0.51100000000E-03 0. -1.
         11   -1    0    0    0    0 -0.00000000000E+00 -0.00000000000E+00 -0.45593999997E+02  0.45594000000E+02  0.51100000000E-03 0.  1.
    9900012    2    1    2    0    0 -0.22705151014E+00  0.94366920066E+00 -0.67166115970E+00  0.90007664174E+02  0.89999924541E+02 0.  0.
         12    1    1    2    0    0  0.22705151014E+00 -0.94366920066E+00  0.67166115970E+00  0.11803358259E+01  0.00000000000E+00 0. -1.
         11    1    3    3    0    0  0.17341749514E+02 -0.35409775006E+02  0.13420813581E+02  0.41649810079E+02  0.51100000000E-03 0. -1.
        -11    1    3    3    0    0 -0.18962888677E+01  0.73638412682E+01  0.60653060900E+01  0.97267675987E+01  0.51100000000E-03 0.  1.
        -12    1    3    3    0    0 -0.15672512157E+02  0.28989602939E+02 -0.20157780830E+02  0.38631086496E+02  0.00000000000E+00 0.  1.
</event>
<event>
 7    1  0.2490895E-015  0.9000767E+02  0.7816164E-02  0.1186339E+00
        -11   -1    0    0    0    0  0.00000000000E+00  0.00000000000E+00  0.45593999997E+02  0.45594000000E+02  0.51100000000E-03 0. -1.
         11   -1    0    0    0    0 -0.00000000000E+00 -0.00000000000E+00 -0.45593999997E+02  0.45594000000E+02  0.51100000000E-03 0.  1.
    9900012    2    1    2    0    0 -0.12753854041E+00 -0.91282946930E+00 -0.73733381699E+00  0.90007667472E+02  0.89999927882E+02 0.  0.
         12    1    1    2    0    0  0.12753854041E+00  0.91282946930E+00  0.73733381699E+00  0.11803325281E+01  0.00000000000E+00 0. -1.
         11    1    3    3    0    0  0.10086494298E+02 -0.15372558305E+01  0.15852634183E+00  0.10204197841E+02  0.51100000000E-03 0. -1.
        -11    1    3    3    0    0  0.15055081259E+02  0.17978428476E+02 -0.29630722413E+02  0.37787022549E+02  0.51100000000E-03 0.  1.
         12    1    3    3    0    0 -0.25269114097E+02 -0.17354002115E+02  0.28734862254E+02  0.42016447082E+02  0.00000000000E+00 0. -1.
</event>
<event>
 7    1  0.2490895E-015  0.9000773E+02  0.7816164E-02  0.1186339E+00
        -11   -1    0    0    0    0  0.00000000000E+00  0.00000000000E+00  0.45593999997E+02  0.45594000000E+02  0.51100000000E-03 0. -1.
         11   -1    0    0    0    0 -0.00000000000E+00 -0.00000000000E+00 -0.45593999997E+02  0.45594000000E+02  0.51100000000E-03 0.  1.
    9900012    2    1    2    0    0  0.86626660933E+00 -0.70897782199E+00  0.37413794724E+00  0.90007726051E+02  0.89999987235E+02 0.  0.
         12    1    1    2    0    0 -0.86626660933E+00  0.70897782199E+00 -0.37413794724E+00  0.11802739487E+01  0.00000000000E+00 0. -1.
         11    1    3    3    0    0  0.82126191819E+01  0.60080492330E+00  0.33419715945E+01  0.88868923017E+01  0.51100000000E-03 0. -1.
        -11    1    3    3    0    0  0.30627185297E+02 -0.17493077835E+01 -0.22852891420E+02  0.38253616868E+02  0.51100000000E-03 0.  1.
         12    1    3    3    0    0 -0.37973537869E+02  0.43952503820E+00  0.19885057773E+02  0.42867216882E+02  0.00000000000E+00 0. -1.
</event>
<event>
 7    1  0.2490895E-015  0.9000762E+02  0.7816164E-02  0.1186339E+00
        -11   -1    0    0    0    0  0.00000000000E+00  0.00000000000E+00  0.45593999997E+02  0.45594000000E+02  0.51100000000E-03 0. -1.
         11   -1    0    0    0    0 -0.00000000000E+00 -0.00000000000E+00 -0.45593999997E+02  0.45594000000E+02  0.51100000000E-03 0.  1.
    9900012    2    1    2    0    0  0.89082504324E+00  0.21946540573E+00 -0.74267806283E+00  0.90007616576E+02  0.89999876315E+02 0.  0.
         12    1    1    2    0    0 -0.89082504324E+00 -0.21946540573E+00  0.74267806283E+00  0.11803834237E+01  0.00000000000E+00 0. -1.
         11    1    3    3    0    0  0.77312842272E+01 -0.71980581068E+01  0.13165061194E+02  0.16879088625E+02  0.51100000000E-03 0. -1.
        -11    1    3    3    0    0 -0.24039693718E+02 -0.24720753030E+02 -0.12407618459E+02  0.36646575563E+02  0.51100000000E-03 0.  1.
         12    1    3    3    0    0  0.17199234534E+02  0.32138276542E+02 -0.15001207978E+01  0.36481952388E+02  0.00000000000E+00 0. -1.
</event>
<event>
 7    1  0.2490895E-015  0.9000773E+02  0.7816164E-02  0.1186339E+00
        -11   -1    0    0    0    0  0.00000000000E+00  0.00000000000E+00  0.45593999997E+02  0.45594000000E+02  0.51100000000E-03 0. -1.
         11   -1    0    0    0    0 -0.00000000000E+00 -0.00000000000E+00 -0.45593999997E+02  0.45594000000E+02  0.51100000000E-03 0.  1.
    9900012    2    1    2    0    0  0.11707069031E+00 -0.66656301730E+00 -0.96696427059E+00  0.90007732360E+02  0.89999993627E+02 0.  0.
         12    1    1    2    0    0 -0.11707069031E+00  0.66656301730E+00  0.96696427059E+00  0.11802676405E+01  0.00000000000E+00 0. -1.
         11    1    3    3    0    0 -0.20753132505E+01  0.63805074468E+01  0.10309988703E+02  0.12300962064E+02  0.51100000000E-03 0. -1.
        -11    1    3    3    0    0  0.37364851464E+02  0.86064059805E+01 -0.69178929984E+01  0.38962284232E+02  0.51100000000E-03 0.  1.
         12    1    3    3    0    0 -0.35172467523E+02 -0.15653476445E+02 -0.43590599754E+01  0.38744486064E+02  0.00000000000E+00 0. -1.
</event>
<event>
 7    1  0.2490895E-015  0.9000776E+02  0.7816164E-02  0.1186339E+00
        -11   -1    0    0    0    0  0.00000000000E+00  0.00000000000E+00  0.45593999997E+02  0.45594000000E+02  0.51100000000E-03 0.  1.
         11   -1    0    0    0    0 -0.00000000000E+00 -0.00000000000E+00 -0.45593999997E+02  0.45594000000E+02  0.51100000000E-03 0. -1.
    9900012    2    1    2    0    0 -0.11761274491E+00  0.35156807217E+00  0.11205070688E+01  0.90007758941E+02  0.90000020559E+02 0.  0.
         12    1    1    2    0    0  0.11761274491E+00 -0.35156807217E+00 -0.11205070688E+01  0.11802410594E+01  0.00000000000E+00 0. -1.
         11    1    3    3    0    0  0.26322187813E+02 -0.17750263779E+02 -0.12594509387E+02  0.34154810825E+02  0.51100000000E-03 0. -1.
        -11    1    3    3    0    0  0.88800874292E+01 -0.43719403532E+01 -0.36241066127E+01  0.10540586521E+02  0.51100000000E-03 0.  1.
        -12    1    3    3    0    0 -0.35319887987E+02  0.22473772205E+02  0.17339123069E+02  0.45312361595E+02  0.00000000000E+00 0.  1.
</event>
<event>
 7    1  0.2490895E-015  0.9000775E+02  0.7816164E-02  0.1186339E+00
        -11   -1    0    0    0    0  0.00000000000E+00  0.00000000000E+00  0.45593999997E+02  0.45594000000E+02  0.51100000000E-03 0.  1.
         11   -1    0    0    0    0 -0.00000000000E+00 -0.00000000000E+00 -0.45593999997E+02  0.45594000000E+02  0.51100000000E-03 0. -1.
    9900012    2    1    2    0    0 -0.14145682124E+00  0.10755219404E+01 -0.46501302170E+00  0.90007748083E+02  0.90000009558E+02 0.  0.
         12    1    1    2    0    0  0.14145682124E+00 -0.10755219404E+01  0.46501302170E+00  0.11802519167E+01  0.00000000000E+00 0. -1.
         11    1    3    3    0    0  0.14500323390E+02 -0.28257914212E+02 -0.14059739401E+02  0.34733922415E+02  0.51100000000E-03 0. -1.
        -11    1    3    3    0    0  0.11678155492E+02 -0.82879223702E+00 -0.27635319078E+01  0.12029269352E+02  0.51100000000E-03 0.  1.
        -12    1    3    3    0    0 -0.26319935703E+02  0.30162228390E+02  0.16358258287E+02  0.43244556317E+02  0.00000000000E+00 0.  1.
</event>
<event>
 7    1  0.2490895E-015  0.9000824E+02  0.7816164E-02  0.1186338E+00
        -11   -1    0    0    0    0  0.00000000000E+00  0.00000000000E+00  0.45593999997E+02  0.45594000000E+02  0.51100000000E-03 0.  1.
         11   -1    0    0    0    0 -0.00000000000E+00 -0.00000000000E+00 -0.45593999997E+02  0.45594000000E+02  0.51100000000E-03 0. -1.
    9900012    2    1    2    0    0  0.29429386576E+00 -0.10175399470E+01 -0.51945482017E+00  0.90008241663E+02  0.90000509652E+02 0.  0.
         12    1    1    2    0    0 -0.29429386576E+00  0.10175399470E+01  0.51945482017E+00  0.11797583369E+01  0.00000000000E+00 0. -1.
         11    1    3    3    0    0  0.87272331677E+01  0.36690852372E+01  0.38963035975E+01  0.10237576238E+02  0.51100000000E-03 0. -1.
        -11    1    3    3    0    0 -0.75556586423E+01  0.34608065173E+02 -0.15892370444E+02  0.38824909415E+02  0.51100000000E-03 0.  1.
         12    1    3    3    0    0 -0.87728065959E+00 -0.39294690357E+02  0.11476612026E+02  0.40945756010E+02  0.00000000000E+00 0. -1.
</event>
<event>
 7    1  0.2511470E-015  0.9000846E+02  0.7816164E-02  0.1186338E+00
        -11   -1    0    0    0    0  0.00000000000E+00  0.00000000000E+00  0.45593999997E+02  0.45594000000E+02  0.51100000000E-03 0.  1.
         11   -1    0    0    0    0 -0.00000000000E+00 -0.00000000000E+00 -0.45593999997E+02  0.45594000000E+02  0.51100000000E-03 0. -1.
    9900012    2    1    2    0    0  0.77825039792E+00  0.70944235100E-01  0.88352594973E+00  0.90008455651E+02  0.90000726463E+02 0.  0.
         12    1    1    2    0    0 -0.77825039792E+00 -0.70944235100E-01 -0.88352594973E+00  0.11795443486E+01  0.00000000000E+00 0. -1.
         11    1    3    3    0    0 -0.27780992439E+02 -0.15424075349E+02 -0.25497250766E+02  0.40740587111E+02  0.51100000000E-03 0. -1.
        -11    1    3    3    0    0  0.58799500942E+01  0.52944064264E+01 -0.49000540170E+01  0.93067224171E+01  0.51100000000E-03 0.  1.
        -12    1    3    3    0    0  0.22679292743E+02  0.10200613158E+02  0.31280830733E+02  0.39961146123E+02  0.00000000000E+00 0.  1.
</event>
<event>
 7    1  0.2490895E-015  0.9000773E+02  0.7816164E-02  0.1186339E+00
        -11   -1    0    0    0    0  0.00000000000E+00  0.00000000000E+00  0.45593999997E+02  0.45594000000E+02  0.51100000000E-03 0. -1.
         11   -1    0    0    0    0 -0.00000000000E+00 -0.00000000000E+00 -0.45593999997E+02  0.45594000000E+02  0.51100000000E-03 0.  1.
    9900012    2    1    2    0    0 -0.71176633976E-01  0.11081153396E+01 -0.40005250912E+00  0.90007734043E+02  0.89999995332E+02 0.  0.
         12    1    1    2    0    0  0.71176633976E-01 -0.11081153396E+01  0.40005250912E+00  0.11802659569E+01  0.00000000000E+00 0. -1.
         11    1    3    3    0    0  0.62805563774E+01  0.35375145136E+02 -0.51808021523E+01  0.36299958581E+02  0.51100000000E-03 0. -1.
        -11    1    3    3    0    0  0.15183897280E+01  0.57987690232E+01 -0.88257728639E+01  0.10668903245E+02  0.51100000000E-03 0.  1.
        -12    1    3    3    0    0 -0.78701227394E+01 -0.40065798819E+02  0.13606522507E+02  0.43038872217E+02  0.00000000000E+00 0.  1.
</event>
<event>
 7    1  0.2490895E-015  0.9000773E+02  0.7816164E-02  0.1186339E+00
        -11   -1    0    0    0    0  0.00000000000E+00  0.00000000000E+00  0.45593999997E+02  0.45594000000E+02  0.51100000000E-03 0. -1.
         11   -1    0    0    0    0 -0.00000000000E+00 -0.00000000000E+00 -0.45593999997E+02  0.45594000000E+02  0.51100000000E-03 0.  1.
    9900012    2    1    2    0    0 -0.10889110499E+01  0.25800485751E+00 -0.37515310237E+00  0.90007731543E+02  0.89999992799E+02 0.  0.
         12    1    1    2    0    0  0.10889110499E+01 -0.25800485751E+00  0.37515310237E+00  0.11802684573E+01  0.00000000000E+00 0. -1.
         11    1    3    3    0    0  0.29452748710E+02  0.18252876000E+02  0.13047675904E+02  0.37025312093E+02  0.51100000000E-03 0. -1.
        -11    1    3    3    0    0  0.56518672767E+01  0.41523739752E+01  0.28047218221E+01  0.75532958439E+01  0.51100000000E-03 0.  1.
        -12    1    3    3    0    0 -0.36193527037E+02 -0.22147245118E+02 -0.16227550828E+02  0.45429123605E+02  0.00000000000E+00 0.  1.
</event>
<event>
 7    1  0.2490895E-015  0.9000701E+02  0.7816164E-02  0.1186341E+00
        -11   -1    0    0    0    0  0.00000000000E+00  0.00000000000E+00  0.45593999997E+02  0.45594000000E+02  0.51100000000E-03 0.  1.
         11   -1    0    0    0    0 -0.00000000000E+00 -0.00000000000E+00 -0.45593999997E+02  0.45594000000E+02  0.51100000000E-03 0. -1.
    9900012    2    1    2    0    0 -0.48208301718E+00 -0.10343132463E+01 -0.30418452952E+00  0.90007010519E+02  0.89999262255E+02 0.  0.
         12    1    1    2    0    0  0.48208301718E+00  0.10343132463E+01  0.30418452952E+00  0.11809894813E+01  0.00000000000E+00 0. -1.
         11    1    3    3    0    0 -0.90177499517E+01 -0.45612734382E+01  0.21246743119E+01  0.10326629206E+02  0.51100000000E-03 0. -1.
        -11    1    3    3    0    0  0.24780721771E+02 -0.31618779099E+02  0.42256761166E+01  0.40394154306E+02  0.51100000000E-03 0.  1.
         12    1    3    3    0    0 -0.16245054836E+02  0.35145739290E+02 -0.66545349580E+01  0.39286227007E+02  0.00000000000E+00 0. -1.
</event>
<event>
 7    1  0.2490895E-015  0.9000771E+02  0.7816164E-02  0.1186339E+00
        -11   -1    0    0    0    0  0.00000000000E+00  0.00000000000E+00  0.45593999997E+02  0.45594000000E+02  0.51100000000E-03 0.  1.
         11   -1    0    0    0    0 -0.00000000000E+00 -0.00000000000E+00 -0.45593999997E+02  0.45594000000E+02  0.51100000000E-03 0. -1.
    9900012    2    1    2    0    0 -0.96846097525E+00  0.60053037316E+00  0.30746591028E+00  0.90007708224E+02  0.89999969173E+02 0.  0.
         12    1    1    2    0    0  0.96846097525E+00 -0.60053037316E+00 -0.30746591028E+00  0.11802917756E+01  0.00000000000E+00 0. -1.
         11    1    3    3    0    0 -0.29643656259E+02  0.17199148473E+02 -0.20230627548E+02  0.39797429010E+02  0.51100000000E-03 0. -1.
        -11    1    3    3    0    0  0.55654261848E+01  0.61330289425E+01 -0.43382757358E+01  0.93492592888E+01  0.51100000000E-03 0.  1.
        -12    1    3    3    0    0  0.23109769099E+02 -0.22731647042E+02  0.24876369194E+02  0.40861019925E+02  0.00000000000E+00 0.  1.
</event>
<event>
 7    1  0.2490895E-015  0.9000772E+02  0.7816164E-02  0.1186339E+00
        -11   -1    0    0    0    0  0.00000000000E+00  0.00000000000E+00  0.45593999997E+02  0.45594000000E+02  0.51100000000E-03 0.  1.
         11   -1    0    0    0    0 -0.00000000000E+00 -0.00000000000E+00 -0.45593999997E+02  0.45594000000E+02  0.51100000000E-03 0. -1.
    9900012    2    1    2    0    0 -0.72174424610E+00 -0.89915984623E+00  0.25232298139E+00  0.90007716105E+02  0.89999977158E+02 0.  0.
         12    1    1    2    0    0  0.72174424610E+00  0.89915984623E+00 -0.25232298139E+00  0.11802838950E+01  0.00000000000E+00 0. -1.
         11    1    3    3    0    0  0.21657261678E+02  0.26445903010E+02 -0.68825112681E+00  0.34189127794E+02  0.51100000000E-03 0. -1.
        -11    1    3    3    0    0 -0.24071485196E+00  0.10484651123E+02  0.53369174878E+01  0.11767265670E+02  0.51100000000E-03 0.  1.
        -12    1    3    3    0    0 -0.22138291072E+02 -0.37829713979E+02 -0.43963433796E+01  0.44051322642E+02  0.00000000000E+00 0.  1.
</event>
<event>
 7    1  0.2490895E-015  0.9000862E+02  0.7816164E-02  0.1186337E+00
        -11   -1    0    0    0    0  0.00000000000E+00  0.00000000000E+00  0.45593999997E+02  0.45594000000E+02  0.51100000000E-03 0. -1.
         11   -1    0    0    0    0 -0.00000000000E+00 -0.00000000000E+00 -0.45593999997E+02  0.45594000000E+02  0.51100000000E-03 0.  1.
    9900012    2    1    2    0    0 -0.74949859426E+00 -0.78887186962E+00  0.45483658240E+00  0.90008617413E+02  0.90000890359E+02 0.  0.
         12    1    1    2    0    0  0.74949859426E+00  0.78887186962E+00 -0.45483658240E+00  0.11793825868E+01  0.00000000000E+00 0. -1.
         11    1    3    3    0    0  0.57825456321E+01  0.55783658701E+01 -0.44434750897E+01  0.91815287889E+01  0.51100000000E-03 0. -1.
        -11    1    3    3    0    0  0.14015956114E+01 -0.34161778822E+02  0.27706552370E+02  0.44007324925E+02  0.51100000000E-03 0.  1.
         12    1    3    3    0    0 -0.79336398377E+01  0.27794541083E+02 -0.22808240698E+02  0.36819763699E+02  0.00000000000E+00 0. -1.
</event>
<event>
 7    1  0.2490895E-015  0.9000775E+02  0.7816164E-02  0.1186339E+00
        -11   -1    0    0    0    0  0.00000000000E+00  0.00000000000E+00  0.45593999997E+02  0.45594000000E+02  0.51100000000E-03 0.  1.
         11   -1    0    0    0    0 -0.00000000000E+00 -0.00000000000E+00 -0.45593999997E+02  0.45594000000E+02  0.51100000000E-03 0. -1.
    9900012    2    1    2    0    0 -0.48442788102E+00  0.92706291483E+00  0.54670073194E+00  0.90007746760E+02  0.90000008217E+02 0.  0.
         12    1    1    2    0    0  0.48442788102E+00 -0.92706291483E+00 -0.54670073194E+00  0.11802532399E+01  0.00000000000E+00 0. -1.
         11    1    3    3    0    0  0.12327532023E+02 -0.29411372022E+00 -0.31352632857E+02  0.33690386403E+02  0.51100000000E-03 0. -1.
        -11    1    3    3    0    0 -0.91348936025E+01 -0.62770003245E+01 -0.91837638270E+01  0.14394045036E+02  0.51100000000E-03 0.  1.
        -12    1    3    3    0    0 -0.36770663016E+01  0.74981769595E+01  0.41083097416E+02  0.41923315322E+02  0.00000000000E+00 0.  1.
</event>
<event>
 7    1  0.2490895E-015  0.9000775E+02  0.7816164E-02  0.1186339E+00
        -11   -1    0    0    0    0  0.00000000000E+00  0.00000000000E+00  0.45593999997E+02  0.45594000000E+02  0.51100000000E-03 0. -1.
         11   -1    0    0    0    0 -0.00000000000E+00 -0.00000000000E+00 -0.45593999997E+02  0.45594000000E+02  0.51100000000E-03 0.  1.
    9900012    2    1    2    0    0 -0.28525505288E+00 -0.11316973193E+01 -0.17575048983E+00  0.90007746848E+02  0.90000008307E+02 0.  0.
         12    1    1    2    0    0  0.28525505288E+00  0.11316973193E+01  0.17575048983E+00  0.11802531518E+01  0.00000000000E+00 0. -1.
         11    1    3    3    0    0 -0.21920158875E+02 -0.10213556094E+02 -0.31653078931E+02  0.39833748245E+02  0.51100000000E-03 0. -1.
        -11    1    3    3    0    0 -0.70339397526E+01  0.47813705152E+01  0.18121823702E+01  0.86960805913E+01  0.51100000000E-03 0.  1.
        -12    1    3    3    0    0  0.28668843574E+02  0.43004882592E+01  0.29665146071E+02  0.41477918012E+02  0.00000000000E+00 0.  1.
</event>
<event>
 7    1  0.2490895E-015  0.9000740E+02  0.7816164E-02  0.1186340E+00
        -11   -1    0    0    0    0  0.00000000000E+00  0.00000000000E+00  0.45593999997E+02  0.45594000000E+02  0.51100000000E-03 0. -1.
         11   -1    0    0    0    0 -0.00000000000E+00 -0.00000000000E+00 -0.45593999997E+02  0.45594000000E+02  0.51100000000E-03 0.  1.
    9900012    2    1    2    0    0 -0.16514061995E+00 -0.11364971988E+01  0.27371518559E+00  0.90007399598E+02  0.89999656472E+02 0.  0.
         12    1    1    2    0    0  0.16514061995E+00  0.11364971988E+01 -0.27371518559E+00  0.11806004023E+01  0.00000000000E+00 0. -1.
         11    1    3    3    0    0  0.31914190225E+02 -0.13168241492E+02 -0.14595889097E+00  0.34524475752E+02  0.51100000000E-03 0. -1.
        -11    1    3    3    0    0  0.92482598822E+01 -0.32300792793E+01 -0.51657786476E+01  0.11074700551E+02  0.51100000000E-03 0.  1.
        -12    1    3    3    0    0 -0.41327590727E+02  0.15261823573E+02  0.55854527241E+01  0.44408223295E+02  0.00000000000E+00 0.  1.
</event>
<event>
 7    1  0.2490895E-015  0.9000741E+02  0.7816164E-02  0.1186340E+00
        -11   -1    0    0    0    0  0.00000000000E+00  0.00000000000E+00  0.45593999997E+02  0.45594000000E+02  0.51100000000E-03 0.  1.
         11   -1    0    0    0    0 -0.00000000000E+00 -0.00000000000E+00 -0.45593999997E+02  0.45594000000E+02  0.51100000000E-03 0. -1.
    9900012    2    1    2    0    0 -0.50332360569E+00  0.42517444802E+00  0.97963467089E+00  0.90007410295E+02  0.89999667310E+02 0.  0.
         12    1    1    2    0    0  0.50332360569E+00 -0.42517444802E+00 -0.97963467089E+00  0.11805897051E+01  0.00000000000E+00 0. -1.
         11    1    3    3    0    0  0.31156235678E+02 -0.23210403479E+02 -0.13068494904E+02  0.40990479511E+02  0.51100000000E-03 0. -1.
        -11    1    3    3    0    0 -0.28359360520E+01 -0.41956138580E+01  0.65084595940E+01  0.82465602213E+01  0.51100000000E-03 0.  1.
        -12    1    3    3    0    0 -0.28823623231E+02  0.27831191785E+02  0.75396699807E+01  0.40770370562E+02  0.00000000000E+00 0.  1.
</event>
<event>
 7    1  0.2490895E-015  0.9000741E+02  0.7816164E-02  0.1186340E+00
        -11   -1    0    0    0    0  0.00000000000E+00  0.00000000000E+00  0.45593999997E+02  0.45594000000E+02  0.51100000000E-03 0.  1.
         11   -1    0    0    0    0 -0.00000000000E+00 -0.00000000000E+00 -0.45593999997E+02  0.45594000000E+02  0.51100000000E-03 0. -1.
    9900012    2    1    2    0    0  0.64414993067E+00 -0.78039525129E+00  0.60814601357E+00  0.90007412242E+02  0.89999669283E+02 0.  0.
         12    1    1    2    0    0 -0.64414993067E+00  0.78039525129E+00 -0.60814601357E+00  0.11805877584E+01  0.00000000000E+00 0. -1.
         11    1    3    3    0    0 -0.13235139868E+02  0.99407924443E+01 -0.28528604761E+02  0.32982867851E+02  0.51100000000E-03 0. -1.
        -11    1    3    3    0    0 -0.11016523649E+02  0.46850690621E+01 -0.41723375750E+01  0.12677620696E+02  0.51100000000E-03 0.  1.
        -12    1    3    3    0    0  0.24895813448E+02 -0.15406256758E+02  0.33309088350E+02  0.44346923695E+02  0.00000000000E+00 0.  1.
</event>
<event>
 7    1  0.2490895E-015  0.9000774E+02  0.7816164E-02  0.1186339E+00
        -11   -1    0    0    0    0  0.00000000000E+00  0.00000000000E+00  0.45593999997E+02  0.45594000000E+02  0.51100000000E-03 0.  1.
         11   -1    0    0    0    0 -0.00000000000E+00 -0.00000000000E+00 -0.45593999997E+02  0.45594000000E+02  0.51100000000E-03 0. -1.
    9900012    2    1    2    0    0 -0.18224397585E+00 -0.10198378924E+01 -0.56545361534E+00  0.90007737324E+02  0.89999998657E+02 0.  0.
         12    1    1    2    0    0  0.18224397585E+00  0.10198378924E+01  0.56545361534E+00  0.11802626761E+01  0.00000000000E+00 0. -1.
         11    1    3    3    0    0 -0.19373698711E+02 -0.14811820978E+02 -0.17503226796E+02  0.30018214320E+02  0.51100000000E-03 0. -1.
        -11    1    3    3    0    0 -0.10820163596E+02 -0.12821996361E+02  0.92117047936E+01  0.19139880783E+02  0.51100000000E-03 0.  1.
        -12    1    3    3    0    0  0.30011618331E+02  0.26613979447E+02  0.77260683869E+01  0.40849642221E+02  0.00000000000E+00 0.  1.
</event>
<event>
 7    1  0.2490895E-015  0.9000699E+02  0.7816164E-02  0.1186341E+00
        -11   -1    0    0    0    0  0.00000000000E+00  0.00000000000E+00  0.45593999997E+02  0.45594000000E+02  0.51100000000E-03 0.  1.
         11   -1    0    0    0    0 -0.00000000000E+00 -0.00000000000E+00 -0.45593999997E+02  0.45594000000E+02  0.51100000000E-03 0. -1.
    9900012    2    1    2    0    0  0.97305838181E+00  0.37393127848E+00  0.55508042299E+00  0.90006991325E+02  0.89999242807E+02 0.  0.
         12    1    1    2    0    0 -0.97305838181E+00 -0.37393127848E+00 -0.55508042299E+00  0.11810086754E+01  0.00000000000E+00 0. -1.
         11    1    3    3    0    0  0.31249705674E+01 -0.12882271026E+01  0.33204132248E+01  0.47381551642E+01  0.51100000000E-03 0. -1.
        -11    1    3    3    0    0  0.37464613727E+02  0.12280692995E+02  0.12721261383E+02  0.41427565625E+02  0.51100000000E-03 0.  1.
         12    1    3    3    0    0 -0.39616525913E+02 -0.10618534614E+02 -0.15486594184E+02  0.43841270536E+02  0.00000000000E+00 0. -1.
</event>
<event>
 7    1  0.2490895E-015  0.9000770E+02  0.7816164E-02  0.1186339E+00
        -11   -1    0    0    0    0  0.00000000000E+00  0.00000000000E+00  0.45593999997E+02  0.45594000000E+02  0.51100000000E-03 0.  1.
         11   -1    0    0    0    0 -0.00000000000E+00 -0.00000000000E+00 -0.45593999997E+02  0.45594000000E+02  0.51100000000E-03 0. -1.
    9900012    2    1    2    0    0  0.22258699508E+00 -0.79959938436E+00  0.83916289634E+00  0.90007704057E+02  0.89999964951E+02 0.  0.
         12    1    1    2    0    0 -0.22258699508E+00  0.79959938436E+00 -0.83916289634E+00  0.11802959427E+01  0.00000000000E+00 0. -1.
         11    1    3    3    0    0 -0.72230727080E+01  0.33631111941E+01 -0.73434945232E+01  0.10835599121E+02  0.51100000000E-03 0. -1.
        -11    1    3    3    0    0  0.33256469051E+02 -0.89302667217E+00  0.30319475542E+02  0.45011785432E+02  0.51100000000E-03 0.  1.
         12    1    3    3    0    0 -0.25810809347E+02 -0.32696839063E+01 -0.22136818123E+02  0.34160319504E+02  0.00000000000E+00 0. -1.
</event>
<event>
 7    1  0.2490895E-015  0.9000778E+02  0.7816164E-02  0.1186339E+00
        -11   -1    0    0    0    0  0.00000000000E+00  0.00000000000E+00  0.45593999997E+02  0.45594000000E+02  0.51100000000E-03 0.  1.
         11   -1    0    0    0    0 -0.00000000000E+00 -0.00000000000E+00 -0.45593999997E+02  0.45594000000E+02  0.51100000000E-03 0. -1.
    9900012    2    1    2    0    0 -0.45613216657E+00 -0.10861919171E+01 -0.71094929848E-01  0.90007778020E+02  0.90000039889E+02 0.  0.
         12    1    1    2    0    0  0.45613216657E+00  0.10861919171E+01  0.71094929848E-01  0.11802219805E+01  0.00000000000E+00 0. -1.
         11    1    3    3    0    0  0.63980465652E+00  0.54661203083E+01  0.84724277543E+01  0.10102962612E+02  0.51100000000E-03 0. -1.
        -11    1    3    3    0    0  0.93719898116E+01  0.57192835923E+01  0.33298296456E+02  0.35061673448E+02  0.51100000000E-03 0.  1.
         12    1    3    3    0    0 -0.10467926635E+02 -0.12271595818E+02 -0.41841819140E+02  0.44843141960E+02  0.00000000000E+00 0. -1.
</event>
<event>
 7    1  0.2490895E-015  0.9000757E+02  0.7816164E-02  0.1186339E+00
        -11   -1    0    0    0    0  0.00000000000E+00  0.00000000000E+00  0.45593999997E+02  0.45594000000E+02  0.51100000000E-03 0.  1.
         11   -1    0    0    0    0 -0.00000000000E+00 -0.00000000000E+00 -0.45593999997E+02  0.45594000000E+02  0.51100000000E-03 0. -1.
    9900012    2    1    2    0    0 -0.71422105155E+00  0.14242543777E+00  0.92898395848E+00  0.90007572996E+02  0.89999832160E+02 0.  0.
         12    1    1    2    0    0  0.71422105155E+00 -0.14242543777E+00 -0.92898395848E+00  0.11804270036E+01  0.00000000000E+00 0. -1.
         11    1    3    3    0    0  0.88867483714E+01  0.32882633018E+02 -0.23732582028E+02  0.41514784123E+02  0.51100000000E-03 0. -1.
        -11    1    3    3    0    0 -0.47279800276E+01 -0.68249112657E+01 -0.42790498989E+01  0.93404216835E+01  0.51100000000E-03 0.  1.
        -12    1    3    3    0    0 -0.48729893954E+01 -0.25915296314E+02  0.28940615886E+02  0.39152367190E+02  0.00000000000E+00 0.  1.
</event>
<event>
 7    1  0.2490895E-015  0.9000774E+02  0.7816164E-02  0.1186339E+00
        -11   -1    0    0    0    0  0.00000000000E+00  0.00000000000E+00  0.45593999997E+02  0.45594000000E+02  0.51100000000E-03 0.  1.
         11   -1    0    0    0    0 -0.00000000000E+00 -0.00000000000E+00 -0.45593999997E+02  0.45594000000E+02  0.51100000000E-03 0. -1.
    9900012    2    1    2    0    0 -0.53143280952E+00 -0.73986102316E-01  0.10512439080E+01  0.90007742177E+02  0.90000003574E+02 0.  0.
         12    1    1    2    0    0  0.53143280952E+00  0.73986102316E-01 -0.10512439080E+01  0.11802578229E+01  0.00000000000E+00 0. -1.
         11    1    3    3    0    0 -0.62090654548E+00  0.71917974176E+01  0.46981827567E+01  0.86128042187E+01  0.51100000000E-03 0. -1.
        -11    1    3    3    0    0  0.36439793683E+02 -0.52887444919E+01  0.15862190416E+02  0.40092873020E+02  0.51100000000E-03 0.  1.
         12    1    3    3    0    0 -0.36350319947E+02 -0.19770390280E+01 -0.19509129264E+02  0.41302064939E+02  0.00000000000E+00 0. -1.
</event>
<event>
 7    1  0.2490895E-015  0.9000745E+02  0.7816164E-02  0.1186340E+00
        -11   -1    0    0    0    0  0.00000000000E+00  0.00000000000E+00  0.45593999997E+02  0.45594000000E+02  0.51100000000E-03 0.  1.
         11   -1    0    0    0    0 -0.00000000000E+00 -0.00000000000E+00 -0.45593999997E+02  0.45594000000E+02  0.51100000000E-03 0. -1.
    9900012    2    1    2    0    0 -0.11078602211E+01 -0.30770027021E-01  0.40670379583E+00  0.90007445452E+02  0.89999702931E+02 0.  0.
         12    1    1    2    0    0  0.11078602211E+01  0.30770027021E-01 -0.40670379583E+00  0.11805545483E+01  0.00000000000E+00 0. -1.
         11    1    3    3    0    0 -0.80700019366E+01  0.44061681889E+00  0.87169352426E+01  0.11887137364E+02  0.51100000000E-03 0. -1.
        -11    1    3    3    0    0 -0.22510850124E+02 -0.24868060009E+02  0.10950241231E+02  0.35285500779E+02  0.51100000000E-03 0.  1.
         12    1    3    3    0    0  0.29472991840E+02  0.24396673163E+02 -0.19260472678E+02  0.42834807309E+02  0.00000000000E+00 0. -1.
</event>
<event>
 7    1  0.2490895E-015  0.9000776E+02  0.7816164E-02  0.1186339E+00
        -11   -1    0    0    0    0  0.00000000000E+00  0.00000000000E+00  0.45593999997E+02  0.45594000000E+02  0.51100000000E-03 0.  1.
         11   -1    0    0    0    0 -0.00000000000E+00 -0.00000000000E+00 -0.45593999997E+02  0.45594000000E+02  0.51100000000E-03 0. -1.
    9900012    2    1    2    0    0 -0.26377392321E+00 -0.15058551930E+00  0.11404895252E+01  0.90007758907E+02  0.90000020524E+02 0.  0.
         12    1    1    2    0    0  0.26377392321E+00  0.15058551930E+00 -0.11404895252E+01  0.11802410933E+01  0.00000000000E+00 0. -1.
         11    1    3    3    0    0  0.53629402142E+00 -0.80680222843E+01  0.76585293003E+00  0.81220148873E+01  0.51100000000E-03 0. -1.
        -11    1    3    3    0    0  0.10971659952E+01 -0.14617411095E+02  0.36461872520E+02  0.39298099551E+02  0.51100000000E-03 0.  1.
         12    1    3    3    0    0 -0.18972339398E+01  0.22534847860E+02 -0.36087235925E+02  0.42587644469E+02  0.00000000000E+00 0. -1.
</event>
<event>
 7    1  0.2490895E-015  0.9000775E+02  0.7816164E-02  0.1186339E+00
        -11   -1    0    0    0    0  0.00000000000E+00  0.00000000000E+00  0.45593999997E+02  0.45594000000E+02  0.51100000000E-03 0.  1.
         11   -1    0    0    0    0 -0.00000000000E+00 -0.00000000000E+00 -0.45593999997E+02  0.45594000000E+02  0.51100000000E-03 0. -1.
    9900012    2    1    2    0    0  0.11454392980E+01  0.68619159692E-01  0.27615174991E+00  0.90007745975E+02  0.90000007422E+02 0.  0.
         12    1    1    2    0    0 -0.11454392980E+01 -0.68619159692E-01 -0.27615174991E+00  0.11802540250E+01  0.00000000000E+00 0. -1.
         11    1    3    3    0    0 -0.19910383052E+02 -0.23943302479E+02 -0.56443632710E+01  0.31647494749E+02  0.51100000000E-03 0. -1.
        -11    1    3    3    0    0 -0.66276409076E+01 -0.11289991404E+02 -0.12892310951E+00  0.13092217205E+02  0.51100000000E-03 0.  1.
        -12    1    3    3    0    0  0.27683463257E+02  0.35301913043E+02  0.60494381305E+01  0.45268034021E+02  0.00000000000E+00 0.  1.
</event>
<event>
 7    1  0.2490895E-015  0.9000860E+02  0.7816164E-02  0.1186337E+00
        -11   -1    0    0    0    0  0.00000000000E+00  0.00000000000E+00  0.45593999997E+02  0.45594000000E+02  0.51100000000E-03 0.  1.
         11   -1    0    0    0    0 -0.00000000000E+00 -0.00000000000E+00 -0.45593999997E+02  0.45594000000E+02  0.51100000000E-03 0. -1.
    9900012    2    1    2    0    0 -0.67150634861E+00 -0.54163434352E+00  0.80416702300E+00  0.90008604757E+02  0.90000877536E+02 0.  0.
         12    1    1    2    0    0  0.67150634861E+00  0.54163434352E+00 -0.80416702300E+00  0.11793952430E+01  0.00000000000E+00 0. -1.
         11    1    3    3    0    0  0.89288861972E+01  0.32775201482E+02 -0.10675293512E+02  0.35607593751E+02  0.51100000000E-03 0. -1.
        -11    1    3    3    0    0 -0.24869062713E+01  0.29408051086E+01 -0.10654883663E+02  0.11329588855E+02  0.51100000000E-03 0.  1.
        -12    1    3    3    0    0 -0.71134862745E+01 -0.36257640934E+02  0.22134344198E+02  0.43071422151E+02  0.00000000000E+00 0.  1.
</event>
<event>
 7    1  0.2490895E-015  0.9000773E+02  0.7816164E-02  0.1186339E+00
        -11   -1    0    0    0    0  0.00000000000E+00  0.00000000000E+00  0.45593999997E+02  0.45594000000E+02  0.51100000000E-03 0.  1.
         11   -1    0    0    0    0 -0.00000000000E+00 -0.00000000000E+00 -0.45593999997E+02  0.45594000000E+02  0.51100000000E-03 0. -1.
    9900012    2    1    2    0    0 -0.98114234790E+00 -0.58210426437E+00 -0.30256925060E+00  0.90007731457E+02  0.89999992713E+02 0.  0.
         12    1    1    2    0    0  0.98114234790E+00  0.58210426437E+00  0.30256925060E+00  0.11802685427E+01  0.00000000000E+00 0. -1.
         11    1    3    3    0    0  0.25784056942E+02  0.22133660898E+02 -0.14108691876E+02  0.36793637002E+02  0.51100000000E-03 0. -1.
        -11    1    3    3    0    0  0.81718815108E+01  0.15451976895E+01  0.52271004626E+01  0.98229253704E+01  0.51100000000E-03 0.  1.
        -12    1    3    3    0    0 -0.34937080800E+02 -0.24260962852E+02  0.85790221623E+01  0.43391169085E+02  0.00000000000E+00 0.  1.
</event>
<event>
 7    1  0.2490895E-015  0.9000759E+02  0.7816164E-02  0.1186339E+00
        -11   -1    0    0    0    0  0.00000000000E+00  0.00000000000E+00  0.45593999997E+02  0.45594000000E+02  0.51100000000E-03 0. -1.
         11   -1    0    0    0    0 -0.00000000000E+00 -0.00000000000E+00 -0.45593999997E+02  0.45594000000E+02  0.51100000000E-03 0.  1.
    9900012    2    1    2    0    0 -0.11195611374E+00 -0.14792126710E+00 -0.11657451459E+01  0.90007586251E+02  0.89999845590E+02 0.  0.
         12    1    1    2    0    0  0.11195611374E+00  0.14792126710E+00  0.11657451459E+01  0.11804137486E+01  0.00000000000E+00 0. -1.
         11    1    3    3    0    0 -0.85589653470E+01 -0.10380536544E+01  0.36814507659E+02  0.37810599276E+02  0.51100000000E-03 0. -1.
        -11    1    3    3    0    0  0.97020892413E+00  0.78465318157E+01  0.40923823714E+01  0.89026378465E+01  0.51100000000E-03 0.  1.
        -12    1    3    3    0    0  0.74768003091E+01 -0.69563994284E+01 -0.42072635176E+02  0.43294349129E+02  0.00000000000E+00 0.  1.
</event>
<event>
 7    1  0.2490895E-015  0.9000773E+02  0.7816164E-02  0.1186339E+00
        -11   -1    0    0    0    0  0.00000000000E+00  0.00000000000E+00  0.45593999997E+02  0.45594000000E+02  0.51100000000E-03 0.  1.
         11   -1    0    0    0    0 -0.00000000000E+00 -0.00000000000E+00 -0.45593999997E+02  0.45594000000E+02  0.51100000000E-03 0. -1.
    9900012    2    1    2    0    0 -0.38431969306E+00 -0.15641612758E+00  0.11049342049E+01  0.90007725782E+02  0.89999986963E+02 0.  0.
         12    1    1    2    0    0  0.38431969306E+00  0.15641612758E+00 -0.11049342049E+01  0.11802742175E+01  0.00000000000E+00 0. -1.
         11    1    3    3    0    0 -0.22898239746E+02  0.24960096283E+02  0.93804938372E+01  0.35147253873E+02  0.51100000000E-03 0. -1.
        -11    1    3    3    0    0 -0.70398528568E+01  0.71532141875E+01  0.11402879637E+01  0.10100903839E+02  0.51100000000E-03 0.  1.
        -12    1    3    3    0    0  0.29553772910E+02 -0.32269726598E+02 -0.94158475960E+01  0.44759568071E+02  0.00000000000E+00 0.  1.
</event>
<event>
 7    1  0.2490895E-015  0.9000776E+02  0.7816164E-02  0.1186339E+00
        -11   -1    0    0    0    0  0.00000000000E+00  0.00000000000E+00  0.45593999997E+02  0.45594000000E+02  0.51100000000E-03 0.  1.
         11   -1    0    0    0    0 -0.00000000000E+00 -0.00000000000E+00 -0.45593999997E+02  0.45594000000E+02  0.51100000000E-03 0. -1.
    9900012    2    1    2    0    0  0.68004552779E-01  0.11676568116E+01  0.15787715370E+00  0.90007757548E+02  0.90000019148E+02 0.  0.
         12    1    1    2    0    0 -0.68004552779E-01 -0.11676568116E+01 -0.15787715370E+00  0.11802424516E+01  0.00000000000E+00 0. -1.
         11    1    3    3    0    0  0.60855959446E+01 -0.10158120154E+02  0.61608461109E+01  0.13348329788E+02  0.51100000000E-03 0. -1.
        -11    1    3    3    0    0  0.91122417439E+01  0.10606727518E+01  0.32642536711E+02  0.33907125792E+02  0.51100000000E-03 0.  1.
         12    1    3    3    0    0 -0.15129833136E+02  0.10265104214E+02 -0.38645505668E+02  0.42752301968E+02  0.00000000000E+00 0. -1.
</event>
<event>
 7    1  0.2490895E-015  0.9000743E+02  0.7816164E-02  0.1186340E+00
        -11   -1    0    0    0    0  0.00000000000E+00  0.00000000000E+00  0.45593999997E+02  0.45594000000E+02  0.51100000000E-03 0.  1.
         11   -1    0    0    0    0 -0.00000000000E+00 -0.00000000000E+00 -0.45593999997E+02  0.45594000000E+02  0.51100000000E-03 0. -1.
    9900012    2    1    2    0    0 -0.23985936431E+00 -0.63978607931E+00  0.96275372425E+00  0.90007426633E+02  0.89999683864E+02 0.  0.
         12    1    1    2    0    0  0.23985936431E+00  0.63978607931E+00 -0.96275372425E+00  0.11805733673E+01  0.00000000000E+00 0. -1.
         11    1    3    3    0    0 -0.11426642930E+01 -0.24388589467E+02 -0.16635736116E+02  0.29544148223E+02  0.51100000000E-03 0. -1.
        -11    1    3    3    0    0 -0.18975873678E+02 -0.45612940489E+01  0.16974389172E+02  0.25865403017E+02  0.51100000000E-03 0.  1.
         12    1    3    3    0    0  0.19878678606E+02  0.28310097436E+02  0.62410066817E+00  0.34597875392E+02  0.00000000000E+00 0. -1.
</event>
<event>
 7    1  0.2490895E-015  0.9000753E+02  0.7816164E-02  0.1186339E+00
        -11   -1    0    0    0    0  0.00000000000E+00  0.00000000000E+00  0.45593999997E+02  0.45594000000E+02  0.51100000000E-03 0. -1.
         11   -1    0    0    0    0 -0.00000000000E+00 -0.00000000000E+00 -0.45593999997E+02  0.45594000000E+02  0.51100000000E-03 0.  1.
    9900012    2    1    2    0    0  0.20643912286E+00  0.11354541702E+01 -0.24825250506E+00  0.90007532893E+02  0.89999791527E+02 0.  0.
         12    1    1    2    0    0 -0.20643912286E+00 -0.11354541702E+01  0.24825250506E+00  0.11804671069E+01  0.00000000000E+00 0. -1.
         11    1    3    3    0    0 -0.43385517752E+01 -0.31263337634E+01 -0.93864602475E+01  0.10802899173E+02  0.51100000000E-03 0. -1.
        -11    1    3    3    0    0 -0.14184693027E+02 -0.33264857285E+02 -0.51692494189E+00  0.36166606948E+02  0.51100000000E-03 0.  1.
         12    1    3    3    0    0  0.18729683925E+02  0.37526645219E+02  0.96551326843E+01  0.43038026772E+02  0.00000000000E+00 0. -1.
</event>
<event>
 7    1  0.2490895E-015  0.9000759E+02  0.7816164E-02  0.1186339E+00
        -11   -1    0    0    0    0  0.00000000000E+00  0.00000000000E+00  0.45593999997E+02  0.45594000000E+02  0.51100000000E-03 0.  1.
         11   -1    0    0    0    0 -0.00000000000E+00 -0.00000000000E+00 -0.45593999997E+02  0.45594000000E+02  0.51100000000E-03 0. -1.
    9900012    2    1    2    0    0 -0.22488647674E+00  0.48896073307E-01  0.11577585907E+01  0.90007589178E+02  0.89999848555E+02 0.  0.
         12    1    1    2    0    0  0.22488647674E+00 -0.48896073307E-01 -0.11577585907E+01  0.11804108216E+01  0.00000000000E+00 0. -1.
         11    1    3    3    0    0  0.52983215487E+01  0.23389571537E+01  0.87319208442E+01  0.10478042455E+02  0.51100000000E-03 0. -1.
        -11    1    3    3    0    0 -0.89590298420E+00 -0.28704131963E+02  0.24481032555E+02  0.37736597477E+02  0.51100000000E-03 0.  1.
         12    1    3    3    0    0 -0.46273050412E+01  0.26414070883E+02 -0.32055194808E+02  0.41792949247E+02  0.00000000000E+00 0. -1.
</event>
<event>
 7    1  0.2490895E-015  0.9000762E+02  0.7816164E-02  0.1186339E+00
        -11   -1    0    0    0    0  0.00000000000E+00  0.00000000000E+00  0.45593999997E+02  0.45594000000E+02  0.51100000000E-03 0.  1.
         11   -1    0    0    0    0 -0.00000000000E+00 -0.00000000000E+00 -0.45593999997E+02  0.45594000000E+02  0.51100000000E-03 0. -1.
    9900012    2    1    2    0    0 -0.11574204790E+01 -0.22636954153E+00 -0.49254003939E-01  0.90007622395E+02  0.89999882210E+02 0.  0.
         12    1    1    2    0    0  0.11574204790E+01  0.22636954153E+00  0.49254003939E-01  0.11803776054E+01  0.00000000000E+00 0. -1.
         11    1    3    3    0    0 -0.96210529986E+01  0.47899390342E+01  0.68181622305E+00  0.10769078437E+02  0.51100000000E-03 0. -1.
        -11    1    3    3    0    0 -0.56439811080E+01  0.12463327948E+02  0.34692817366E+02  0.37293171538E+02  0.51100000000E-03 0.  1.
         12    1    3    3    0    0  0.14107613628E+02 -0.17479636524E+02 -0.35423887593E+02  0.41945372420E+02  0.00000000000E+00 0. -1.
</event>
<event>
 7    1  0.2490895E-015  0.9000775E+02  0.7816164E-02  0.1186339E+00
        -11   -1    0    0    0    0  0.00000000000E+00  0.00000000000E+00  0.45593999997E+02  0.45594000000E+02  0.51100000000E-03 0.  1.
         11   -1    0    0    0    0 -0.00000000000E+00 -0.00000000000E+00 -0.45593999997E+02  0.45594000000E+02  0.51100000000E-03 0. -1.
    9900012    2    1    2    0    0 -0.69761229826E+00  0.30060157695E+00  0.90330447584E+00  0.90007752906E+02  0.90000014444E+02 0.  0.
         12    1    1    2    0    0  0.69761229826E+00 -0.30060157695E+00 -0.90330447584E+00  0.11802470940E+01  0.00000000000E+00 0. -1.
         11    1    3    3    0    0 -0.22909984176E+02  0.28407391831E+01 -0.26953899832E+02  0.35488729062E+02  0.51100000000E-03 0. -1.
        -11    1    3    3    0    0 -0.61033061696E+01 -0.40793368971E+01 -0.66150309086E+01  0.98817999323E+01  0.51100000000E-03 0.  1.
        -12    1    3    3    0    0  0.28315678047E+02  0.15391992909E+01  0.34472235216E+02  0.44637223912E+02  0.00000000000E+00 0.  1.
</event>
<event>
 7    1  0.2490895E-015  0.9000774E+02  0.7816164E-02  0.1186339E+00
        -11   -1    0    0    0    0  0.00000000000E+00  0.00000000000E+00  0.45593999997E+02  0.45594000000E+02  0.51100000000E-03 0.  1.
         11   -1    0    0    0    0 -0.00000000000E+00 -0.00000000000E+00 -0.45593999997E+02  0.45594000000E+02  0.51100000000E-03 0. -1.
    9900012    2    1    2    0    0 -0.58000891068E+00  0.60778131574E-02  0.10278947343E+01  0.90007739494E+02  0.90000000856E+02 0.  0.
         12    1    1    2    0    0  0.58000891068E+00 -0.60778131574E-02 -0.10278947343E+01  0.11802605056E+01  0.00000000000E+00 0. -1.
         11    1    3    3    0    0  0.46503523507E+00 -0.94941978147E+01  0.22158092756E+01  0.97604231937E+01  0.51100000000E-03 0. -1.
        -11    1    3    3    0    0 -0.71281042634E+01 -0.26054284349E+02  0.24095882385E+02  0.36197336249E+02  0.51100000000E-03 0.  1.
         12    1    3    3    0    0  0.60830601176E+01  0.35554559977E+02 -0.25283796926E+02  0.44049980052E+02  0.00000000000E+00 0. -1.
</event>
<event>
 7    1  0.2490895E-015  0.9000770E+02  0.7816164E-02  0.1186339E+00
        -11   -1    0    0    0    0  0.00000000000E+00  0.00000000000E+00  0.45593999997E+02  0.45594000000E+02  0.51100000000E-03 0.  1.
         11   -1    0    0    0    0 -0.00000000000E+00 -0.00000000000E+00 -0.45593999997E+02  0.45594000000E+02  0.51100000000E-03 0. -1.
    9900012    2    1    2    0    0  0.10486716342E+01 -0.43946533780E+00  0.31666295942E+00  0.90007696052E+02  0.89999956840E+02 0.  0.
         12    1    1    2    0    0 -0.10486716342E+01  0.43946533780E+00 -0.31666295942E+00  0.11803039479E+01  0.00000000000E+00 0. -1.
         11    1    3    3    0    0  0.90348881201E+01 -0.22618804561E+02 -0.28353363195E+02  0.37378506228E+02  0.51100000000E-03 0. -1.
        -11    1    3    3    0    0  0.19339249014E+01 -0.21036726518E+01 -0.74557148140E+01  0.79845593366E+01  0.51100000000E-03 0.  1.
        -12    1    3    3    0    0 -0.99201413873E+01  0.24283011875E+02  0.36125740968E+02  0.44644630488E+02  0.00000000000E+00 0.  1.
</event>
<event>
 7    1  0.2490895E-015  0.9000782E+02  0.7816164E-02  0.1186339E+00
        -11   -1    0    0    0    0  0.00000000000E+00  0.00000000000E+00  0.45593999997E+02  0.45594000000E+02  0.51100000000E-03 0.  1.
         11   -1    0    0    0    0 -0.00000000000E+00 -0.00000000000E+00 -0.45593999997E+02  0.45594000000E+02  0.51100000000E-03 0. -1.
    9900012    2    1    2    0    0 -0.23703910557E+00  0.20718699227E+00  0.11374184012E+01  0.90007815859E+02  0.90000078228E+02 0.  0.
         12    1    1    2    0    0  0.23703910557E+00 -0.20718699227E+00 -0.11374184012E+01  0.11801841410E+01  0.00000000000E+00 0. -1.
         11    1    3    3    0    0 -0.11796838628E+01 -0.45603753130E+01 -0.52944992451E+01  0.70866352756E+01  0.51100000000E-03 0. -1.
        -11    1    3    3    0    0 -0.17357148737E+02 -0.18876447001E+02 -0.27564187630E+02  0.37648045150E+02  0.51100000000E-03 0.  1.
         12    1    3    3    0    0  0.18299793494E+02  0.23644009306E+02  0.33996105276E+02  0.45273135433E+02  0.00000000000E+00 0. -1.
</event>
<event>
 7    1  0.2490895E-015  0.9000770E+02  0.7816164E-02  0.1186339E+00
        -11   -1    0    0    0    0  0.00000000000E+00  0.00000000000E+00  0.45593999997E+02  0.45594000000E+02  0.51100000000E-03 0. -1.
         11   -1    0    0    0    0 -0.00000000000E+00 -0.00000000000E+00 -0.45593999997E+02  0.45594000000E+02  0.51100000000E-03 0.  1.
    9900012    2    1    2    0    0  0.28691203452E+00 -0.80862918015E-01 -0.11420383803E+01  0.90007699619E+02  0.89999960454E+02 0.  0.
         12    1    1    2    0    0 -0.28691203452E+00  0.80862918015E-01  0.11420383803E+01  0.11803003809E+01  0.00000000000E+00 0. -1.
         11    1    3    3    0    0  0.10749455018E+02  0.25454344639E+02  0.20748053486E+02  0.34553670831E+02  0.51100000000E-03 0. -1.
        -11    1    3    3    0    0  0.73150694015E+01  0.39541320915E+01  0.67155962413E+01  0.10688528153E+02  0.51100000000E-03 0.  1.
        -12    1    3    3    0    0 -0.17777612385E+02 -0.29489339648E+02 -0.28605688108E+02  0.44765500635E+02  0.00000000000E+00 0.  1.
</event>
<event>
 7    1  0.2490895E-015  0.9000855E+02  0.7816164E-02  0.1186337E+00
        -11   -1    0    0    0    0  0.00000000000E+00  0.00000000000E+00  0.45593999997E+02  0.45594000000E+02  0.51100000000E-03 0.  1.
         11   -1    0    0    0    0 -0.00000000000E+00 -0.00000000000E+00 -0.45593999997E+02  0.45594000000E+02  0.51100000000E-03 0. -1.
    9900012    2    1    2    0    0 -0.49269202922E+00 -0.24138988641E+00  0.10440696602E+01  0.90008552685E+02  0.90000824777E+02 0.  0.
         12    1    1    2    0    0  0.49269202922E+00  0.24138988641E+00 -0.10440696602E+01  0.11794473148E+01  0.00000000000E+00 0. -1.
         11    1    3    3    0    0  0.15900846566E+02 -0.36992330589E+02  0.22936652415E+01  0.40330265861E+02  0.51100000000E-03 0. -1.
        -11    1    3    3    0    0 -0.36273859785E+01 -0.21466673787E+01 -0.71663168572E+01  0.83139766316E+01  0.51100000000E-03 0.  1.
        -12    1    3    3    0    0 -0.12766152617E+02  0.38897608081E+02  0.59167212759E+01  0.41364310193E+02  0.00000000000E+00 0.  1.
</event>
<event>
 7    1  0.2490895E-015  0.9000787E+02  0.7816164E-02  0.1186339E+00
        -11   -1    0    0    0    0  0.00000000000E+00  0.00000000000E+00  0.45593999997E+02  0.45594000000E+02  0.51100000000E-03 0. -1.
         11   -1    0    0    0    0 -0.00000000000E+00 -0.00000000000E+00 -0.45593999997E+02  0.45594000000E+02  0.51100000000E-03 0.  1.
    9900012    2    1    2    0    0 -0.60527602637E+00 -0.29894037531E-01 -0.10126526680E+01  0.90007865199E+02  0.90000128220E+02 0.  0.
         12    1    1    2    0    0  0.60527602637E+00  0.29894037531E-01  0.10126526680E+01  0.11801348006E+01  0.00000000000E+00 0. -1.
         11    1    3    3    0    0 -0.92483115421E+01  0.36468942432E+00 -0.37074388984E+00  0.92629215720E+01  0.51100000000E-03 0. -1.
        -11    1    3    3    0    0 -0.35749235488E+02  0.44751335011E+01 -0.17757441970E+01  0.36071982556E+02  0.51100000000E-03 0.  1.
         12    1    3    3    0    0  0.44392271003E+02 -0.48697169630E+01  0.11338354189E+01  0.44672961071E+02  0.00000000000E+00 0. -1.
</event>
<event>
 7    1  0.2490895E-015  0.9000773E+02  0.7816164E-02  0.1186339E+00
        -11   -1    0    0    0    0  0.00000000000E+00  0.00000000000E+00  0.45593999997E+02  0.45594000000E+02  0.51100000000E-03 0. -1.
         11   -1    0    0    0    0 -0.00000000000E+00 -0.00000000000E+00 -0.45593999997E+02  0.45594000000E+02  0.51100000000E-03 0.  1.
    9900012    2    1    2    0    0  0.90208761760E+00  0.56523268885E+00 -0.50970291087E+00  0.90007725829E+02  0.89999987010E+02 0.  0.
         12    1    1    2    0    0 -0.90208761760E+00 -0.56523268885E+00  0.50970291087E+00  0.11802741714E+01  0.00000000000E+00 0. -1.
         11    1    3    3    0    0  0.32718236256E+01 -0.46609537219E+01 -0.36034684642E+01  0.67390136272E+01  0.51100000000E-03 0. -1.
        -11    1    3    3    0    0 -0.19467090667E+02 -0.34623177149E+02 -0.82888051499E+00  0.39729322396E+02  0.51100000000E-03 0.  1.
         12    1    3    3    0    0  0.17097354659E+02  0.39849363559E+02  0.39226460683E+01  0.43539389805E+02  0.00000000000E+00 0. -1.
</event>
<event>
 7    1  0.2490895E-015  0.9000774E+02  0.7816164E-02  0.1186339E+00
        -11   -1    0    0    0    0  0.00000000000E+00  0.00000000000E+00  0.45593999997E+02  0.45594000000E+02  0.51100000000E-03 0.  1.
         11   -1    0    0    0    0 -0.00000000000E+00 -0.00000000000E+00 -0.45593999997E+02  0.45594000000E+02  0.51100000000E-03 0. -1.
    9900012    2    1    2    0    0 -0.15140073721E-01 -0.30543683557E+00  0.11399562662E+01  0.90007736821E+02  0.89999998147E+02 0.  0.
         12    1    1    2    0    0  0.15140073721E-01  0.30543683557E+00 -0.11399562662E+01  0.11802631788E+01  0.00000000000E+00 0. -1.
         11    1    3    3    0    0  0.34080243550E+01 -0.80995072341E+01  0.31807383967E+01  0.93452525086E+01  0.51100000000E-03 0. -1.
        -11    1    3    3    0    0  0.26309324970E+02 -0.19953794918E+02  0.15371508140E+02  0.36422764513E+02  0.51100000000E-03 0.  1.
         12    1    3    3    0    0 -0.29732489399E+02  0.27747865316E+02 -0.17412290270E+02  0.44239719800E+02  0.00000000000E+00 0. -1.
</event>
<event>
 7    1  0.2490895E-015  0.9000762E+02  0.7816164E-02  0.1186339E+00
        -11   -1    0    0    0    0  0.00000000000E+00  0.00000000000E+00  0.45593999997E+02  0.45594000000E+02  0.51100000000E-03 0. -1.
         11   -1    0    0    0    0 -0.00000000000E+00 -0.00000000000E+00 -0.45593999997E+02  0.45594000000E+02  0.51100000000E-03 0.  1.
    9900012    2    1    2    0    0  0.91630242516E+00 -0.61440283012E+00 -0.41976013464E+00  0.90007618899E+02  0.89999878669E+02 0.  0.
         12    1    1    2    0    0 -0.91630242516E+00  0.61440283012E+00  0.41976013464E+00  0.11803811006E+01  0.00000000000E+00 0. -1.
         11    1    3    3    0    0  0.44627724604E+01 -0.10019849010E+02  0.68185467166E+01  0.12915351013E+02  0.51100000000E-03 0. -1.
        -11    1    3    3    0    0  0.65388721802E+01 -0.12717729757E+02 -0.36409532522E+02  0.39117151715E+02  0.51100000000E-03 0.  1.
         12    1    3    3    0    0 -0.10085342215E+02  0.22123175936E+02  0.29171225671E+02  0.37975116171E+02  0.00000000000E+00 0. -1.
</event>
<event>
 7    1  0.2490895E-015  0.9000765E+02  0.7816164E-02  0.1186339E+00
        -11   -1    0    0    0    0  0.00000000000E+00  0.00000000000E+00  0.45593999997E+02  0.45594000000E+02  0.51100000000E-03 0. -1.
         11   -1    0    0    0    0 -0.00000000000E+00 -0.00000000000E+00 -0.45593999997E+02  0.45594000000E+02  0.51100000000E-03 0.  1.
    9900012    2    1    2    0    0 -0.75351914531E+00  0.53015791768E-02 -0.90851273807E+00  0.90007654879E+02  0.89999915124E+02 0.  0.
         12    1    1    2    0    0  0.75351914531E+00 -0.53015791768E-02  0.90851273807E+00  0.11803451209E+01  0.00000000000E+00 0. -1.
         11    1    3    3    0    0  0.31878726931E+02  0.13691981252E+02  0.15827176049E+02  0.38134277013E+02  0.51100000000E-03 0. -1.
        -11    1    3    3    0    0  0.55952551328E+01  0.12279012446E+01  0.28575865117E+01  0.64015953012E+01  0.51100000000E-03 0.  1.
        -12    1    3    3    0    0 -0.38227501209E+02 -0.14914580918E+02 -0.19593275299E+02  0.45471782565E+02  0.00000000000E+00 0.  1.
</event>
<event>
 7    1  0.2490895E-015  0.9000771E+02  0.7816164E-02  0.1186339E+00
        -11   -1    0    0    0    0  0.00000000000E+00  0.00000000000E+00  0.45593999997E+02  0.45594000000E+02  0.51100000000E-03 0.  1.
         11   -1    0    0    0    0 -0.00000000000E+00 -0.00000000000E+00 -0.45593999997E+02  0.45594000000E+02  0.51100000000E-03 0. -1.
    9900012    2    1    2    0    0  0.11043468212E+01  0.23610284505E+00  0.34316565275E+00  0.90007708036E+02  0.89999968982E+02 0.  0.
         12    1    1    2    0    0 -0.11043468212E+01 -0.23610284505E+00 -0.34316565275E+00  0.11802919640E+01  0.00000000000E+00 0. -1.
         11    1    3    3    0    0 -0.32618590677E+02 -0.24560902445E+02 -0.43057699528E+01  0.41057886475E+02  0.51100000000E-03 0. -1.
        -11    1    3    3    0    0 -0.80802518088E+00  0.26710626809E+01  0.73375229063E+01  0.78502689890E+01  0.51100000000E-03 0.  1.
        -12    1    3    3    0    0  0.34530962679E+02  0.22125942609E+02 -0.26885873007E+01  0.41099552572E+02  0.00000000000E+00 0.  1.
</event>
<event>
 7    1  0.2490895E-015  0.9000750E+02  0.7816164E-02  0.1186340E+00
        -11   -1    0    0    0    0  0.00000000000E+00  0.00000000000E+00  0.45593999997E+02  0.45594000000E+02  0.51100000000E-03 0.  1.
         11   -1    0    0    0    0 -0.00000000000E+00 -0.00000000000E+00 -0.45593999997E+02  0.45594000000E+02  0.51100000000E-03 0. -1.
    9900012    2    1    2    0    0 -0.11999690880E+00  0.11728088714E+01 -0.60733702409E-01  0.90007504981E+02  0.89999763247E+02 0.  0.
         12    1    1    2    0    0  0.11999690880E+00 -0.11728088714E+01  0.60733702409E-01  0.11804950189E+01  0.00000000000E+00 0. -1.
         11    1    3    3    0    0 -0.16582413916E+01  0.23900549100E+01  0.12015415953E+02  0.12362538079E+02  0.51100000000E-03 0. -1.
        -11    1    3    3    0    0 -0.32437332823E+02  0.12673171146E+02 -0.19907353899E+02  0.40113496071E+02  0.51100000000E-03 0.  1.
         12    1    3    3    0    0  0.33975577305E+02 -0.13890417184E+02  0.78312042441E+01  0.37531470830E+02  0.00000000000E+00 0. -1.
</event>
<event>
 7    1  0.2490895E-015  0.9000791E+02  0.7816164E-02  0.1186339E+00
        -11   -1    0    0    0    0  0.00000000000E+00  0.00000000000E+00  0.45593999997E+02  0.45594000000E+02  0.51100000000E-03 0. -1.
         11   -1    0    0    0    0 -0.00000000000E+00 -0.00000000000E+00 -0.45593999997E+02  0.45594000000E+02  0.51100000000E-03 0.  1.
    9900012    2    1    2    0    0 -0.68505790258E-01 -0.93636036995E+00 -0.71495149245E+00  0.90007907028E+02  0.90000170601E+02 0.  0.
         12    1    1    2    0    0  0.68505790258E-01  0.93636036995E+00  0.71495149245E+00  0.11800929719E+01  0.00000000000E+00 0. -1.
         11    1    3    3    0    0 -0.69876397514E+00  0.77536892286E+01 -0.47648794593E+01  0.91275431672E+01  0.51100000000E-03 0. -1.
        -11    1    3    3    0    0 -0.77054000680E+01  0.38110452930E+01 -0.36571983179E+02  0.37568699876E+02  0.51100000000E-03 0.  1.
         12    1    3    3    0    0  0.83356582528E+01 -0.12501094892E+02  0.40621911146E+02  0.43311663985E+02  0.00000000000E+00 0. -1.
</event>
<event>
 7    1  0.2490895E-015  0.9000770E+02  0.7816164E-02  0.1186339E+00
        -11   -1    0    0    0    0  0.00000000000E+00  0.00000000000E+00  0.45593999997E+02  0.45594000000E+02  0.51100000000E-03 0. -1.
         11   -1    0    0    0    0 -0.00000000000E+00 -0.00000000000E+00 -0.45593999997E+02  0.45594000000E+02  0.51100000000E-03 0.  1.
    9900012    2    1    2    0    0  0.77079712681E+00  0.39213582298E+00 -0.80324836438E+00  0.90007700610E+02  0.89999961458E+02 0.  0.
         12    1    1    2    0    0 -0.77079712681E+00 -0.39213582298E+00  0.80324836438E+00  0.11802993897E+01  0.00000000000E+00 0. -1.
         11    1    3    3    0    0 -0.49686932543E+01 -0.35457294215E+01 -0.44970694744E+01  0.75818034731E+01  0.51100000000E-03 0. -1.
        -11    1    3    3    0    0 -0.23020296233E+02 -0.16970969974E+02  0.27467248927E+02  0.39653469261E+02  0.51100000000E-03 0.  1.
         12    1    3    3    0    0  0.28759786614E+02  0.20908835219E+02 -0.23773427817E+02  0.42772427877E+02  0.00000000000E+00 0. -1.
</event>
<event>
 7    1  0.2490895E-015  0.9000773E+02  0.7816164E-02  0.1186339E+00
        -11   -1    0    0    0    0  0.00000000000E+00  0.00000000000E+00  0.45593999997E+02  0.45594000000E+02  0.51100000000E-03 0.  1.
         11   -1    0    0    0    0 -0.00000000000E+00 -0.00000000000E+00 -0.45593999997E+02  0.45594000000E+02  0.51100000000E-03 0. -1.
    9900012    2    1    2    0    0 -0.10673070784E+01  0.15762460702E+00  0.47857786778E+00  0.90007734482E+02  0.89999995778E+02 0.  0.
         12    1    1    2    0    0  0.10673070784E+01 -0.15762460702E+00 -0.47857786778E+00  0.11802655175E+01  0.00000000000E+00 0. -1.
         11    1    3    3    0    0 -0.52059877232E+01 -0.10741733856E+01 -0.31535987613E+01  0.61807234241E+01  0.51100000000E-03 0. -1.
        -11    1    3    3    0    0 -0.12389552041E+01  0.35555341248E+02  0.24594599223E+02  0.43250567770E+02  0.51100000000E-03 0.  1.
         12    1    3    3    0    0  0.53776358489E+01 -0.34323543255E+02 -0.20962422594E+02  0.40576443288E+02  0.00000000000E+00 0. -1.
</event>
<event>
 7    1  0.2490895E-015  0.9000746E+02  0.7816164E-02  0.1186340E+00
        -11   -1    0    0    0    0  0.00000000000E+00  0.00000000000E+00  0.45593999997E+02  0.45594000000E+02  0.51100000000E-03 0.  1.
         11   -1    0    0    0    0 -0.00000000000E+00 -0.00000000000E+00 -0.45593999997E+02  0.45594000000E+02  0.51100000000E-03 0. -1.
    9900012    2    1    2    0    0  0.22842716913E+00  0.15204557190E-01  0.11581249765E+01  0.90007464693E+02  0.89999722426E+02 0.  0.
         12    1    1    2    0    0 -0.22842716913E+00 -0.15204557190E-01 -0.11581249765E+01  0.11805353072E+01  0.00000000000E+00 0. -1.
         11    1    3    3    0    0  0.23061820385E+01 -0.11794733769E+02 -0.35587972011E+02  0.37562454292E+02  0.51100000000E-03 0. -1.
        -11    1    3    3    0    0  0.52191599561E+01 -0.67948883513E+01 -0.20449892780E+01  0.88086389279E+01  0.51100000000E-03 0.  1.
        -12    1    3    3    0    0 -0.72969148255E+01  0.18604826678E+02  0.38791086266E+02  0.43636371473E+02  0.00000000000E+00 0.  1.
</event>
<event>
 7    1  0.2490895E-015  0.9000739E+02  0.7816164E-02  0.1186340E+00
        -11   -1    0    0    0    0  0.00000000000E+00  0.00000000000E+00  0.45593999997E+02  0.45594000000E+02  0.51100000000E-03 0. -1.
         11   -1    0    0    0    0 -0.00000000000E+00 -0.00000000000E+00 -0.45593999997E+02  0.45594000000E+02  0.51100000000E-03 0.  1.
    9900012    2    1    2    0    0 -0.11683612794E+01 -0.66220165547E-02 -0.16951193084E+00  0.90007387352E+02  0.89999644064E+02 0.  0.
         12    1    1    2    0    0  0.11683612794E+01  0.66220165547E-02  0.16951193084E+00  0.11806126481E+01  0.00000000000E+00 0. -1.
         11    1    3    3    0    0  0.61370833749E+01  0.50707706046E+01  0.63365894171E+00  0.79861148746E+01  0.51100000000E-03 0. -1.
        -11    1    3    3    0    0 -0.52819243600E+01  0.38064223148E+02  0.36568848989E+01  0.38602546758E+02  0.51100000000E-03 0.  1.
         12    1    3    3    0    0 -0.20235202943E+01 -0.43141615769E+02 -0.44600557715E+01  0.43418725719E+02  0.00000000000E+00 0. -1.
</event>
<event>
 7    1  0.2490895E-015  0.9000771E+02  0.7816164E-02  0.1186339E+00
        -11   -1    0    0    0    0  0.00000000000E+00  0.00000000000E+00  0.45593999997E+02  0.45594000000E+02  0.51100000000E-03 0.  1.
         11   -1    0    0    0    0 -0.00000000000E+00 -0.00000000000E+00 -0.45593999997E+02  0.45594000000E+02  0.51100000000E-03 0. -1.
    9900012    2    1    2    0    0  0.61272528665E+00 -0.85760661050E+00  0.53119346906E+00  0.90007708563E+02  0.89999969516E+02 0.  0.
         12    1    1    2    0    0 -0.61272528665E+00  0.85760661050E+00 -0.53119346906E+00  0.11802914373E+01  0.00000000000E+00 0. -1.
         11    1    3    3    0    0  0.12585794858E+02  0.18378744679E+02 -0.82004713078E+01  0.23736642941E+02  0.51100000000E-03 0. -1.
        -11    1    3    3    0    0 -0.29723857889E+02  0.50422623354E+01 -0.88663761818E+01  0.31425224966E+02  0.51100000000E-03 0.  1.
         12    1    3    3    0    0  0.17750788318E+02 -0.24278613625E+02  0.17598040959E+02  0.34845840656E+02  0.00000000000E+00 0. -1.
</event>
<event>
 7    1  0.2490895E-015  0.9000774E+02  0.7816164E-02  0.1186339E+00
        -11   -1    0    0    0    0  0.00000000000E+00  0.00000000000E+00  0.45593999997E+02  0.45594000000E+02  0.51100000000E-03 0. -1.
         11   -1    0    0    0    0 -0.00000000000E+00 -0.00000000000E+00 -0.45593999997E+02  0.45594000000E+02  0.51100000000E-03 0.  1.
    9900012    2    1    2    0    0 -0.42304693521E-01  0.88384194828E+00 -0.78106190188E+00  0.90007735635E+02  0.89999996945E+02 0.  0.
         12    1    1    2    0    0  0.42304693521E-01 -0.88384194828E+00  0.78106190188E+00  0.11802643650E+01  0.00000000000E+00 0. -1.
         11    1    3    3    0    0 -0.23109589320E+02 -0.15960085718E+02  0.15942110928E+02  0.32294401307E+02  0.51100000000E-03 0. -1.
        -11    1    3    3    0    0 -0.10582714124E+02  0.15299359552E+02 -0.15149660882E+02  0.23991174753E+02  0.51100000000E-03 0.  1.
        -12    1    3    3    0    0  0.33649998750E+02  0.15445681139E+01 -0.15735119483E+01  0.33722159575E+02  0.00000000000E+00 0.  1.
</event>
<event>
 7    1  0.2490895E-015  0.9000768E+02  0.7816164E-02  0.1186339E+00
        -11   -1    0    0    0    0  0.00000000000E+00  0.00000000000E+00  0.45593999997E+02  0.45594000000E+02  0.51100000000E-03 0. -1.
         11   -1    0    0    0    0 -0.00000000000E+00 -0.00000000000E+00 -0.45593999997E+02  0.45594000000E+02  0.51100000000E-03 0.  1.
    9900012    2    1    2    0    0 -0.28104148458E-01 -0.11128793724E+01 -0.39225617747E+00  0.90007680022E+02  0.89999940599E+02 0.  0.
         12    1    1    2    0    0  0.28104148458E-01  0.11128793724E+01  0.39225617747E+00  0.11803199776E+01  0.00000000000E+00 0. -1.
         11    1    3    3    0    0  0.34968769930E+02 -0.51989624220E+00 -0.14676252006E+01  0.35003415355E+02  0.51100000000E-03 0. -1.
        -11    1    3    3    0    0  0.83093937518E+01  0.49610160503E+01 -0.50494448539E+01  0.10915795819E+02  0.51100000000E-03 0.  1.
        -12    1    3    3    0    0 -0.43306267831E+02 -0.55539991806E+01  0.61248138770E+01  0.44088468848E+02  0.00000000000E+00 0.  1.
</event>
<event>
 7    1  0.2490895E-015  0.9000731E+02  0.7816164E-02  0.1186340E+00
        -11   -1    0    0    0    0  0.00000000000E+00  0.00000000000E+00  0.45593999997E+02  0.45594000000E+02  0.51100000000E-03 0. -1.
         11   -1    0    0    0    0 -0.00000000000E+00 -0.00000000000E+00 -0.45593999997E+02  0.45594000000E+02  0.51100000000E-03 0.  1.
    9900012    2    1    2    0    0  0.86727961262E-01 -0.11655928965E+01  0.16701492537E+00  0.90007312690E+02  0.89999568416E+02 0.  0.
         12    1    1    2    0    0 -0.86727961262E-01  0.11655928965E+01 -0.16701492537E+00  0.11806873104E+01  0.00000000000E+00 0. -1.
         11    1    3    3    0    0  0.55696629964E+01 -0.82600343276E+01 -0.26735264120E+01  0.10314894896E+02  0.51100000000E-03 0. -1.
        -11    1    3    3    0    0  0.19232314359E+02  0.86873633891E+01 -0.31156478441E+02  0.37630816459E+02  0.51100000000E-03 0.  1.
         12    1    3    3    0    0 -0.24715249394E+02 -0.15929219580E+01  0.33997019779E+02  0.42061601334E+02  0.00000000000E+00 0. -1.
</event>
<event>
 7    1  0.2490895E-015  0.9000772E+02  0.7816164E-02  0.1186339E+00
        -11   -1    0    0    0    0  0.00000000000E+00  0.00000000000E+00  0.45593999997E+02  0.45594000000E+02  0.51100000000E-03 0.  1.
         11   -1    0    0    0    0 -0.00000000000E+00 -0.00000000000E+00 -0.45593999997E+02  0.45594000000E+02  0.51100000000E-03 0. -1.
    9900012    2    1    2    0    0  0.45034309291E+00  0.10648923138E+01 -0.23716779227E+00  0.90007723294E+02  0.89999984441E+02 0.  0.
         12    1    1    2    0    0 -0.45034309291E+00 -0.10648923138E+01  0.23716779227E+00  0.11802767061E+01  0.00000000000E+00 0. -1.
         11    1    3    3    0    0 -0.32800913355E+02  0.16271421171E+02 -0.26700617301E+01  0.36712236294E+02  0.51100000000E-03 0. -1.
        -11    1    3    3    0    0 -0.59675807076E+01 -0.81388901533E+01 -0.70765175397E+01  0.12326015300E+02  0.51100000000E-03 0.  1.
        -12    1    3    3    0    0  0.39218837155E+02 -0.70676387037E+01  0.95094114776E+01  0.40969471699E+02  0.00000000000E+00 0.  1.
</event>
<event>
 7    1  0.2490895E-015  0.9000760E+02  0.7816164E-02  0.1186339E+00
        -11   -1    0    0    0    0  0.00000000000E+00  0.00000000000E+00  0.45593999997E+02  0.45594000000E+02  0.51100000000E-03 0. -1.
         11   -1    0    0    0    0 -0.00000000000E+00 -0.00000000000E+00 -0.45593999997E+02  0.45594000000E+02  0.51100000000E-03 0.  1.
    9900012    2    1    2    0    0  0.52720644231E+00 -0.10334951941E+01 -0.21745188475E+00  0.90007599953E+02  0.89999859472E+02 0.  0.
         12    1    1    2    0    0 -0.52720644231E+00  0.10334951941E+01  0.21745188475E+00  0.11804000471E+01  0.00000000000E+00 0. -1.
         11    1    3    3    0    0 -0.35014538330E+02 -0.73523271191E+00 -0.33666747214E+01  0.35183703054E+02  0.51100000000E-03 0. -1.
        -11    1    3    3    0    0 -0.90760712631E+01 -0.11074815128E+01 -0.33298487383E+01  0.97308518514E+01  0.51100000000E-03 0.  1.
        -12    1    3    3    0    0  0.44617816036E+02  0.80921903061E+00  0.64790715749E+01  0.45093045048E+02  0.00000000000E+00 0.  1.
</event>
<event>
 7    1  0.2490895E-015  0.9000758E+02  0.7816164E-02  0.1186339E+00
        -11   -1    0    0    0    0  0.00000000000E+00  0.00000000000E+00  0.45593999997E+02  0.45594000000E+02  0.51100000000E-03 0.  1.
         11   -1    0    0    0    0 -0.00000000000E+00 -0.00000000000E+00 -0.45593999997E+02  0.45594000000E+02  0.51100000000E-03 0. -1.
    9900012    2    1    2    0    0 -0.11098312289E+01  0.36585197827E+00  0.16678534204E+00  0.90007580423E+02  0.89999839685E+02 0.  0.
         12    1    1    2    0    0  0.11098312289E+01 -0.36585197827E+00 -0.16678534204E+00  0.11804195767E+01  0.00000000000E+00 0. -1.
         11    1    3    3    0    0  0.10498063044E+01  0.84045059349E+01 -0.34475031492E+02  0.35500219858E+02  0.51100000000E-03 0. -1.
        -11    1    3    3    0    0 -0.96796228532E+01  0.38415512526E+01 -0.56392853670E+01  0.11842894676E+02  0.51100000000E-03 0.  1.
        -12    1    3    3    0    0  0.75199853199E+01 -0.11880205209E+02  0.40281102202E+02  0.42664465889E+02  0.00000000000E+00 0.  1.
</event>
<event>
 7    1  0.2490895E-015  0.9000780E+02  0.7816164E-02  0.1186339E+00
        -11   -1    0    0    0    0  0.00000000000E+00  0.00000000000E+00  0.45593999997E+02  0.45594000000E+02  0.51100000000E-03 0.  1.
         11   -1    0    0    0    0 -0.00000000000E+00 -0.00000000000E+00 -0.45593999997E+02  0.45594000000E+02  0.51100000000E-03 0. -1.
    9900012    2    1    2    0    0  0.10972300466E+01  0.49457474456E-01  0.43186915149E+00  0.90007800533E+02  0.90000062700E+02 0.  0.
         12    1    1    2    0    0 -0.10972300466E+01 -0.49457474456E-01 -0.43186915149E+00  0.11801994666E+01  0.00000000000E+00 0. -1.
         11    1    3    3    0    0  0.20265360640E+02  0.22092231912E+02  0.57677491067E+01  0.30528977755E+02  0.51100000000E-03 0. -1.
        -11    1    3    3    0    0 -0.23446944957E+02  0.10971105375E+02 -0.98276506041E+00  0.25905408864E+02  0.51100000000E-03 0.  1.
        -12    1    3    3    0    0  0.42788143637E+01 -0.33013879812E+02 -0.43531148948E+01  0.33573413915E+02  0.00000000000E+00 0.  1.
</event>
<event>
 7    1  0.2490895E-015  0.9000796E+02  0.7816164E-02  0.1186339E+00
        -11   -1    0    0    0    0  0.00000000000E+00  0.00000000000E+00  0.45593999997E+02  0.45594000000E+02  0.51100000000E-03 0.  1.
         11   -1    0    0    0    0 -0.00000000000E+00 -0.00000000000E+00 -0.45593999997E+02  0.45594000000E+02  0.51100000000E-03 0. -1.
    9900012    2    1    2    0    0 -0.43307663640E+00  0.40625683309E+00  0.10197530565E+01  0.90007959203E+02  0.90000223464E+02 0.  0.
         12    1    1    2    0    0  0.43307663640E+00 -0.40625683309E+00 -0.10197530565E+01  0.11800407975E+01  0.00000000000E+00 0. -1.
         11    1    3    3    0    0 -0.51425713976E+01  0.22044424663E+02  0.30665923076E+01  0.22843088407E+02  0.51100000000E-03 0. -1.
        -11    1    3    3    0    0 -0.77399301667E+01  0.21136866056E+02  0.80503848138E+00  0.22523803250E+02  0.51100000000E-03 0.  1.
        -12    1    3    3    0    0  0.12449424928E+02 -0.42775033886E+02 -0.28518777325E+01  0.44641067545E+02  0.00000000000E+00 0.  1.
</event>
<event>
 7    1  0.2490895E-015  0.9000780E+02  0.7816164E-02  0.1186339E+00
        -11   -1    0    0    0    0  0.00000000000E+00  0.00000000000E+00  0.45593999997E+02  0.45594000000E+02  0.51100000000E-03 0. -1.
         11   -1    0    0    0    0 -0.00000000000E+00 -0.00000000000E+00 -0.45593999997E+02  0.45594000000E+02  0.51100000000E-03 0.  1.
    9900012    2    1    2    0    0 -0.17489199026E+00 -0.10669309436E+01 -0.47322972727E+00  0.90007798652E+02  0.90000060794E+02 0.  0.
         12    1    1    2    0    0  0.17489199026E+00  0.10669309436E+01  0.47322972727E+00  0.11802013478E+01  0.00000000000E+00 0. -1.
         11    1    3    3    0    0 -0.34940907542E+01 -0.89243085868E+01  0.26362323237E+02  0.28050383967E+02  0.51100000000E-03 0. -1.
        -11    1    3    3    0    0  0.12457160229E+02 -0.14527924338E+02  0.69942090278E+01  0.20375484945E+02  0.51100000000E-03 0.  1.
        -12    1    3    3    0    0 -0.91379614652E+01  0.22385301981E+02 -0.33829761992E+02  0.41581929741E+02  0.00000000000E+00 0.  1.
</event>
<event>
 7    1  0.2490895E-015  0.9000766E+02  0.7816164E-02  0.1186339E+00
        -11   -1    0    0    0    0  0.00000000000E+00  0.00000000000E+00  0.45593999997E+02  0.45594000000E+02  0.51100000000E-03 0.  1.
         11   -1    0    0    0    0 -0.00000000000E+00 -0.00000000000E+00 -0.45593999997E+02  0.45594000000E+02  0.51100000000E-03 0. -1.
    9900012    2    1    2    0    0 -0.11136477555E+01 -0.37747464698E+00  0.10244300789E+00  0.90007664030E+02  0.89999924395E+02 0.  0.
         12    1    1    2    0    0  0.11136477555E+01  0.37747464698E+00 -0.10244300789E+00  0.11803359701E+01  0.00000000000E+00 0. -1.
         11    1    3    3    0    0  0.60789158988E+01  0.27115242648E+00  0.40249109249E+01  0.72956596931E+01  0.51100000000E-03 0. -1.
        -11    1    3    3    0    0  0.12524083057E+02  0.35682698491E+02  0.99603177566E+01  0.39106464403E+02  0.51100000000E-03 0.  1.
         12    1    3    3    0    0 -0.19716646711E+02 -0.36331325565E+02 -0.13882785674E+02  0.43605539934E+02  0.00000000000E+00 0. -1.
</event>
<event>
 7    1  0.2490895E-015  0.9000770E+02  0.7816164E-02  0.1186339E+00
        -11   -1    0    0    0    0  0.00000000000E+00  0.00000000000E+00  0.45593999997E+02  0.45594000000E+02  0.51100000000E-03 0.  1.
         11   -1    0    0    0    0 -0.00000000000E+00 -0.00000000000E+00 -0.45593999997E+02  0.45594000000E+02  0.51100000000E-03 0. -1.
    9900012    2    1    2    0    0 -0.11207692713E+01 -0.18559329009E+00  0.32022425584E+00  0.90007698258E+02  0.89999959075E+02 0.  0.
         12    1    1    2    0    0  0.11207692713E+01  0.18559329009E+00 -0.32022425584E+00  0.11803017423E+01  0.00000000000E+00 0. -1.
         11    1    3    3    0    0  0.25828575857E+02 -0.26274466674E+02 -0.30577981986E+01  0.36970434944E+02  0.51100000000E-03 0. -1.
        -11    1    3    3    0    0  0.70369702267E+01  0.53590655381E+00  0.75226749676E+01  0.10314881712E+02  0.51100000000E-03 0.  1.
        -12    1    3    3    0    0 -0.33986315355E+02  0.25552966831E+02 -0.41446525132E+01  0.42722381602E+02  0.00000000000E+00 0.  1.
</event>
<event>
 7    1  0.2490895E-015  0.9000768E+02  0.7816164E-02  0.1186339E+00
        -11   -1    0    0    0    0  0.00000000000E+00  0.00000000000E+00  0.45593999997E+02  0.45594000000E+02  0.51100000000E-03 0.  1.
         11   -1    0    0    0    0 -0.00000000000E+00 -0.00000000000E+00 -0.45593999997E+02  0.45594000000E+02  0.51100000000E-03 0. -1.
    9900012    2    1    2    0    0  0.98795215929E+00  0.63657960098E+00 -0.10894493583E+00  0.90007681375E+02  0.89999941969E+02 0.  0.
         12    1    1    2    0    0 -0.98795215929E+00 -0.63657960098E+00  0.10894493583E+00  0.11803186250E+01  0.00000000000E+00 0. -1.
         11    1    3    3    0    0  0.22183803509E+02 -0.13185711700E+02  0.32705714102E+02  0.41661107359E+02  0.51100000000E-03 0. -1.
        -11    1    3    3    0    0  0.35833995809E+01 -0.30804047079E+01 -0.85367214115E+01  0.97573181992E+01  0.51100000000E-03 0.  1.
        -12    1    3    3    0    0 -0.24779250931E+02  0.16902696009E+02 -0.24277937627E+02  0.38589255817E+02  0.00000000000E+00 0.  1.
</event>
<event>
 7    1  0.2490895E-015  0.9000778E+02  0.7816164E-02  0.1186339E+00
        -11   -1    0    0    0    0  0.00000000000E+00  0.00000000000E+00  0.45593999997E+02  0.45594000000E+02  0.51100000000E-03 0. -1.
         11   -1    0    0    0    0 -0.00000000000E+00 -0.00000000000E+00 -0.45593999997E+02  0.45594000000E+02  0.51100000000E-03 0.  1.
    9900012    2    1    2    0    0  0.16061462077E+00 -0.80083328601E+00 -0.85193830999E+00  0.90007775491E+02  0.90000037327E+02 0.  0.
         12    1    1    2    0    0 -0.16061462077E+00  0.80083328601E+00  0.85193830999E+00  0.11802245093E+01  0.00000000000E+00 0. -1.
         11    1    3    3    0    0 -0.32089428125E+02  0.24040372239E+02 -0.16169310378E+02  0.43233291491E+02  0.51100000000E-03 0. -1.
        -11    1    3    3    0    0  0.86049336058E+01  0.13757062766E+01  0.14012608741E+01  0.88261533194E+01  0.51100000000E-03 0.  1.
        -12    1    3    3    0    0  0.23645109140E+02 -0.26216911802E+02  0.13916111194E+02  0.37948330680E+02  0.00000000000E+00 0.  1.
</event>
<event>
 7    1  0.2490895E-015  0.9000771E+02  0.7816164E-02  0.1186339E+00
        -11   -1    0    0    0    0  0.00000000000E+00  0.00000000000E+00  0.45593999997E+02  0.45594000000E+02  0.51100000000E-03 0. -1.
         11   -1    0    0    0    0 -0.00000000000E+00 -0.00000000000E+00 -0.45593999997E+02  0.45594000000E+02  0.51100000000E-03 0.  1.
    9900012    2    1    2    0    0 -0.66996280382E+00 -0.53656824420E+00 -0.81014655029E+00  0.90007706362E+02  0.89999967286E+02 0.  0.
         12    1    1    2    0    0  0.66996280382E+00  0.53656824420E+00  0.81014655029E+00  0.11802936381E+01  0.00000000000E+00 0. -1.
         11    1    3    3    0    0 -0.37920503919E+02  0.92700316012E+00  0.23974732151E+02  0.44873285308E+02  0.51100000000E-03 0. -1.
        -11    1    3    3    0    0  0.83579080914E+01  0.16107398979E+01 -0.39678519723E+01  0.93911107021E+01  0.51100000000E-03 0.  1.
        -12    1    3    3    0    0  0.28892633024E+02 -0.30743113022E+01 -0.20817026729E+02  0.35743310352E+02  0.00000000000E+00 0.  1.
</event>
<event>
 7    1  0.2490895E-015  0.9000778E+02  0.7816164E-02  0.1186339E+00
        -11   -1    0    0    0    0  0.00000000000E+00  0.00000000000E+00  0.45593999997E+02  0.45594000000E+02  0.51100000000E-03 0.  1.
         11   -1    0    0    0    0 -0.00000000000E+00 -0.00000000000E+00 -0.45593999997E+02  0.45594000000E+02  0.51100000000E-03 0. -1.
    9900012    2    1    2    0    0  0.43259592023E+00 -0.93075484273E+00 -0.58264127038E+00  0.90007781945E+02  0.90000043867E+02 0.  0.
         12    1    1    2    0    0 -0.43259592023E+00  0.93075484273E+00  0.58264127038E+00  0.11802180550E+01  0.00000000000E+00 0. -1.
         11    1    3    3    0    0  0.68602214746E+01  0.28379072643E+01  0.61326935129E+01  0.96294489098E+01  0.51100000000E-03 0. -1.
        -11    1    3    3    0    0  0.27723074113E+02 -0.24186847189E+02  0.85329658863E+01  0.37767498226E+02  0.51100000000E-03 0.  1.
         12    1    3    3    0    0 -0.34150699667E+02  0.20418185082E+02 -0.15248300670E+02  0.42610834809E+02  0.00000000000E+00 0. -1.
</event>
<event>
 7    1  0.2490895E-015  0.9000777E+02  0.7816164E-02  0.1186339E+00
        -11   -1    0    0    0    0  0.00000000000E+00  0.00000000000E+00  0.45593999997E+02  0.45594000000E+02  0.51100000000E-03 0.  1.
         11   -1    0    0    0    0 -0.00000000000E+00 -0.00000000000E+00 -0.45593999997E+02  0.45594000000E+02  0.51100000000E-03 0. -1.
    9900012    2    1    2    0    0  0.40716478323E+00 -0.83616240714E+00  0.72662601044E+00  0.90007772865E+02  0.90000034667E+02 0.  0.
         12    1    1    2    0    0 -0.40716478323E+00  0.83616240714E+00 -0.72662601044E+00  0.11802271353E+01  0.00000000000E+00 0. -1.
         11    1    3    3    0    0 -0.14542693730E+01  0.12504939949E+02  0.15421133985E+01  0.12683317252E+02  0.51100000000E-03 0. -1.
        -11    1    3    3    0    0  0.60016189496E+01 -0.68433836236E+00  0.36866783581E+02  0.37358365608E+02  0.51100000000E-03 0.  1.
         12    1    3    3    0    0 -0.41401847934E+01 -0.12656763993E+02 -0.37682270969E+02  0.39966090005E+02  0.00000000000E+00 0. -1.
</event>
<event>
 7    1  0.2490895E-015  0.9000772E+02  0.7816164E-02  0.1186339E+00
        -11   -1    0    0    0    0  0.00000000000E+00  0.00000000000E+00  0.45593999997E+02  0.45594000000E+02  0.51100000000E-03 0. -1.
         11   -1    0    0    0    0 -0.00000000000E+00 -0.00000000000E+00 -0.45593999997E+02  0.45594000000E+02  0.51100000000E-03 0.  1.
    9900012    2    1    2    0    0 -0.90760659479E+00  0.10945147176E+00 -0.74655288668E+00  0.90007715895E+02  0.89999976945E+02 0.  0.
         12    1    1    2    0    0  0.90760659479E+00 -0.10945147176E+00  0.74655288668E+00  0.11802841049E+01  0.00000000000E+00 0. -1.
         11    1    3    3    0    0 -0.10172239245E+02  0.83996717246E+01  0.19809930965E+01  0.13339912678E+02  0.51100000000E-03 0. -1.
        -11    1    3    3    0    0  0.14461544295E+02  0.13455451839E+02 -0.33344590998E+02  0.38756253646E+02  0.51100000000E-03 0.  1.
         12    1    3    3    0    0 -0.51969116440E+01 -0.21745672092E+02  0.30617045015E+02  0.37911549571E+02  0.00000000000E+00 0. -1.
</event>
<event>
 7    1  0.2490895E-015  0.9000771E+02  0.7816164E-02  0.1186339E+00
        -11   -1    0    0    0    0  0.00000000000E+00  0.00000000000E+00  0.45593999997E+02  0.45594000000E+02  0.51100000000E-03 0.  1.
         11   -1    0    0    0    0 -0.00000000000E+00 -0.00000000000E+00 -0.45593999997E+02  0.45594000000E+02  0.51100000000E-03 0. -1.
    9900012    2    1    2    0    0  0.58260499690E+00  0.38257183984E+00  0.95251842073E+00  0.90007711418E+02  0.89999972409E+02 0.  0.
         12    1    1    2    0    0 -0.58260499690E+00 -0.38257183984E+00 -0.95251842073E+00  0.11802885820E+01  0.00000000000E+00 0. -1.
         11    1    3    3    0    0 -0.20082895756E+02  0.33930229838E+02 -0.16037530578E+02  0.42565074722E+02  0.51100000000E-03 0. -1.
        -11    1    3    3    0    0  0.14507340349E+01 -0.15353480869E+02 -0.98451170352E+00  0.15453260743E+02  0.51100000000E-03 0.  1.
        -12    1    3    3    0    0  0.19214766718E+02 -0.18194177129E+02  0.17974560702E+02  0.31989375953E+02  0.00000000000E+00 0.  1.
</event>
<event>
 7    1  0.2490895E-015  0.9000769E+02  0.7816164E-02  0.1186339E+00
        -11   -1    0    0    0    0  0.00000000000E+00  0.00000000000E+00  0.45593999997E+02  0.45594000000E+02  0.51100000000E-03 0. -1.
         11   -1    0    0    0    0 -0.00000000000E+00 -0.00000000000E+00 -0.45593999997E+02  0.45594000000E+02  0.51100000000E-03 0.  1.
    9900012    2    1    2    0    0 -0.36426207564E+00  0.83782191227E+00 -0.74733306150E+00  0.90007686855E+02  0.89999947521E+02 0.  0.
         12    1    1    2    0    0  0.36426207564E+00 -0.83782191227E+00  0.74733306150E+00  0.11803131454E+01  0.00000000000E+00 0. -1.
         11    1    3    3    0    0  0.22960631842E+02 -0.13390692895E+01  0.31433732421E+02  0.38949496213E+02  0.51100000000E-03 0. -1.
        -11    1    3    3    0    0  0.90187636346E+00 -0.11373381514E+02 -0.13111370019E+02  0.17380311047E+02  0.51100000000E-03 0.  1.
        -12    1    3    3    0    0 -0.24226770281E+02  0.13550272716E+02 -0.19069695463E+02  0.33677879594E+02  0.00000000000E+00 0.  1.
</event>
<event>
 7    1  0.2490895E-015  0.9000794E+02  0.7816164E-02  0.1186339E+00
        -11   -1    0    0    0    0  0.00000000000E+00  0.00000000000E+00  0.45593999997E+02  0.45594000000E+02  0.51100000000E-03 0. -1.
         11   -1    0    0    0    0 -0.00000000000E+00 -0.00000000000E+00 -0.45593999997E+02  0.45594000000E+02  0.51100000000E-03 0.  1.
    9900012    2    1    2    0    0  0.20152874188E+00  0.12998883457E+00 -0.11554391968E+01  0.90007936159E+02  0.90000200116E+02 0.  0.
         12    1    1    2    0    0 -0.20152874188E+00 -0.12998883457E+00  0.11554391968E+01  0.11800638409E+01  0.00000000000E+00 0. -1.
         11    1    3    3    0    0  0.57188281874E+00 -0.16897614229E+01 -0.10482319804E+02  0.10633032134E+02  0.51100000000E-03 0. -1.
        -11    1    3    3    0    0  0.10215281885E+02  0.30460703442E+01 -0.33545254336E+02  0.35198218950E+02  0.51100000000E-03 0.  1.
         12    1    3    3    0    0 -0.10585635962E+02 -0.12263200867E+01  0.42872134943E+02  0.44176685075E+02  0.00000000000E+00 0. -1.
</event>
<event>
 7    1  0.2490895E-015  0.9000785E+02  0.7816164E-02  0.1186339E+00
        -11   -1    0    0    0    0  0.00000000000E+00  0.00000000000E+00  0.45593999997E+02  0.45594000000E+02  0.51100000000E-03 0. -1.
         11   -1    0    0    0    0 -0.00000000000E+00 -0.00000000000E+00 -0.45593999997E+02  0.45594000000E+02  0.51100000000E-03 0.  1.
    9900012    2    1    2    0    0  0.62866849931E+00 -0.75342257666E+00  0.65565408800E+00  0.90007850881E+02  0.90000113712E+02 0.  0.
         12    1    1    2    0    0 -0.62866849931E+00  0.75342257666E+00 -0.65565408800E+00  0.11801491195E+01  0.00000000000E+00 0. -1.
         11    1    3    3    0    0 -0.21189461716E+02  0.24082053830E+02 -0.14370771128E+02  0.35149077763E+02  0.51100000000E-03 0. -1.
        -11    1    3    3    0    0 -0.74083828075E+01  0.60255208436E+01 -0.61237333815E+00  0.95690145065E+01  0.51100000000E-03 0.  1.
        -12    1    3    3    0    0  0.29226513023E+02 -0.30860997251E+02  0.15638798554E+02  0.45289758611E+02  0.00000000000E+00 0.  1.
</event>
<event>
 7    1  0.3171429E-015  0.9000769E+02  0.7816164E-02  0.1186339E+00
        -11   -1    0    0    0    0  0.00000000000E+00  0.00000000000E+00  0.45593999997E+02  0.45594000000E+02  0.51100000000E-03 0. -1.
         11   -1    0    0    0    0 -0.00000000000E+00 -0.00000000000E+00 -0.45593999997E+02  0.45594000000E+02  0.51100000000E-03 0.  1.
    9900012    2    1    2    0    0 -0.73307136452E+00  0.49109194085E+00 -0.78394551990E+00  0.90007688389E+02  0.89999949076E+02 0.  0.
         12    1    1    2    0    0  0.73307136452E+00 -0.49109194085E+00  0.78394551990E+00  0.11803116106E+01  0.00000000000E+00 0. -1.
         11    1    3    3    0    0 -0.42072240349E+02  0.52157804992E+01  0.11336220147E+02  0.43883797256E+02  0.51100000000E-03 0. -1.
        -11    1    3    3    0    0  0.52804300937E+01 -0.36096895668E+01 -0.73346485183E+01  0.97318996034E+01  0.51100000000E-03 0.  1.
        -12    1    3    3    0    0  0.36058738890E+02 -0.11149989915E+01 -0.47855171484E+01  0.36391991530E+02  0.00000000000E+00 0.  1.
</event>
<event>
 7    1  0.2490895E-015  0.9000801E+02  0.7816164E-02  0.1186339E+00
        -11   -1    0    0    0    0  0.00000000000E+00  0.00000000000E+00  0.45593999997E+02  0.45594000000E+02  0.51100000000E-03 0. -1.
         11   -1    0    0    0    0 -0.00000000000E+00 -0.00000000000E+00 -0.45593999997E+02  0.45594000000E+02  0.51100000000E-03 0.  1.
    9900012    2    1    2    0    0  0.18826436452E-01 -0.88116613556E+00 -0.78457834786E+00  0.90008012128E+02  0.90000277088E+02 0.  0.
         12    1    1    2    0    0 -0.18826436452E-01  0.88116613556E+00  0.78457834786E+00  0.11799878716E+01  0.00000000000E+00 0. -1.
         11    1    3    3    0    0  0.60131787790E+01 -0.16366668402E+01 -0.63752261777E+01  0.89151840391E+01  0.51100000000E-03 0. -1.
        -11    1    3    3    0    0  0.18902155595E+02  0.12959418815E+02 -0.28871220761E+02  0.36861706562E+02  0.51100000000E-03 0.  1.
         12    1    3    3    0    0 -0.24896507938E+02 -0.12203918110E+02  0.34461868591E+02  0.44231121527E+02  0.00000000000E+00 0. -1.
</event>
<event>
 7    1  0.2490895E-015  0.9000767E+02  0.7816164E-02  0.1186339E+00
        -11   -1    0    0    0    0  0.00000000000E+00  0.00000000000E+00  0.45593999997E+02  0.45594000000E+02  0.51100000000E-03 0.  1.
         11   -1    0    0    0    0 -0.00000000000E+00 -0.00000000000E+00 -0.45593999997E+02  0.45594000000E+02  0.51100000000E-03 0. -1.
    9900012    2    1    2    0    0  0.43280732590E+00  0.55719437288E+00  0.94624872097E+00  0.90007671913E+02  0.89999932382E+02 0.  0.
         12    1    1    2    0    0 -0.43280732590E+00 -0.55719437288E+00 -0.94624872097E+00  0.11803280868E+01  0.00000000000E+00 0. -1.
         11    1    3    3    0    0 -0.38225085292E+02  0.15814488299E+02 -0.47428193386E+01  0.41638317945E+02  0.51100000000E-03 0. -1.
        -11    1    3    3    0    0  0.20630726755E+01  0.55592664280E+01  0.53376680412E+00  0.59537063536E+01  0.51100000000E-03 0.  1.
        -12    1    3    3    0    0  0.36594819942E+02 -0.20816560354E+02  0.51553012555E+01  0.42415647615E+02  0.00000000000E+00 0.  1.
</event>
<event>
 7    1  0.2490895E-015  0.9000772E+02  0.7816164E-02  0.1186339E+00
        -11   -1    0    0    0    0  0.00000000000E+00  0.00000000000E+00  0.45593999997E+02  0.45594000000E+02  0.51100000000E-03 0.  1.
         11   -1    0    0    0    0 -0.00000000000E+00 -0.00000000000E+00 -0.45593999997E+02  0.45594000000E+02  0.51100000000E-03 0. -1.
    9900012    2    1    2    0    0 -0.63279666388E+00  0.49127683758E+00  0.86675845921E+00  0.90007722585E+02  0.89999983723E+02 0.  0.
         12    1    1    2    0    0  0.63279666388E+00 -0.49127683758E+00 -0.86675845921E+00  0.11802774147E+01  0.00000000000E+00 0. -1.
         11    1    3    3    0    0 -0.10616038453E+01  0.11603464089E+02  0.13293231973E+02  0.17677030242E+02  0.51100000000E-03 0. -1.
        -11    1    3    3    0    0  0.18871466612E+02 -0.18119586375E+02  0.20978783043E+02  0.33534474809E+02  0.51100000000E-03 0.  1.
         12    1    3    3    0    0 -0.18442659430E+02  0.70073991228E+01 -0.33405256558E+02  0.38796217535E+02  0.00000000000E+00 0. -1.
</event>
<event>
 7    1  0.2490895E-015  0.9000786E+02  0.7816164E-02  0.1186339E+00
        -11   -1    0    0    0    0  0.00000000000E+00  0.00000000000E+00  0.45593999997E+02  0.45594000000E+02  0.51100000000E-03 0.  1.
         11   -1    0    0    0    0 -0.00000000000E+00 -0.00000000000E+00 -0.45593999997E+02  0.45594000000E+02  0.51100000000E-03 0. -1.
    9900012    2    1    2    0    0 -0.59899437074E+00 -0.90196891907E+00  0.46944601468E+00  0.90007863674E+02  0.90000126674E+02 0.  0.
         12    1    1    2    0    0  0.59899437074E+00  0.90196891907E+00 -0.46944601468E+00  0.11801363260E+01  0.00000000000E+00 0. -1.
         11    1    3    3    0    0 -0.39263338161E+01  0.12048091400E+02  0.37688433304E+01  0.13220317089E+02  0.51100000000E-03 0. -1.
        -11    1    3    3    0    0 -0.62285980368E+01  0.31056226911E+02 -0.74929978220E+00  0.31683530641E+02  0.51100000000E-03 0.  1.
         12    1    3    3    0    0  0.95559374822E+01 -0.44006287230E+02 -0.25500975336E+01  0.45104015945E+02  0.00000000000E+00 0. -1.
</event>
<event>
 7    1  0.2490895E-015  0.9000777E+02  0.7816164E-02  0.1186339E+00
        -11   -1    0    0    0    0  0.00000000000E+00  0.00000000000E+00  0.45593999997E+02  0.45594000000E+02  0.51100000000E-03 0.  1.
         11   -1    0    0    0    0 -0.00000000000E+00 -0.00000000000E+00 -0.45593999997E+02  0.45594000000E+02  0.51100000000E-03 0. -1.
    9900012    2    1    2    0    0  0.66721430985E+00  0.43259224872E+00  0.87214834803E+00  0.90007765392E+02  0.90000027095E+02 0.  0.
         12    1    1    2    0    0 -0.66721430985E+00 -0.43259224872E+00 -0.87214834803E+00  0.11802346080E+01  0.00000000000E+00 0. -1.
         11    1    3    3    0    0  0.25894975490E+01 -0.77464784389E+01  0.77131675007E+01  0.11234161247E+02  0.51100000000E-03 0. -1.
        -11    1    3    3    0    0  0.37417392217E+02  0.85003285544E+01 -0.88615829393E+01  0.39380762795E+02  0.51100000000E-03 0.  1.
         12    1    3    3    0    0 -0.39339675456E+02 -0.32125786677E+00  0.20205637866E+01  0.39392841350E+02  0.00000000000E+00 0. -1.
</event>
<event>
 7    1  0.2490895E-015  0.9000776E+02  0.7816164E-02  0.1186339E+00
        -11   -1    0    0    0    0  0.00000000000E+00  0.00000000000E+00  0.45593999997E+02  0.45594000000E+02  0.51100000000E-03 0.  1.
         11   -1    0    0    0    0 -0.00000000000E+00 -0.00000000000E+00 -0.45593999997E+02  0.45594000000E+02  0.51100000000E-03 0. -1.
    9900012    2    1    2    0    0  0.36539275082E+00 -0.74594129853E+00  0.83845970350E+00  0.90007764872E+02  0.90000026568E+02 0.  0.
         12    1    1    2    0    0 -0.36539275082E+00  0.74594129853E+00 -0.83845970350E+00  0.11802351281E+01  0.00000000000E+00 0. -1.
         11    1    3    3    0    0 -0.61581247498E+01 -0.24711337367E+02 -0.33612068780E+02  0.42170414544E+02  0.51100000000E-03 0. -1.
        -11    1    3    3    0    0  0.86650930196E+01  0.10757958926E+01  0.37986991777E+01  0.95221473179E+01  0.51100000000E-03 0.  1.
        -12    1    3    3    0    0 -0.21415755190E+01  0.22889600176E+02  0.30651829305E+02  0.38315203010E+02  0.00000000000E+00 0.  1.
</event>
<event>
 7    1  0.2490895E-015  0.9000783E+02  0.7816164E-02  0.1186339E+00
        -11   -1    0    0    0    0  0.00000000000E+00  0.00000000000E+00  0.45593999997E+02  0.45594000000E+02  0.51100000000E-03 0. -1.
         11   -1    0    0    0    0 -0.00000000000E+00 -0.00000000000E+00 -0.45593999997E+02  0.45594000000E+02  0.51100000000E-03 0.  1.
    9900012    2    1    2    0    0 -0.81827170861E+00  0.85014619418E+00  0.22084025305E-01  0.90007828468E+02  0.90000091004E+02 0.  0.
         12    1    1    2    0    0  0.81827170861E+00 -0.85014619418E+00 -0.22084025305E-01  0.11801715319E+01  0.00000000000E+00 0. -1.
         11    1    3    3    0    0  0.35688127283E+01 -0.34957563803E+02 -0.12605645369E+02  0.37331889676E+02  0.51100000000E-03 0. -1.
        -11    1    3    3    0    0 -0.77604840344E+01 -0.54149992089E+01  0.11322966635E+00  0.94636224618E+01  0.51100000000E-03 0.  1.
        -12    1    3    3    0    0  0.33733995974E+01  0.41222709206E+02  0.12514499728E+02  0.43212316330E+02  0.00000000000E+00 0.  1.
</event>
<event>
 7    1  0.2490895E-015  0.9000768E+02  0.7816164E-02  0.1186339E+00
        -11   -1    0    0    0    0  0.00000000000E+00  0.00000000000E+00  0.45593999997E+02  0.45594000000E+02  0.51100000000E-03 0. -1.
         11   -1    0    0    0    0 -0.00000000000E+00 -0.00000000000E+00 -0.45593999997E+02  0.45594000000E+02  0.51100000000E-03 0.  1.
    9900012    2    1    2    0    0  0.52493760213E+00  0.92905759300E+00 -0.50441954767E+00  0.90007683696E+02  0.89999944321E+02 0.  0.
         12    1    1    2    0    0 -0.52493760213E+00 -0.92905759300E+00  0.50441954767E+00  0.11803163039E+01  0.00000000000E+00 0. -1.
         11    1    3    3    0    0 -0.89254483124E+01  0.33913983766E+01 -0.31755794770E+01  0.10062281839E+02  0.51100000000E-03 0. -1.
        -11    1    3    3    0    0 -0.31217463487E+02 -0.18346631689E+02  0.23263096644E+01  0.36284165111E+02  0.51100000000E-03 0.  1.
         12    1    3    3    0    0  0.40667849402E+02  0.15884290905E+02  0.34485026487E+00  0.43661236746E+02  0.00000000000E+00 0. -1.
</event>
<event>
 7    1  0.2490895E-015  0.9000776E+02  0.7816164E-02  0.1186339E+00
        -11   -1    0    0    0    0  0.00000000000E+00  0.00000000000E+00  0.45593999997E+02  0.45594000000E+02  0.51100000000E-03 0. -1.
         11   -1    0    0    0    0 -0.00000000000E+00 -0.00000000000E+00 -0.45593999997E+02  0.45594000000E+02  0.51100000000E-03 0.  1.
    9900012    2    1    2    0    0 -0.11296090911E+01 -0.29337205704E+00  0.17576153977E+00  0.90007755965E+02  0.90000017544E+02 0.  0.
         12    1    1    2    0    0  0.11296090911E+01  0.29337205704E+00 -0.17576153977E+00  0.11802440347E+01  0.00000000000E+00 0. -1.
         11    1    3    3    0    0  0.17348550854E+02 -0.11715087482E+02  0.64087994814E+01  0.21892651792E+02  0.51100000000E-03 0. -1.
        -11    1    3    3    0    0  0.46531591153E+01 -0.22108425989E+02 -0.14094303157E+02  0.26628626912E+02  0.51100000000E-03 0.  1.
         12    1    3    3    0    0 -0.23131319060E+02  0.33530141414E+02  0.78612652154E+01  0.41486477261E+02  0.00000000000E+00 0. -1.
</event>
<event>
 7    1  0.2490895E-015  0.9000753E+02  0.7816164E-02  0.1186339E+00
        -11   -1    0    0    0    0  0.00000000000E+00  0.00000000000E+00  0.45593999997E+02  0.45594000000E+02  0.51100000000E-03 0. -1.
         11   -1    0    0    0    0 -0.00000000000E+00 -0.00000000000E+00 -0.45593999997E+02  0.45594000000E+02  0.51100000000E-03 0.  1.
    9900012    2    1    2    0    0  0.16836149408E+00 -0.10153374502E+01 -0.57813673506E+00  0.90007534916E+02  0.89999793576E+02 0.  0.
         12    1    1    2    0    0 -0.16836149408E+00  0.10153374502E+01  0.57813673506E+00  0.11804650842E+01  0.00000000000E+00 0. -1.
         11    1    3    3    0    0 -0.42460952894E+01  0.70435205136E+01 -0.14142193872E+01  0.83450897640E+01  0.51100000000E-03 0. -1.
        -11    1    3    3    0    0 -0.45136724109E+01 -0.36409957207E+02 -0.23223983729E+02  0.43421327052E+02  0.51100000000E-03 0.  1.
         12    1    3    3    0    0  0.89281291943E+01  0.28351099244E+02  0.24060066381E+02  0.38241118099E+02  0.00000000000E+00 0. -1.
</event>
<event>
 7    1  0.2490895E-015  0.9000775E+02  0.7816164E-02  0.1186339E+00
        -11   -1    0    0    0    0  0.00000000000E+00  0.00000000000E+00  0.45593999997E+02  0.45594000000E+02  0.51100000000E-03 0. -1.
         11   -1    0    0    0    0 -0.00000000000E+00 -0.00000000000E+00 -0.45593999997E+02  0.45594000000E+02  0.51100000000E-03 0.  1.
    9900012    2    1    2    0    0 -0.10828447762E+01 -0.33863160204E+00 -0.32523017406E+00  0.90007746283E+02  0.90000007734E+02 0.  0.
         12    1    1    2    0    0  0.10828447762E+01  0.33863160204E+00  0.32523017406E+00  0.11802537174E+01  0.00000000000E+00 0. -1.
         11    1    3    3    0    0 -0.10620268942E+02  0.32256356854E+02  0.23661340781E+02  0.41389874579E+02  0.51100000000E-03 0. -1.
        -11    1    3    3    0    0 -0.76576719985E+01 -0.35201392494E+01 -0.36077968235E+01  0.91677433947E+01  0.51100000000E-03 0.  1.
        -12    1    3    3    0    0  0.17195096164E+02 -0.29074849207E+02 -0.20378774131E+02  0.39450128309E+02  0.00000000000E+00 0.  1.
</event>
<event>
 7    1  0.2490895E-015  0.9000773E+02  0.7816164E-02  0.1186339E+00
        -11   -1    0    0    0    0  0.00000000000E+00  0.00000000000E+00  0.45593999997E+02  0.45594000000E+02  0.51100000000E-03 0.  1.
         11   -1    0    0    0    0 -0.00000000000E+00 -0.00000000000E+00 -0.45593999997E+02  0.45594000000E+02  0.51100000000E-03 0. -1.
    9900012    2    1    2    0    0  0.53407001874E+00  0.16111159008E+00  0.10401210061E+01  0.90007729083E+02  0.89999990307E+02 0.  0.
         12    1    1    2    0    0 -0.53407001874E+00 -0.16111159008E+00 -0.10401210061E+01  0.11802709166E+01  0.00000000000E+00 0. -1.
         11    1    3    3    0    0  0.38242140547E+01 -0.10029253205E+02  0.21599368640E+01  0.10948783517E+02  0.51100000000E-03 0. -1.
        -11    1    3    3    0    0  0.99714588100E+01 -0.32614424083E+02 -0.27658592344E+01  0.34216671765E+02  0.51100000000E-03 0.  1.
         12    1    3    3    0    0 -0.13261602846E+02  0.42804788878E+02  0.16460433765E+01  0.44842273802E+02  0.00000000000E+00 0. -1.
</event>
<event>
 7    1  0.2490895E-015  0.9000774E+02  0.7816164E-02  0.1186339E+00
        -11   -1    0    0    0    0  0.00000000000E+00  0.00000000000E+00  0.45593999997E+02  0.45594000000E+02  0.51100000000E-03 0.  1.
         11   -1    0    0    0    0 -0.00000000000E+00 -0.00000000000E+00 -0.45593999997E+02  0.45594000000E+02  0.51100000000E-03 0. -1.
    9900012    2    1    2    0    0 -0.11253439146E+01  0.35543310450E+00 -0.16606855176E-01  0.90007742653E+02  0.90000004056E+02 0.  0.
         12    1    1    2    0    0  0.11253439146E+01 -0.35543310450E+00  0.16606855176E-01  0.11802573472E+01  0.00000000000E+00 0. -1.
         11    1    3    3    0    0  0.22782675815E+01  0.72787935290E+01  0.14432730865E+01  0.77623692179E+01  0.51100000000E-03 0. -1.
        -11    1    3    3    0    0  0.10560116258E+02 -0.32912409591E+02  0.24965585295E+02  0.42638283383E+02  0.51100000000E-03 0.  1.
         12    1    3    3    0    0 -0.13963727755E+02  0.25989049166E+02 -0.26425465237E+02  0.39607090052E+02  0.00000000000E+00 0. -1.
</event>
<event>
 7    1  0.2490895E-015  0.9000771E+02  0.7816164E-02  0.1186339E+00
        -11   -1    0    0    0    0  0.00000000000E+00  0.00000000000E+00  0.45593999997E+02  0.45594000000E+02  0.51100000000E-03 0. -1.
         11   -1    0    0    0    0 -0.00000000000E+00 -0.00000000000E+00 -0.45593999997E+02  0.45594000000E+02  0.51100000000E-03 0.  1.
    9900012    2    1    2    0    0  0.45770278897E+00 -0.10872104348E+01  0.39651147511E-01  0.90007707415E+02  0.89999968353E+02 0.  0.
         12    1    1    2    0    0 -0.45770278897E+00  0.10872104348E+01 -0.39651147511E-01  0.11802925850E+01  0.00000000000E+00 0. -1.
         11    1    3    3    0    0 -0.26397241421E+02 -0.26418984630E+02  0.44837641005E+01  0.37614907209E+02  0.51100000000E-03 0. -1.
        -11    1    3    3    0    0 -0.71806496892E+01 -0.19023146852E+01  0.32854048585E+01  0.81224636943E+01  0.51100000000E-03 0.  1.
        -12    1    3    3    0    0  0.34035593900E+02  0.27234088881E+02 -0.77295178115E+01  0.44270336512E+02  0.00000000000E+00 0.  1.
</event>
<event>
 7    1  0.2490895E-015  0.9000744E+02  0.7816164E-02  0.1186340E+00
        -11   -1    0    0    0    0  0.00000000000E+00  0.00000000000E+00  0.45593999997E+02  0.45594000000E+02  0.51100000000E-03 0. -1.
         11   -1    0    0    0    0 -0.00000000000E+00 -0.00000000000E+00 -0.45593999997E+02  0.45594000000E+02  0.51100000000E-03 0.  1.
    9900012    2    1    2    0    0  0.63987006672E+00  0.86383041953E+00 -0.48794174863E+00  0.90007439182E+02  0.89999696578E+02 0.  0.
         12    1    1    2    0    0 -0.63987006672E+00 -0.86383041953E+00  0.48794174863E+00  0.11805608184E+01  0.00000000000E+00 0. -1.
         11    1    3    3    0    0  0.25656650176E+02  0.23656656439E+02 -0.16315232237E+02  0.38523861376E+02  0.51100000000E-03 0. -1.
        -11    1    3    3    0    0  0.86086797023E+01 -0.11745593549E+01  0.60971464630E+00  0.87098052852E+01  0.51100000000E-03 0.  1.
        -12    1    3    3    0    0 -0.33625459811E+02 -0.21618266665E+02  0.15217575842E+02  0.42773772520E+02  0.00000000000E+00 0.  1.
</event>
<event>
 7    1  0.2490895E-015  0.9000759E+02  0.7816164E-02  0.1186339E+00
        -11   -1    0    0    0    0  0.00000000000E+00  0.00000000000E+00  0.45593999997E+02  0.45594000000E+02  0.51100000000E-03 0. -1.
         11   -1    0    0    0    0 -0.00000000000E+00 -0.00000000000E+00 -0.45593999997E+02  0.45594000000E+02  0.51100000000E-03 0.  1.
    9900012    2    1    2    0    0 -0.47868977265E-01 -0.58587441448E+00 -0.10236359052E+01  0.90007588743E+02  0.89999848115E+02 0.  0.
         12    1    1    2    0    0  0.47868977265E-01  0.58587441448E+00  0.10236359052E+01  0.11804112567E+01  0.00000000000E+00 0. -1.
         11    1    3    3    0    0 -0.11074704861E+02  0.19369241786E+01 -0.21092686870E+01  0.11438958767E+02  0.51100000000E-03 0. -1.
        -11    1    3    3    0    0 -0.26473572873E+02  0.68057182705E+01 -0.20626443992E+02  0.34243511120E+02  0.51100000000E-03 0.  1.
         12    1    3    3    0    0  0.37500408756E+02 -0.93285168636E+01  0.21712076774E+02  0.44325118856E+02  0.00000000000E+00 0. -1.
</event>
<event>
 7    1  0.2490895E-015  0.9000778E+02  0.7816164E-02  0.1186339E+00
        -11   -1    0    0    0    0  0.00000000000E+00  0.00000000000E+00  0.45593999997E+02  0.45594000000E+02  0.51100000000E-03 0.  1.
         11   -1    0    0    0    0 -0.00000000000E+00 -0.00000000000E+00 -0.45593999997E+02  0.45594000000E+02  0.51100000000E-03 0. -1.
    9900012    2    1    2    0    0  0.37977165178E+00  0.61055049494E+00  0.93590513889E+00  0.90007781019E+02  0.90000042928E+02 0.  0.
         12    1    1    2    0    0 -0.37977165178E+00 -0.61055049494E+00 -0.93590513889E+00  0.11802189811E+01  0.00000000000E+00 0. -1.
         11    1    3    3    0    0  0.34849191014E+02  0.58303535630E+01 -0.22796997159E+02  0.42049521005E+02  0.51100000000E-03 0. -1.
        -11    1    3    3    0    0 -0.45646412178E+01  0.73673169974E+01  0.84089308180E+01  0.12075737118E+02  0.51100000000E-03 0.  1.
        -12    1    3    3    0    0 -0.29904778145E+02 -0.12587120065E+02  0.15323971480E+02  0.35882522896E+02  0.00000000000E+00 0.  1.
</event>
<event>
 7    1  0.2490895E-015  0.9000863E+02  0.7816164E-02  0.1186337E+00
        -11   -1    0    0    0    0  0.00000000000E+00  0.00000000000E+00  0.45593999997E+02  0.45594000000E+02  0.51100000000E-03 0.  1.
         11   -1    0    0    0    0 -0.00000000000E+00 -0.00000000000E+00 -0.45593999997E+02  0.45594000000E+02  0.51100000000E-03 0. -1.
    9900012    2    1    2    0    0 -0.10267336313E+01  0.32512677950E+00 -0.48064344674E+00  0.90008632587E+02  0.90000905732E+02 0.  0.
         12    1    1    2    0    0  0.10267336313E+01 -0.32512677950E+00  0.48064344674E+00  0.11793674132E+01  0.00000000000E+00 0. -1.
         11    1    3    3    0    0 -0.19994512819E+01  0.34429772414E+02 -0.88183163214E+01  0.35597327665E+02  0.51100000000E-03 0. -1.
        -11    1    3    3    0    0  0.20937261141E+01  0.88937207571E+01 -0.35237891084E+01  0.97928059252E+01  0.51100000000E-03 0.  1.
        -12    1    3    3    0    0 -0.11210084635E+01 -0.42998366392E+02  0.11861461983E+02  0.44618498996E+02  0.00000000000E+00 0.  1.
</event>
<event>
 7    1  0.2490895E-015  0.9000774E+02  0.7816164E-02  0.1186339E+00
        -11   -1    0    0    0    0  0.00000000000E+00  0.00000000000E+00  0.45593999997E+02  0.45594000000E+02  0.51100000000E-03 0.  1.
         11   -1    0    0    0    0 -0.00000000000E+00 -0.00000000000E+00 -0.45593999997E+02  0.45594000000E+02  0.51100000000E-03 0. -1.
    9900012    2    1    2    0    0  0.86345137389E+00  0.30080887940E+00 -0.74631145571E+00  0.90007739416E+02  0.90000000776E+02 0.  0.
         12    1    1    2    0    0 -0.86345137389E+00 -0.30080887940E+00  0.74631145571E+00  0.11802605839E+01  0.00000000000E+00 0. -1.
         11    1    3    3    0    0  0.51622602195E+00  0.55315654728E+01  0.80026069375E+01  0.97419928117E+01  0.51100000000E-03 0. -1.
        -11    1    3    3    0    0  0.38308426318E+02 -0.90256862498E+01 -0.13962736421E+02  0.41760705787E+02  0.51100000000E-03 0.  1.
         12    1    3    3    0    0 -0.37961200966E+02  0.37949296564E+01  0.52138180273E+01  0.38505040817E+02  0.00000000000E+00 0. -1.
</event>
<event>
 7    1  0.3701043E-015  0.9000773E+02  0.7816164E-02  0.1186339E+00
        -11   -1    0    0    0    0  0.00000000000E+00  0.00000000000E+00  0.45593999997E+02  0.45594000000E+02  0.51100000000E-03 0. -1.
         11   -1    0    0    0    0 -0.00000000000E+00 -0.00000000000E+00 -0.45593999997E+02  0.45594000000E+02  0.51100000000E-03 0.  1.
    9900012    2    1    2    0    0 -0.82757822655E+00 -0.49637693356E+00 -0.67953900845E+00  0.90007725013E+02  0.89999986183E+02 0.  0.
         12    1    1    2    0    0  0.82757822655E+00  0.49637693356E+00  0.67953900845E+00  0.11802749871E+01  0.00000000000E+00 0. -1.
         11    1    3    3    0    0  0.90581961009E+01  0.26476457828E+02  0.22854569772E+02  0.36130113416E+02  0.51100000000E-03 0. -1.
        -11    1    3    3    0    0  0.55545423951E+01 -0.15822635491E+00  0.79723663016E+01  0.97178496339E+01  0.51100000000E-03 0.  1.
        -12    1    3    3    0    0 -0.15440316723E+02 -0.26814608407E+02 -0.31506475082E+02  0.44159761963E+02  0.00000000000E+00 0.  1.
</event>
<event>
 7    1  0.2490895E-015  0.9000771E+02  0.7816164E-02  0.1186339E+00
        -11   -1    0    0    0    0  0.00000000000E+00  0.00000000000E+00  0.45593999997E+02  0.45594000000E+02  0.51100000000E-03 0. -1.
         11   -1    0    0    0    0 -0.00000000000E+00 -0.00000000000E+00 -0.45593999997E+02  0.45594000000E+02  0.51100000000E-03 0.  1.
    9900012    2    1    2    0    0  0.41627595000E-03  0.99224206452E+00 -0.63916801243E+00  0.90007711800E+02  0.89999972795E+02 0.  0.
         12    1    1    2    0    0 -0.41627595000E-03 -0.99224206452E+00  0.63916801243E+00  0.11802882004E+01  0.00000000000E+00 0. -1.
         11    1    3    3    0    0  0.14067894085E+02 -0.31804439658E+02  0.73763634859E+01  0.35550510045E+02  0.51100000000E-03 0. -1.
        -11    1    3    3    0    0  0.60294667767E+01 -0.25267374813E+01  0.83850796792E+01  0.10632423684E+02  0.51100000000E-03 0.  1.
        -12    1    3    3    0    0 -0.20096944586E+02  0.35323419204E+02 -0.16400611178E+02  0.43824778070E+02  0.00000000000E+00 0.  1.
</event>
<event>
 7    1  0.2490895E-015  0.9000772E+02  0.7816164E-02  0.1186339E+00
        -11   -1    0    0    0    0  0.00000000000E+00  0.00000000000E+00  0.45593999997E+02  0.45594000000E+02  0.51100000000E-03 0.  1.
         11   -1    0    0    0    0 -0.00000000000E+00 -0.00000000000E+00 -0.45593999997E+02  0.45594000000E+02  0.51100000000E-03 0. -1.
    9900012    2    1    2    0    0  0.83717995332E+00 -0.82498606625E+00  0.10760007870E+00  0.90007724583E+02  0.89999985747E+02 0.  0.
         12    1    1    2    0    0 -0.83717995332E+00  0.82498606625E+00 -0.10760007870E+00  0.11802754173E+01  0.00000000000E+00 0. -1.
         11    1    3    3    0    0 -0.88886862477E+01  0.11883699726E+01  0.26241847128E+00  0.89716124591E+01  0.51100000000E-03 0. -1.
        -11    1    3    3    0    0 -0.22408941267E+02 -0.27667256541E+02  0.12939898070E+02  0.37882432545E+02  0.51100000000E-03 0.  1.
         12    1    3    3    0    0  0.32134807468E+02  0.25653900502E+02 -0.13094716463E+02  0.43153679579E+02  0.00000000000E+00 0. -1.
</event>
<event>
 7    1  0.2490895E-015  0.9000777E+02  0.7816164E-02  0.1186339E+00
        -11   -1    0    0    0    0  0.00000000000E+00  0.00000000000E+00  0.45593999997E+02  0.45594000000E+02  0.51100000000E-03 0.  1.
         11   -1    0    0    0    0 -0.00000000000E+00 -0.00000000000E+00 -0.45593999997E+02  0.45594000000E+02  0.51100000000E-03 0. -1.
    9900012    2    1    2    0    0 -0.67983808590E+00  0.49634443794E-01  0.96348438463E+00  0.90007768853E+02  0.90000030602E+02 0.  0.
         12    1    1    2    0    0  0.67983808590E+00 -0.49634443794E-01 -0.96348438463E+00  0.11802311471E+01  0.00000000000E+00 0. -1.
         11    1    3    3    0    0 -0.22552320677E+01 -0.31480306454E+02  0.27066441500E+02  0.41577494174E+02  0.51100000000E-03 0. -1.
        -11    1    3    3    0    0  0.83442603739E+00  0.76612047544E+01  0.50230503562E+01  0.91989869139E+01  0.51100000000E-03 0.  1.
        -12    1    3    3    0    0  0.74096794439E+00  0.23868736143E+02 -0.31126007471E+02  0.39231287765E+02  0.00000000000E+00 0.  1.
</event>
<event>
 7    1  0.2490895E-015  0.9000772E+02  0.7816164E-02  0.1186339E+00
        -11   -1    0    0    0    0  0.00000000000E+00  0.00000000000E+00  0.45593999997E+02  0.45594000000E+02  0.51100000000E-03 0.  1.
         11   -1    0    0    0    0 -0.00000000000E+00 -0.00000000000E+00 -0.45593999997E+02  0.45594000000E+02  0.51100000000E-03 0. -1.
    9900012    2    1    2    0    0 -0.92239130447E+00 -0.32729681732E-01 -0.73564800274E+00  0.90007722518E+02  0.89999983655E+02 0.  0.
         12    1    1    2    0    0  0.92239130447E+00  0.32729681732E-01  0.73564800274E+00  0.11802774820E+01  0.00000000000E+00 0. -1.
         11    1    3    3    0    0  0.16610190161E+02  0.63761675592E+01 -0.33306309937E+02  0.37760617206E+02  0.51100000000E-03 0. -1.
        -11    1    3    3    0    0  0.32290836487E+01  0.18913934958E+01 -0.63444217291E+01  0.73658697996E+01  0.51100000000E-03 0.  1.
        -12    1    3    3    0    0 -0.20761665114E+02 -0.83002907367E+01  0.38915083663E+02  0.44881235512E+02  0.00000000000E+00 0.  1.
</event>
<event>
 7    1  0.2490895E-015  0.9000778E+02  0.7816164E-02  0.1186339E+00
        -11   -1    0    0    0    0  0.00000000000E+00  0.00000000000E+00  0.45593999997E+02  0.45594000000E+02  0.51100000000E-03 0.  1.
         11   -1    0    0    0    0 -0.00000000000E+00 -0.00000000000E+00 -0.45593999997E+02  0.45594000000E+02  0.51100000000E-03 0. -1.
    9900012    2    1    2    0    0 -0.66605790141E+00  0.44832146295E+00  0.86504641356E+00  0.90007775208E+02  0.90000037041E+02 0.  0.
         12    1    1    2    0    0  0.66605790141E+00 -0.44832146295E+00 -0.86504641356E+00  0.11802247921E+01  0.00000000000E+00 0. -1.
         11    1    3    3    0    0 -0.20385150362E+01  0.26464970049E+01  0.59102228588E+01  0.67889781596E+01  0.51100000000E-03 0. -1.
        -11    1    3    3    0    0 -0.36139963241E+02 -0.42423003360E+01  0.16452556068E+02  0.39934704915E+02  0.51100000000E-03 0.  1.
         12    1    3    3    0    0  0.37512420376E+02  0.20441247941E+01 -0.21497732513E+02  0.43284092134E+02  0.00000000000E+00 0. -1.
</event>
<event>
 7    1  0.2970941E-015  0.9000773E+02  0.7816164E-02  0.1186339E+00
        -11   -1    0    0    0    0  0.00000000000E+00  0.00000000000E+00  0.45593999997E+02  0.45594000000E+02  0.51100000000E-03 0. -1.
         11   -1    0    0    0    0 -0.00000000000E+00 -0.00000000000E+00 -0.45593999997E+02  0.45594000000E+02  0.51100000000E-03 0.  1.
    9900012    2    1    2    0    0  0.86081611742E+00  0.53883178892E+00 -0.60140416658E+00  0.90007732634E+02  0.89999993904E+02 0.  0.
         12    1    1    2    0    0 -0.86081611742E+00 -0.53883178892E+00  0.60140416658E+00  0.11802673665E+01  0.00000000000E+00 0. -1.
         11    1    3    3    0    0  0.61295092308E+00  0.38460962612E+02  0.17183837714E+02  0.42129628918E+02  0.51100000000E-03 0. -1.
        -11    1    3    3    0    0  0.79053825387E+01 -0.46059702062E+01  0.39835829684E+00  0.91579869086E+01  0.51100000000E-03 0.  1.
        -12    1    3    3    0    0 -0.76575173444E+01 -0.33316160617E+02 -0.18183600178E+02  0.38720116807E+02  0.00000000000E+00 0.  1.
</event>
<event>
 7    1  0.2490895E-015  0.9000778E+02  0.7816164E-02  0.1186339E+00
        -11   -1    0    0    0    0  0.00000000000E+00  0.00000000000E+00  0.45593999997E+02  0.45594000000E+02  0.51100000000E-03 0.  1.
         11   -1    0    0    0    0 -0.00000000000E+00 -0.00000000000E+00 -0.45593999997E+02  0.45594000000E+02  0.51100000000E-03 0. -1.
    9900012    2    1    2    0    0 -0.10176059401E+01 -0.10012570476E+00  0.58939111611E+00  0.90007775914E+02  0.90000037756E+02 0.  0.
         12    1    1    2    0    0  0.10176059401E+01  0.10012570476E+00 -0.58939111611E+00  0.11802240862E+01  0.00000000000E+00 0. -1.
         11    1    3    3    0    0 -0.28115113979E+00 -0.80294657555E+00  0.11284623443E+02  0.11316646839E+02  0.51100000000E-03 0. -1.
        -11    1    3    3    0    0  0.36193785035E+02 -0.16257555958E+01 -0.18789333440E+02  0.40812647645E+02  0.51100000000E-03 0.  1.
         12    1    3    3    0    0 -0.36930239835E+02  0.23285764666E+01  0.80941011137E+01  0.37878481430E+02  0.00000000000E+00 0. -1.
</event>
<event>
 7    1  0.2490895E-015  0.9000749E+02  0.7816164E-02  0.1186340E+00
        -11   -1    0    0    0    0  0.00000000000E+00  0.00000000000E+00  0.45593999997E+02  0.45594000000E+02  0.51100000000E-03 0.  1.
         11   -1    0    0    0    0 -0.00000000000E+00 -0.00000000000E+00 -0.45593999997E+02  0.45594000000E+02  0.51100000000E-03 0. -1.
    9900012    2    1    2    0    0 -0.10147659753E+01  0.11374848100E+00  0.59238502040E+00  0.90007487944E+02  0.89999745985E+02 0.  0.
         12    1    1    2    0    0  0.10147659753E+01 -0.11374848100E+00 -0.59238502040E+00  0.11805120558E+01  0.00000000000E+00 0. -1.
         11    1    3    3    0    0  0.23772250923E+02  0.17404089138E+02  0.19973138696E+02  0.35594220069E+02  0.51100000000E-03 0. -1.
        -11    1    3    3    0    0  0.41648645594E+01  0.69435533477E+01  0.49564320331E+01  0.94934318689E+01  0.51100000000E-03 0.  1.
        -12    1    3    3    0    0 -0.28951881458E+02 -0.24233894005E+02 -0.24337185709E+02  0.44919836006E+02  0.00000000000E+00 0.  1.
</event>
<event>
 7    1  0.2490895E-015  0.9000775E+02  0.7816164E-02  0.1186339E+00
        -11   -1    0    0    0    0  0.00000000000E+00  0.00000000000E+00  0.45593999997E+02  0.45594000000E+02  0.51100000000E-03 0. -1.
         11   -1    0    0    0    0 -0.00000000000E+00 -0.00000000000E+00 -0.45593999997E+02  0.45594000000E+02  0.51100000000E-03 0.  1.
    9900012    2    1    2    0    0  0.15756023580E+00 -0.50011842283E+00 -0.10573818997E+01  0.90007745728E+02  0.90000007172E+02 0.  0.
         12    1    1    2    0    0 -0.15756023580E+00  0.50011842283E+00  0.10573818997E+01  0.11802542720E+01  0.00000000000E+00 0. -1.
         11    1    3    3    0    0  0.13408737882E+01  0.34829575687E+01 -0.76164162246E+01  0.84816703725E+01  0.51100000000E-03 0. -1.
        -11    1    3    3    0    0 -0.85934062447E+01 -0.24609717139E+02 -0.29476298382E+02  0.39348913265E+02  0.51100000000E-03 0.  1.
         12    1    3    3    0    0  0.74100926923E+01  0.20626641147E+02  0.36035332707E+02  0.42177162091E+02  0.00000000000E+00 0. -1.
</event>
<event>
 7    1  0.2490895E-015  0.9000796E+02  0.7816164E-02  0.1186339E+00
        -11   -1    0    0    0    0  0.00000000000E+00  0.00000000000E+00  0.45593999997E+02  0.45594000000E+02  0.51100000000E-03 0.  1.
         11   -1    0    0    0    0 -0.00000000000E+00 -0.00000000000E+00 -0.45593999997E+02  0.45594000000E+02  0.51100000000E-03 0. -1.
    9900012    2    1    2    0    0  0.38646031626E+00  0.93933761801E+00  0.60065363680E+00  0.90007961218E+02  0.90000225505E+02 0.  0.
         12    1    1    2    0    0 -0.38646031626E+00 -0.93933761801E+00 -0.60065363680E+00  0.11800387824E+01  0.00000000000E+00 0. -1.
         11    1    3    3    0    0 -0.18819015598E+02  0.95417897850E+01 -0.30671592485E+02  0.37228318337E+02  0.51100000000E-03 0. -1.
        -11    1    3    3    0    0  0.54978438939E+01  0.52859402726E+01 -0.66580704387E+01  0.10124097702E+02  0.51100000000E-03 0.  1.
        -12    1    3    3    0    0  0.13707632020E+02 -0.13888392440E+02  0.37930316560E+02  0.42655545179E+02  0.00000000000E+00 0.  1.
</event>
<event>
 7    1  0.2490895E-015  0.9000772E+02  0.7816164E-02  0.1186339E+00
        -11   -1    0    0    0    0  0.00000000000E+00  0.00000000000E+00  0.45593999997E+02  0.45594000000E+02  0.51100000000E-03 0.  1.
         11   -1    0    0    0    0 -0.00000000000E+00 -0.00000000000E+00 -0.45593999997E+02  0.45594000000E+02  0.51100000000E-03 0. -1.
    9900012    2    1    2    0    0 -0.44602922441E+00 -0.16821842164E+00  0.10797288264E+01  0.90007722980E+02  0.89999984123E+02 0.  0.
         12    1    1    2    0    0  0.44602922441E+00  0.16821842164E+00 -0.10797288264E+01  0.11802770205E+01  0.00000000000E+00 0. -1.
         11    1    3    3    0    0 -0.12725363643E+01  0.11184551120E+02 -0.24483606008E+02  0.26947365288E+02  0.51100000000E-03 0. -1.
        -11    1    3    3    0    0  0.19480918397E+02  0.88044795783E+01 -0.50153408440E+01  0.21958567491E+02  0.51100000000E-03 0.  1.
        -12    1    3    3    0    0 -0.18654411257E+02 -0.20157249120E+02  0.30578675679E+02  0.41101790200E+02  0.00000000000E+00 0.  1.
</event>
<event>
 7    1  0.2490895E-015  0.9000813E+02  0.7816164E-02  0.1186338E+00
        -11   -1    0    0    0    0  0.00000000000E+00  0.00000000000E+00  0.45593999997E+02  0.45594000000E+02  0.51100000000E-03 0. -1.
         11   -1    0    0    0    0 -0.00000000000E+00 -0.00000000000E+00 -0.45593999997E+02  0.45594000000E+02  0.51100000000E-03 0.  1.
    9900012    2    1    2    0    0 -0.79716162031E+00 -0.77877645696E+00  0.38745717286E+00  0.90008134550E+02  0.90000401125E+02 0.  0.
         12    1    1    2    0    0  0.79716162031E+00  0.77877645696E+00 -0.38745717286E+00  0.11798654498E+01  0.00000000000E+00 0. -1.
         11    1    3    3    0    0 -0.25971842527E+01 -0.23580662112E+01 -0.79202918647E+01  0.86623822233E+01  0.51100000000E-03 0. -1.
        -11    1    3    3    0    0  0.61784666366E+01 -0.13484833472E+02 -0.33529584346E+02  0.36663977014E+02  0.51100000000E-03 0.  1.
         12    1    3    3    0    0 -0.43784440042E+01  0.15064123226E+02  0.41837333384E+02  0.44681775313E+02  0.00000000000E+00 0. -1.
</event>
<event>
 7    1  0.2490895E-015  0.9000768E+02  0.7816164E-02  0.1186339E+00
        -11   -1    0    0    0    0  0.00000000000E+00  0.00000000000E+00  0.45593999997E+02  0.45594000000E+02  0.51100000000E-03 0. -1.
         11   -1    0    0    0    0 -0.00000000000E+00 -0.00000000000E+00 -0.45593999997E+02  0.45594000000E+02  0.51100000000E-03 0.  1.
    9900012    2    1    2    0    0 -0.81841126459E-01 -0.57933364411E+00  0.10250958338E+01  0.90007683555E+02  0.89999944178E+02 0.  0.
         12    1    1    2    0    0  0.81841126459E-01  0.57933364411E+00 -0.10250958338E+01  0.11803164447E+01  0.00000000000E+00 0. -1.
         11    1    3    3    0    0 -0.49743047764E+01 -0.83189569085E+01 -0.21291624853E+00  0.96950547004E+01  0.51100000000E-03 0. -1.
        -11    1    3    3    0    0  0.23676676773E+02 -0.12981895215E+02  0.29884850004E+02  0.40276778500E+02  0.51100000000E-03 0.  1.
         12    1    3    3    0    0 -0.18784213123E+02  0.20721518479E+02 -0.28646837921E+02  0.40035850355E+02  0.00000000000E+00 0. -1.
</event>
<event>
 7    1  0.2490895E-015  0.9000780E+02  0.7816164E-02  0.1186339E+00
        -11   -1    0    0    0    0  0.00000000000E+00  0.00000000000E+00  0.45593999997E+02  0.45594000000E+02  0.51100000000E-03 0. -1.
         11   -1    0    0    0    0 -0.00000000000E+00 -0.00000000000E+00 -0.45593999997E+02  0.45594000000E+02  0.51100000000E-03 0.  1.
    9900012    2    1    2    0    0  0.77469760243E+00  0.88925478612E+00  0.43959681460E-01  0.90007803871E+02  0.90000066082E+02 0.  0.
         12    1    1    2    0    0 -0.77469760243E+00 -0.88925478612E+00 -0.43959681460E-01  0.11801961292E+01  0.00000000000E+00 0. -1.
         11    1    3    3    0    0  0.62324205401E+01  0.31931536437E+01 -0.11992963386E+02  0.13887781213E+02  0.51100000000E-03 0. -1.
        -11    1    3    3    0    0 -0.13415785910E+02 -0.33186626880E+01 -0.30155568649E+02  0.33171601626E+02  0.51100000000E-03 0.  1.
         12    1    3    3    0    0  0.79580629726E+01  0.10147638304E+01  0.42192491716E+02  0.42948421032E+02  0.00000000000E+00 0. -1.
</event>
<event>
 7    1  0.2490895E-015  0.9000763E+02  0.7816164E-02  0.1186339E+00
        -11   -1    0    0    0    0  0.00000000000E+00  0.00000000000E+00  0.45593999997E+02  0.45594000000E+02  0.51100000000E-03 0.  1.
         11   -1    0    0    0    0 -0.00000000000E+00 -0.00000000000E+00 -0.45593999997E+02  0.45594000000E+02  0.51100000000E-03 0. -1.
    9900012    2    1    2    0    0  0.28289785545E+00 -0.33502686551E+00  0.10959060378E+01  0.90007625381E+02  0.89999885236E+02 0.  0.
         12    1    1    2    0    0 -0.28289785545E+00  0.33502686551E+00 -0.10959060378E+01  0.11803746189E+01  0.00000000000E+00 0. -1.
         11    1    3    3    0    0 -0.93731912233E+01  0.21363475922E+01  0.22351145579E+01  0.98699762964E+01  0.51100000000E-03 0. -1.
        -11    1    3    3    0    0  0.60692691299E+01 -0.30584528256E+01  0.39124409471E+02  0.39710320802E+02  0.51100000000E-03 0.  1.
         12    1    3    3    0    0  0.35868199489E+01  0.58707836789E+00 -0.40263617991E+02  0.40427328283E+02  0.00000000000E+00 0. -1.
</event>
<event>
 7    1  0.2490895E-015  0.9000773E+02  0.7816164E-02  0.1186339E+00
        -11   -1    0    0    0    0  0.00000000000E+00  0.00000000000E+00  0.45593999997E+02  0.45594000000E+02  0.51100000000E-03 0. -1.
         11   -1    0    0    0    0 -0.00000000000E+00 -0.00000000000E+00 -0.45593999997E+02  0.45594000000E+02  0.51100000000E-03 0.  1.
    9900012    2    1    2    0    0 -0.92289923165E+00 -0.49823427288E-01 -0.73403757187E+00  0.90007730318E+02  0.89999991558E+02 0.  0.
         12    1    1    2    0    0  0.92289923165E+00  0.49823427288E-01  0.73403757187E+00  0.11802696821E+01  0.00000000000E+00 0. -1.
         11    1    3    3    0    0  0.15028263985E+01 -0.19342148265E+01  0.63813632291E+01  0.68353106076E+01  0.51100000000E-03 0. -1.
        -11    1    3    3    0    0 -0.39363482806E+02 -0.15054514982E+02 -0.55265174155E+01  0.42504877308E+02  0.51100000000E-03 0.  1.
         12    1    3    3    0    0  0.36937757176E+02  0.16938906381E+02 -0.15888833854E+01  0.40667542402E+02  0.00000000000E+00 0. -1.
</event>
<event>
 7    1  0.2490895E-015  0.9000786E+02  0.7816164E-02  0.1186339E+00
        -11   -1    0    0    0    0  0.00000000000E+00  0.00000000000E+00  0.45593999997E+02  0.45594000000E+02  0.51100000000E-03 0. -1.
         11   -1    0    0    0    0 -0.00000000000E+00 -0.00000000000E+00 -0.45593999997E+02  0.45594000000E+02  0.51100000000E-03 0.  1.
    9900012    2    1    2    0    0 -0.68093489262E+00  0.55705456997E+00 -0.78661253156E+00  0.90007855349E+02  0.90000118240E+02 0.  0.
         12    1    1    2    0    0  0.68093489262E+00 -0.55705456997E+00  0.78661253156E+00  0.11801446508E+01  0.00000000000E+00 0. -1.
         11    1    3    3    0    0  0.12849371198E+02  0.67897593848E+01  0.32219098368E+02  0.35345119501E+02  0.51100000000E-03 0. -1.
        -11    1    3    3    0    0  0.48949889206E+01 -0.65568265590E+00  0.79780116430E+01  0.93829369770E+01  0.51100000000E-03 0.  1.
        -12    1    3    3    0    0 -0.18425295011E+02 -0.55770221589E+01 -0.40983722542E+02  0.45279798871E+02  0.00000000000E+00 0.  1.
</event>
<event>
 7    1  0.2490895E-015  0.9000766E+02  0.7816164E-02  0.1186339E+00
        -11   -1    0    0    0    0  0.00000000000E+00  0.00000000000E+00  0.45593999997E+02  0.45594000000E+02  0.51100000000E-03 0.  1.
         11   -1    0    0    0    0 -0.00000000000E+00 -0.00000000000E+00 -0.45593999997E+02  0.45594000000E+02  0.51100000000E-03 0. -1.
    9900012    2    1    2    0    0 -0.10197561351E+01  0.32407495244E-01 -0.59350421396E+00  0.90007661035E+02  0.89999921360E+02 0.  0.
         12    1    1    2    0    0  0.10197561351E+01 -0.32407495244E-01  0.59350421396E+00  0.11803389653E+01  0.00000000000E+00 0. -1.
         11    1    3    3    0    0 -0.68003006651E+01  0.72979919884E+01  0.97112198084E+00  0.10022367702E+02  0.51100000000E-03 0. -1.
        -11    1    3    3    0    0  0.52240446295E+01  0.33219738617E+02  0.14242791707E+02  0.36519841072E+02  0.51100000000E-03 0.  1.
         12    1    3    3    0    0  0.55649990042E+00 -0.40485323110E+02 -0.15807417902E+02  0.43465452260E+02  0.00000000000E+00 0. -1.
</event>
<event>
 7    1  0.2490895E-015  0.9000770E+02  0.7816164E-02  0.1186339E+00
        -11   -1    0    0    0    0  0.00000000000E+00  0.00000000000E+00  0.45593999997E+02  0.45594000000E+02  0.51100000000E-03 0.  1.
         11   -1    0    0    0    0 -0.00000000000E+00 -0.00000000000E+00 -0.45593999997E+02  0.45594000000E+02  0.51100000000E-03 0. -1.
    9900012    2    1    2    0    0 -0.87809981531E+00  0.49776406277E-01  0.78712094996E+00  0.90007704966E+02  0.89999965872E+02 0.  0.
         12    1    1    2    0    0  0.87809981531E+00 -0.49776406277E-01 -0.78712094996E+00  0.11802950335E+01  0.00000000000E+00 0. -1.
         11    1    3    3    0    0  0.45523185382E+01 -0.40880828506E+01  0.63091644127E+01  0.87887189803E+01  0.51100000000E-03 0. -1.
        -11    1    3    3    0    0  0.11255384038E+02 -0.12414670934E+02  0.32473160805E+02  0.36541947090E+02  0.51100000000E-03 0.  1.
         12    1    3    3    0    0 -0.16685802391E+02  0.16552530191E+02 -0.37995204268E+02  0.44677038896E+02  0.00000000000E+00 0. -1.
</event>
<event>
 7    1  0.2490895E-015  0.9000761E+02  0.7816164E-02  0.1186339E+00
        -11   -1    0    0    0    0  0.00000000000E+00  0.00000000000E+00  0.45593999997E+02  0.45594000000E+02  0.51100000000E-03 0. -1.
         11   -1    0    0    0    0 -0.00000000000E+00 -0.00000000000E+00 -0.45593999997E+02  0.45594000000E+02  0.51100000000E-03 0.  1.
    9900012    2    1    2    0    0  0.10546954634E+01  0.36567881498E-01 -0.52876445886E+00  0.90007613799E+02  0.89999873501E+02 0.  0.
         12    1    1    2    0    0 -0.10546954634E+01 -0.36567881498E-01  0.52876445886E+00  0.11803862010E+01  0.00000000000E+00 0. -1.
         11    1    3    3    0    0 -0.22289969391E+02  0.19498016493E+02 -0.84273260892E+01  0.30790180382E+02  0.51100000000E-03 0. -1.
        -11    1    3    3    0    0 -0.11731368933E+02  0.64836337005E+01 -0.40131884179E+01  0.13991719142E+02  0.51100000000E-03 0.  1.
        -12    1    3    3    0    0  0.35076033788E+02 -0.25945082312E+02  0.11911750048E+02  0.45225714275E+02  0.00000000000E+00 0.  1.
</event>
<event>
 7    1  0.2490895E-015  0.9000779E+02  0.7816164E-02  0.1186339E+00
        -11   -1    0    0    0    0  0.00000000000E+00  0.00000000000E+00  0.45593999997E+02  0.45594000000E+02  0.51100000000E-03 0. -1.
         11   -1    0    0    0    0 -0.00000000000E+00 -0.00000000000E+00 -0.45593999997E+02  0.45594000000E+02  0.51100000000E-03 0.  1.
    9900012    2    1    2    0    0 -0.10130091239E+01 -0.68939920669E-01 -0.60162682157E+00  0.90007790260E+02  0.90000052291E+02 0.  0.
         12    1    1    2    0    0  0.10130091239E+01  0.68939920669E-01  0.60162682157E+00  0.11802097400E+01  0.00000000000E+00 0. -1.
         11    1    3    3    0    0 -0.22171742253E+01 -0.12081019025E+02 -0.43951788667E+01  0.13045477368E+02  0.51100000000E-03 0. -1.
        -11    1    3    3    0    0  0.23248718910E+01 -0.24653802554E+02 -0.21179911157E+02  0.32585328701E+02  0.51100000000E-03 0.  1.
         12    1    3    3    0    0 -0.11207067897E+01  0.36665881659E+02  0.24973463202E+02  0.44376984190E+02  0.00000000000E+00 0. -1.
</event>
<event>
 7    1  0.2490895E-015  0.9000777E+02  0.7816164E-02  0.1186339E+00
        -11   -1    0    0    0    0  0.00000000000E+00  0.00000000000E+00  0.45593999997E+02  0.45594000000E+02  0.51100000000E-03 0.  1.
         11   -1    0    0    0    0 -0.00000000000E+00 -0.00000000000E+00 -0.45593999997E+02  0.45594000000E+02  0.51100000000E-03 0. -1.
    9900012    2    1    2    0    0  0.38152971631E+00  0.10504175086E+01 -0.37946020638E+00  0.90007774634E+02  0.90000036459E+02 0.  0.
         12    1    1    2    0    0 -0.38152971631E+00 -0.10504175086E+01  0.37946020638E+00  0.11802253662E+01  0.00000000000E+00 0. -1.
         11    1    3    3    0    0 -0.22485421976E+02  0.18162286007E+02  0.25301098678E+02  0.38413648994E+02  0.51100000000E-03 0. -1.
        -11    1    3    3    0    0 -0.73239884785E+01 -0.25242631668E+01  0.21267229569E+01  0.80334091496E+01  0.51100000000E-03 0.  1.
        -12    1    3    3    0    0  0.30190940171E+02 -0.14587605331E+02 -0.27807281842E+02  0.43560716490E+02  0.00000000000E+00 0.  1.
</event>
<event>
 7    1  0.2490895E-015  0.9000782E+02  0.7816164E-02  0.1186339E+00
        -11   -1    0    0    0    0  0.00000000000E+00  0.00000000000E+00  0.45593999997E+02  0.45594000000E+02  0.51100000000E-03 0. -1.
         11   -1    0    0    0    0 -0.00000000000E+00 -0.00000000000E+00 -0.45593999997E+02  0.45594000000E+02  0.51100000000E-03 0.  1.
    9900012    2    1    2    0    0 -0.24515597201E+00 -0.10650235108E+01 -0.44547635485E+00  0.90007819627E+02  0.90000082046E+02 0.  0.
         12    1    1    2    0    0  0.24515597201E+00  0.10650235108E+01  0.44547635485E+00  0.11801803726E+01  0.00000000000E+00 0. -1.
         11    1    3    3    0    0 -0.12668041956E+02 -0.33151363575E+02  0.24655283596E+02  0.43213136930E+02  0.51100000000E-03 0. -1.
        -11    1    3    3    0    0  0.80115399717E+00  0.10315151058E+02  0.15620859686E+01  0.10463474658E+02  0.51100000000E-03 0.  1.
        -12    1    3    3    0    0  0.11621731986E+02  0.21771189006E+02 -0.26662845919E+02  0.36331208040E+02  0.00000000000E+00 0.  1.
</event>
<event>
 7    1  0.2490895E-015  0.9000776E+02  0.7816164E-02  0.1186339E+00
        -11   -1    0    0    0    0  0.00000000000E+00  0.00000000000E+00  0.45593999997E+02  0.45594000000E+02  0.51100000000E-03 0. -1.
         11   -1    0    0    0    0 -0.00000000000E+00 -0.00000000000E+00 -0.45593999997E+02  0.45594000000E+02  0.51100000000E-03 0.  1.
    9900012    2    1    2    0    0 -0.10059058865E+01  0.61650659473E+00 -0.32085612693E-01  0.90007764210E+02  0.90000025897E+02 0.  0.
         12    1    1    2    0    0  0.10059058865E+01 -0.61650659473E+00  0.32085612693E-01  0.11802357901E+01  0.00000000000E+00 0. -1.
         11    1    3    3    0    0 -0.26744820220E+01 -0.74126539878E+01  0.73464535025E+01  0.10773610006E+02  0.51100000000E-03 0. -1.
        -11    1    3    3    0    0 -0.19664818622E+02 -0.24255215352E+02 -0.21642916948E+02  0.37992583717E+02  0.51100000000E-03 0.  1.
         12    1    3    3    0    0  0.21333394757E+02  0.32284375934E+02  0.14264377833E+02  0.41241570488E+02  0.00000000000E+00 0. -1.
</event>
<event>
 7    1  0.2490895E-015  0.9000783E+02  0.7816164E-02  0.1186339E+00
        -11   -1    0    0    0    0  0.00000000000E+00  0.00000000000E+00  0.45593999997E+02  0.45594000000E+02  0.51100000000E-03 0.  1.
         11   -1    0    0    0    0 -0.00000000000E+00 -0.00000000000E+00 -0.45593999997E+02  0.45594000000E+02  0.51100000000E-03 0. -1.
    9900012    2    1    2    0    0  0.61445656329E+00 -0.62106836828E+00  0.79342368953E+00  0.90007828853E+02  0.90000091393E+02 0.  0.
         12    1    1    2    0    0 -0.61445656329E+00  0.62106836828E+00 -0.79342368953E+00  0.11801711475E+01  0.00000000000E+00 0. -1.
         11    1    3    3    0    0 -0.33589405269E+02 -0.17604449129E+02 -0.87283898234E+01  0.38914644603E+02  0.51100000000E-03 0. -1.
        -11    1    3    3    0    0 -0.29833035413E+01 -0.12205883064E+01  0.91356711062E+01  0.96876427811E+01  0.51100000000E-03 0.  1.
        -12    1    3    3    0    0  0.37187165373E+02  0.18203969067E+02  0.38614240673E+00  0.41405541468E+02  0.00000000000E+00 0.  1.
</event>
<event>
 7    1  0.2490895E-015  0.9000772E+02  0.7816164E-02  0.1186339E+00
        -11   -1    0    0    0    0  0.00000000000E+00  0.00000000000E+00  0.45593999997E+02  0.45594000000E+02  0.51100000000E-03 0. -1.
         11   -1    0    0    0    0 -0.00000000000E+00 -0.00000000000E+00 -0.45593999997E+02  0.45594000000E+02  0.51100000000E-03 0.  1.
    9900012    2    1    2    0    0 -0.18502897231E+00 -0.11149236648E+01 -0.34023402583E+00  0.90007724739E+02  0.89999985906E+02 0.  0.
         12    1    1    2    0    0  0.18502897231E+00  0.11149236648E+01  0.34023402583E+00  0.11802752608E+01  0.00000000000E+00 0. -1.
         11    1    3    3    0    0  0.36174002297E+01  0.36389734437E+01 -0.76174994041E+01  0.91844438905E+01  0.51100000000E-03 0. -1.
        -11    1    3    3    0    0 -0.28436962163E+02  0.25945647606E+02 -0.66613625721E+01  0.39066753107E+02  0.51100000000E-03 0.  1.
         12    1    3    3    0    0  0.24634532961E+02 -0.30699544714E+02  0.13938627950E+02  0.41756527741E+02  0.00000000000E+00 0. -1.
</event>
<event>
 7    1  0.2490895E-015  0.9000798E+02  0.7816164E-02  0.1186339E+00
        -11   -1    0    0    0    0  0.00000000000E+00  0.00000000000E+00  0.45593999997E+02  0.45594000000E+02  0.51100000000E-03 0.  1.
         11   -1    0    0    0    0 -0.00000000000E+00 -0.00000000000E+00 -0.45593999997E+02  0.45594000000E+02  0.51100000000E-03 0. -1.
    9900012    2    1    2    0    0  0.88719281648E-01  0.11760245158E+01 -0.39292720291E-01  0.90007979369E+02  0.90000243896E+02 0.  0.
         12    1    1    2    0    0 -0.88719281648E-01 -0.11760245158E+01  0.39292720291E-01  0.11800206314E+01  0.00000000000E+00 0. -1.
         11    1    3    3    0    0  0.77549466466E+01 -0.19765174167E+01 -0.44387841878E+01  0.91514274252E+01  0.51100000000E-03 0. -1.
        -11    1    3    3    0    0 -0.39582006907E+01 -0.26624190270E+02  0.30789368474E+02  0.40896210968E+02  0.51100000000E-03 0.  1.
         12    1    3    3    0    0 -0.37080266743E+01  0.29776732202E+02 -0.26389877007E+02  0.39960340976E+02  0.00000000000E+00 0. -1.
</event>
<event>
 7    1  0.2490895E-015  0.9000769E+02  0.7816164E-02  0.1186339E+00
        -11   -1    0    0    0    0  0.00000000000E+00  0.00000000000E+00  0.45593999997E+02  0.45594000000E+02  0.51100000000E-03 0. -1.
         11   -1    0    0    0    0 -0.00000000000E+00 -0.00000000000E+00 -0.45593999997E+02  0.45594000000E+02  0.51100000000E-03 0.  1.
    9900012    2    1    2    0    0 -0.45382280931E+00  0.10245907287E+01 -0.37067346461E+00  0.90007686431E+02  0.89999947092E+02 0.  0.
         12    1    1    2    0    0  0.45382280931E+00 -0.10245907287E+01  0.37067346461E+00  0.11803135689E+01  0.00000000000E+00 0. -1.
         11    1    3    3    0    0  0.95073908491E+01 -0.32496487082E+02 -0.21621888133E+02  0.40173600787E+02  0.51100000000E-03 0. -1.
        -11    1    3    3    0    0 -0.22081814192E+01 -0.13599969976E-01 -0.57036860169E+01  0.61162312399E+01  0.51100000000E-03 0.  1.
        -12    1    3    3    0    0 -0.77530322391E+01  0.33534677781E+02  0.26954900686E+02  0.43717854405E+02  0.00000000000E+00 0.  1.
</event>
<event>
 7    1  0.2490895E-015  0.9000788E+02  0.7816164E-02  0.1186339E+00
        -11   -1    0    0    0    0  0.00000000000E+00  0.00000000000E+00  0.45593999997E+02  0.45594000000E+02  0.51100000000E-03 0.  1.
         11   -1    0    0    0    0 -0.00000000000E+00 -0.00000000000E+00 -0.45593999997E+02  0.45594000000E+02  0.51100000000E-03 0. -1.
    9900012    2    1    2    0    0 -0.64365669493E+00  0.41477968908E+00  0.89797225789E+00  0.90007876995E+02  0.90000140171E+02 0.  0.
         12    1    1    2    0    0  0.64365669493E+00 -0.41477968908E+00 -0.89797225789E+00  0.11801230052E+01  0.00000000000E+00 0. -1.
         11    1    3    3    0    0 -0.23519850129E+01  0.97882331621E+01  0.47888791670E+01  0.11147856560E+02  0.51100000000E-03 0. -1.
        -11    1    3    3    0    0 -0.32193103175E+02 -0.23530869893E+02  0.71199493719E+01  0.40506683514E+02  0.51100000000E-03 0.  1.
         12    1    3    3    0    0  0.33901431493E+02  0.14157416420E+02 -0.11010856281E+02  0.38353336921E+02  0.00000000000E+00 0. -1.
</event>
<event>
 7    1  0.2490895E-015  0.9000771E+02  0.7816164E-02  0.1186339E+00
        -11   -1    0    0    0    0  0.00000000000E+00  0.00000000000E+00  0.45593999997E+02  0.45594000000E+02  0.51100000000E-03 0. -1.
         11   -1    0    0    0    0 -0.00000000000E+00 -0.00000000000E+00 -0.45593999997E+02  0.45594000000E+02  0.51100000000E-03 0.  1.
    9900012    2    1    2    0    0 -0.53007708767E-01  0.10638561823E+01 -0.50842068747E+00  0.90007707075E+02  0.89999968008E+02 0.  0.
         12    1    1    2    0    0  0.53007708767E-01 -0.10638561823E+01  0.50842068747E+00  0.11802929252E+01  0.00000000000E+00 0. -1.
         11    1    3    3    0    0  0.57351437990E+01  0.47201632923E+01  0.64921214243E+01  0.98650624301E+01  0.51100000000E-03 0. -1.
        -11    1    3    3    0    0  0.51234233221E+01 -0.27319658464E+02 -0.33126347241E+02  0.43243127626E+02  0.51100000000E-03 0.  1.
         12    1    3    3    0    0 -0.10911574830E+02  0.23663351354E+02  0.26125805129E+02  0.36899517019E+02  0.00000000000E+00 0. -1.
</event>
<event>
 7    1  0.2490895E-015  0.9000902E+02  0.7816164E-02  0.1186336E+00
        -11   -1    0    0    0    0  0.00000000000E+00  0.00000000000E+00  0.45593999997E+02  0.45594000000E+02  0.51100000000E-03 0. -1.
         11   -1    0    0    0    0 -0.00000000000E+00 -0.00000000000E+00 -0.45593999997E+02  0.45594000000E+02  0.51100000000E-03 0.  1.
    9900012    2    1    2    0    0 -0.72809296475E+00  0.51122195334E+00 -0.77365132535E+00  0.90009015851E+02  0.90001294051E+02 0.  0.
         12    1    1    2    0    0  0.72809296475E+00 -0.51122195334E+00  0.77365132535E+00  0.11789841492E+01  0.00000000000E+00 0. -1.
         11    1    3    3    0    0 -0.13761794458E+01  0.83032934328E+01  0.25489595498E+01  0.87940745247E+01  0.51100000000E-03 0. -1.
        -11    1    3    3    0    0 -0.90646196291E+01  0.33350927478E+02  0.11490383056E+02  0.36420881314E+02  0.51100000000E-03 0.  1.
         12    1    3    3    0    0  0.97127061101E+01 -0.41142998957E+02 -0.14812993931E+02  0.44794060012E+02  0.00000000000E+00 0. -1.
</event>
<event>
 7    1  0.2490895E-015  0.9000775E+02  0.7816164E-02  0.1186339E+00
        -11   -1    0    0    0    0  0.00000000000E+00  0.00000000000E+00  0.45593999997E+02  0.45594000000E+02  0.51100000000E-03 0. -1.
         11   -1    0    0    0    0 -0.00000000000E+00 -0.00000000000E+00 -0.45593999997E+02  0.45594000000E+02  0.51100000000E-03 0.  1.
    9900012    2    1    2    0    0  0.85165665484E+00  0.33580116680E+00 -0.74491714852E+00  0.90007752975E+02  0.90000014514E+02 0.  0.
         12    1    1    2    0    0 -0.85165665484E+00 -0.33580116680E+00  0.74491714852E+00  0.11802470248E+01  0.00000000000E+00 0. -1.
         11    1    3    3    0    0  0.39653457891E+02 -0.11718288889E+02  0.49373821099E+01  0.41642439405E+02  0.51100000000E-03 0. -1.
        -11    1    3    3    0    0 -0.21847943959E+00  0.63287801519E+01  0.48340186791E+01  0.79667388766E+01  0.51100000000E-03 0.  1.
        -12    1    3    3    0    0 -0.38583321796E+02  0.57253099044E+01 -0.10516317937E+02  0.40398574694E+02  0.00000000000E+00 0.  1.
</event>
<event>
 7    1  0.2490895E-015  0.9000765E+02  0.7816164E-02  0.1186339E+00
        -11   -1    0    0    0    0  0.00000000000E+00  0.00000000000E+00  0.45593999997E+02  0.45594000000E+02  0.51100000000E-03 0.  1.
         11   -1    0    0    0    0 -0.00000000000E+00 -0.00000000000E+00 -0.45593999997E+02  0.45594000000E+02  0.51100000000E-03 0. -1.
    9900012    2    1    2    0    0 -0.26829564515E+00 -0.41416842449E+00  0.10722456739E+01  0.90007648856E+02  0.89999909021E+02 0.  0.
         12    1    1    2    0    0  0.26829564515E+00  0.41416842449E+00 -0.10722456739E+01  0.11803511436E+01  0.00000000000E+00 0. -1.
         11    1    3    3    0    0 -0.10477943631E+02 -0.98475523289E+01 -0.26147517712E+01  0.14615009979E+02  0.51100000000E-03 0. -1.
        -11    1    3    3    0    0 -0.27945180839E+02 -0.90369422546E+01 -0.97134454204E+01  0.30934616203E+02  0.51100000000E-03 0.  1.
         12    1    3    3    0    0  0.38154828825E+02  0.18470326159E+02  0.13400442866E+02  0.44458022674E+02  0.00000000000E+00 0. -1.
</event>
<event>
 7    1  0.2490895E-015  0.9000780E+02  0.7816164E-02  0.1186339E+00
        -11   -1    0    0    0    0  0.00000000000E+00  0.00000000000E+00  0.45593999997E+02  0.45594000000E+02  0.51100000000E-03 0. -1.
         11   -1    0    0    0    0 -0.00000000000E+00 -0.00000000000E+00 -0.45593999997E+02  0.45594000000E+02  0.51100000000E-03 0.  1.
    9900012    2    1    2    0    0  0.40412742856E+00 -0.60155799458E+00 -0.93149240086E+00  0.90007801249E+02  0.90000063425E+02 0.  0.
         12    1    1    2    0    0 -0.40412742856E+00  0.60155799458E+00  0.93149240086E+00  0.11801987512E+01  0.00000000000E+00 0. -1.
         11    1    3    3    0    0  0.35273194306E+02 -0.13060987916E+02  0.75307822609E+01  0.38360139776E+02  0.51100000000E-03 0. -1.
        -11    1    3    3    0    0  0.24653318314E+01 -0.79791291875E+01 -0.21070392322E+01  0.86130121454E+01  0.51100000000E-03 0.  1.
        -12    1    3    3    0    0 -0.37334398709E+02  0.20438559109E+02 -0.63552354295E+01  0.43034649328E+02  0.00000000000E+00 0.  1.
</event>
<event>
 7    1  0.2490895E-015  0.9000777E+02  0.7816164E-02  0.1186339E+00
        -11   -1    0    0    0    0  0.00000000000E+00  0.00000000000E+00  0.45593999997E+02  0.45594000000E+02  0.51100000000E-03 0.  1.
         11   -1    0    0    0    0 -0.00000000000E+00 -0.00000000000E+00 -0.45593999997E+02  0.45594000000E+02  0.51100000000E-03 0. -1.
    9900012    2    1    2    0    0  0.49794538214E+00  0.10670735570E+01  0.79724447213E-01  0.90007766308E+02  0.90000028024E+02 0.  0.
         12    1    1    2    0    0 -0.49794538214E+00 -0.10670735570E+01 -0.79724447213E-01  0.11802336917E+01  0.00000000000E+00 0. -1.
         11    1    3    3    0    0  0.17298537866E+02 -0.31475140174E+02 -0.13539884263E+02  0.38382969236E+02  0.51100000000E-03 0. -1.
        -11    1    3    3    0    0 -0.46120239132E+01 -0.69672106509E+01  0.11212780433E+01  0.84303056612E+01  0.51100000000E-03 0.  1.
        -12    1    3    3    0    0 -0.12188568570E+02  0.39509424382E+02  0.12498330667E+02  0.43194491411E+02  0.00000000000E+00 0.  1.
</event>
<event>
 7    1  0.2490895E-015  0.9000780E+02  0.7816164E-02  0.1186339E+00
        -11   -1    0    0    0    0  0.00000000000E+00  0.00000000000E+00  0.45593999997E+02  0.45594000000E+02  0.51100000000E-03 0.  1.
         11   -1    0    0    0    0 -0.00000000000E+00 -0.00000000000E+00 -0.45593999997E+02  0.45594000000E+02  0.51100000000E-03 0. -1.
    9900012    2    1    2    0    0 -0.90951087520E-01 -0.63749122303E+00  0.98904271661E+00  0.90007799739E+02  0.90000061896E+02 0.  0.
         12    1    1    2    0    0  0.90951087520E-01  0.63749122303E+00 -0.98904271661E+00  0.11802002606E+01  0.00000000000E+00 0. -1.
         11    1    3    3    0    0 -0.22482118901E+02 -0.31792131223E+02  0.24516997928E+01  0.39015331731E+02  0.51100000000E-03 0. -1.
        -11    1    3    3    0    0  0.11973086566E+02 -0.12911240383E+00 -0.11422429871E+02  0.16548213691E+02  0.51100000000E-03 0.  1.
        -12    1    3    3    0    0  0.10418081247E+02  0.31283752404E+02  0.99597727951E+01  0.34444254317E+02  0.00000000000E+00 0.  1.
</event>
<event>
 7    1  0.2490895E-015  0.9000771E+02  0.7816164E-02  0.1186339E+00
        -11   -1    0    0    0    0  0.00000000000E+00  0.00000000000E+00  0.45593999997E+02  0.45594000000E+02  0.51100000000E-03 0.  1.
         11   -1    0    0    0    0 -0.00000000000E+00 -0.00000000000E+00 -0.45593999997E+02  0.45594000000E+02  0.51100000000E-03 0. -1.
    9900012    2    1    2    0    0  0.11724806406E+01  0.13295456842E+00 -0.26300656911E-01  0.90007712114E+02  0.89999973114E+02 0.  0.
         12    1    1    2    0    0 -0.11724806406E+01 -0.13295456842E+00  0.26300656911E-01  0.11802878863E+01  0.00000000000E+00 0. -1.
         11    1    3    3    0    0 -0.18815900899E+01 -0.10777916468E+02 -0.35385400843E+02  0.37038229679E+02  0.51100000000E-03 0. -1.
        -11    1    3    3    0    0 -0.64645822422E+01 -0.82109252237E+01 -0.13106709925E+01  0.10532235058E+02  0.51100000000E-03 0.  1.
        -12    1    3    3    0    0  0.95186529728E+01  0.19121796261E+02  0.36669771179E+02  0.42437247377E+02  0.00000000000E+00 0.  1.
</event>
<event>
 7    1  0.2490895E-015  0.9000794E+02  0.7816164E-02  0.1186339E+00
        -11   -1    0    0    0    0  0.00000000000E+00  0.00000000000E+00  0.45593999997E+02  0.45594000000E+02  0.51100000000E-03 0. -1.
         11   -1    0    0    0    0 -0.00000000000E+00 -0.00000000000E+00 -0.45593999997E+02  0.45594000000E+02  0.51100000000E-03 0.  1.
    9900012    2    1    2    0    0  0.11570575658E+01 -0.23166783315E+00 -0.10012843374E-01  0.90007935403E+02  0.90000199350E+02 0.  0.
         12    1    1    2    0    0 -0.11570575658E+01  0.23166783315E+00  0.10012843374E-01  0.11800645968E+01  0.00000000000E+00 0. -1.
         11    1    3    3    0    0  0.30922378494E+00  0.93056970226E+01 -0.41616986123E+01  0.10198595591E+02  0.51100000000E-03 0. -1.
        -11    1    3    3    0    0 -0.48768642207E+01  0.33029822539E+02 -0.95491437303E+01  0.34726634272E+02  0.51100000000E-03 0.  1.
         12    1    3    3    0    0  0.57246980016E+01 -0.42567187395E+02  0.13700829499E+02  0.45082705541E+02  0.00000000000E+00 0. -1.
</event>
<event>
 7    1  0.2490895E-015  0.9000777E+02  0.7816164E-02  0.1186339E+00
        -11   -1    0    0    0    0  0.00000000000E+00  0.00000000000E+00  0.45593999997E+02  0.45594000000E+02  0.51100000000E-03 0. -1.
         11   -1    0    0    0    0 -0.00000000000E+00 -0.00000000000E+00 -0.45593999997E+02  0.45594000000E+02  0.51100000000E-03 0.  1.
    9900012    2    1    2    0    0  0.10811364238E+00  0.11591196344E+01 -0.19417310239E+00  0.90007766938E+02  0.90000028662E+02 0.  0.
         12    1    1    2    0    0 -0.10811364238E+00 -0.11591196344E+01  0.19417310239E+00  0.11802330618E+01  0.00000000000E+00 0. -1.
         11    1    3    3    0    0 -0.82471675599E+01 -0.41504968273E+01 -0.52826712081E+01  0.10637152440E+02  0.51100000000E-03 0. -1.
        -11    1    3    3    0    0  0.98707558314E+01  0.31814418099E+01 -0.36375189312E+02  0.37824698153E+02  0.51100000000E-03 0.  1.
         12    1    3    3    0    0 -0.15154746291E+01  0.21281746517E+01  0.41463687417E+02  0.41545916345E+02  0.00000000000E+00 0. -1.
</event>
<event>
 7    1  0.2490895E-015  0.9000776E+02  0.7816164E-02  0.1186339E+00
        -11   -1    0    0    0    0  0.00000000000E+00  0.00000000000E+00  0.45593999997E+02  0.45594000000E+02  0.51100000000E-03 0.  1.
         11   -1    0    0    0    0 -0.00000000000E+00 -0.00000000000E+00 -0.45593999997E+02  0.45594000000E+02  0.51100000000E-03 0. -1.
    9900012    2    1    2    0    0  0.11736088407E+01 -0.12451020967E+00 -0.10459964894E-01  0.90007758536E+02  0.90000020148E+02 0.  0.
         12    1    1    2    0    0 -0.11736088407E+01  0.12451020967E+00  0.10459964894E-01  0.11802414644E+01  0.00000000000E+00 0. -1.
         11    1    3    3    0    0  0.94538856201E+01  0.25926863124E+02 -0.26095167486E+02  0.37980731314E+02  0.51100000000E-03 0. -1.
        -11    1    3    3    0    0 -0.74182978552E+01  0.39898569688E+01 -0.41556807234E+01  0.93925387535E+01  0.51100000000E-03 0.  1.
        -12    1    3    3    0    0 -0.86197892410E+00 -0.30041230302E+02  0.30240388245E+02  0.42634488468E+02  0.00000000000E+00 0.  1.
</event>
<event>
 7    1  0.2490895E-015  0.9000778E+02  0.7816164E-02  0.1186339E+00
        -11   -1    0    0    0    0  0.00000000000E+00  0.00000000000E+00  0.45593999997E+02  0.45594000000E+02  0.51100000000E-03 0.  1.
         11   -1    0    0    0    0 -0.00000000000E+00 -0.00000000000E+00 -0.45593999997E+02  0.45594000000E+02  0.51100000000E-03 0. -1.
    9900012    2    1    2    0    0 -0.10656300714E+01  0.36357499724E+00 -0.35377046852E+00  0.90007784862E+02  0.90000046822E+02 0.  0.
         12    1    1    2    0    0  0.10656300714E+01 -0.36357499724E+00  0.35377046852E+00  0.11802151381E+01  0.00000000000E+00 0. -1.
         11    1    3    3    0    0 -0.55382019779E+01  0.32749547843E+02 -0.16382695460E+02  0.37035081691E+02  0.51100000000E-03 0. -1.
        -11    1    3    3    0    0 -0.56364807503E+01  0.74770503933E+01  0.31026876074E+01  0.98642216360E+01  0.51100000000E-03 0.  1.
        -12    1    3    3    0    0  0.10109052657E+02 -0.39863023239E+02  0.12926237384E+02  0.43108481535E+02  0.00000000000E+00 0.  1.
</event>
<event>
 7    1  0.2490895E-015  0.9000782E+02  0.7816164E-02  0.1186339E+00
        -11   -1    0    0    0    0  0.00000000000E+00  0.00000000000E+00  0.45593999997E+02  0.45594000000E+02  0.51100000000E-03 0.  1.
         11   -1    0    0    0    0 -0.00000000000E+00 -0.00000000000E+00 -0.45593999997E+02  0.45594000000E+02  0.51100000000E-03 0. -1.
    9900012    2    1    2    0    0 -0.57245362993E+00  0.10142361745E+01  0.19091492192E+00  0.90007819216E+02  0.90000081629E+02 0.  0.
         12    1    1    2    0    0  0.57245362993E+00 -0.10142361745E+01 -0.19091492192E+00  0.11801807843E+01  0.00000000000E+00 0. -1.
         11    1    3    3    0    0  0.21729792090E+01  0.36811173709E+01  0.85366052510E+01  0.95470463083E+01  0.51100000000E-03 0. -1.
        -11    1    3    3    0    0  0.17107455498E+02  0.53393790929E+01  0.30920480251E+02  0.35738635983E+02  0.51100000000E-03 0.  1.
         12    1    3    3    0    0 -0.19852888337E+02 -0.80062602893E+01 -0.39266170580E+02  0.44722136925E+02  0.00000000000E+00 0. -1.
</event>
<event>
 7    1  0.2490895E-015  0.9000760E+02  0.7816164E-02  0.1186339E+00
        -11   -1    0    0    0    0  0.00000000000E+00  0.00000000000E+00  0.45593999997E+02  0.45594000000E+02  0.51100000000E-03 0. -1.
         11   -1    0    0    0    0 -0.00000000000E+00 -0.00000000000E+00 -0.45593999997E+02  0.45594000000E+02  0.51100000000E-03 0.  1.
    9900012    2    1    2    0    0 -0.94540911983E+00 -0.29835522651E+00 -0.64073193572E+00  0.90007596824E+02  0.89999856302E+02 0.  0.
         12    1    1    2    0    0  0.94540911983E+00  0.29835522651E+00  0.64073193572E+00  0.11804031762E+01  0.00000000000E+00 0. -1.
         11    1    3    3    0    0  0.31406159544E+02  0.15116926985E+02 -0.25333293931E+01  0.34946903967E+02  0.51100000000E-03 0. -1.
        -11    1    3    3    0    0  0.71107646485E+01  0.66395441065E+01  0.15556400457E+01  0.98522350785E+01  0.51100000000E-03 0.  1.
        -12    1    3    3    0    0 -0.39462333313E+02 -0.22054826318E+02  0.33695741170E+00  0.45208457778E+02  0.00000000000E+00 0.  1.
</event>
<event>
 7    1  0.2656280E-015  0.9000770E+02  0.7816164E-02  0.1186339E+00
        -11   -1    0    0    0    0  0.00000000000E+00  0.00000000000E+00  0.45593999997E+02  0.45594000000E+02  0.51100000000E-03 0. -1.
         11   -1    0    0    0    0 -0.00000000000E+00 -0.00000000000E+00 -0.45593999997E+02  0.45594000000E+02  0.51100000000E-03 0.  1.
    9900012    2    1    2    0    0 -0.78586210417E+00 -0.41079620874E+00 -0.77895551644E+00  0.90007701534E+02  0.89999962394E+02 0.  0.
         12    1    1    2    0    0  0.78586210417E+00  0.41079620874E+00  0.77895551644E+00  0.11802984658E+01  0.00000000000E+00 0. -1.
         11    1    3    3    0    0 -0.11419272360E+02 -0.19268657525E+02  0.29376935777E+02  0.36941647228E+02  0.51100000000E-03 0. -1.
        -11    1    3    3    0    0 -0.87945851495E+00 -0.75003935057E+01  0.38915716000E+01  0.84955093902E+01  0.51100000000E-03 0.  1.
        -12    1    3    3    0    0  0.11512868770E+02  0.26358254822E+02 -0.34047462893E+02  0.44570544916E+02  0.00000000000E+00 0.  1.
</event>
<event>
 7    1  0.2490895E-015  0.9000778E+02  0.7816164E-02  0.1186339E+00
        -11   -1    0    0    0    0  0.00000000000E+00  0.00000000000E+00  0.45593999997E+02  0.45594000000E+02  0.51100000000E-03 0. -1.
         11   -1    0    0    0    0 -0.00000000000E+00 -0.00000000000E+00 -0.45593999997E+02  0.45594000000E+02  0.51100000000E-03 0.  1.
    9900012    2    1    2    0    0 -0.18157727141E+00  0.19053992827E+00 -0.11504945771E+01  0.90007782418E+02  0.90000044346E+02 0.  0.
         12    1    1    2    0    0  0.18157727141E+00 -0.19053992827E+00  0.11504945771E+01  0.11802175824E+01  0.00000000000E+00 0. -1.
         11    1    3    3    0    0  0.95946377724E+01  0.88508312431E+01  0.96862397068E+01  0.16254769380E+02  0.51100000000E-03 0. -1.
        -11    1    3    3    0    0  0.13021293718E+02 -0.32502884022E+02 -0.18906418830E+02  0.39792514787E+02  0.51100000000E-03 0.  1.
         12    1    3    3    0    0 -0.22797508762E+02  0.23842592707E+02  0.80696845461E+01  0.33960498250E+02  0.00000000000E+00 0. -1.
</event>
<event>
 7    1  0.2490895E-015  0.9000770E+02  0.7816164E-02  0.1186339E+00
        -11   -1    0    0    0    0  0.00000000000E+00  0.00000000000E+00  0.45593999997E+02  0.45594000000E+02  0.51100000000E-03 0. -1.
         11   -1    0    0    0    0 -0.00000000000E+00 -0.00000000000E+00 -0.45593999997E+02  0.45594000000E+02  0.51100000000E-03 0.  1.
    9900012    2    1    2    0    0 -0.50933572433E+00  0.10641258512E+01 -0.36213864743E-01  0.90007704210E+02  0.89999965106E+02 0.  0.
         12    1    1    2    0    0  0.50933572433E+00 -0.10641258512E+01  0.36213864743E-01  0.11802957898E+01  0.00000000000E+00 0. -1.
         11    1    3    3    0    0 -0.42200548444E+01 -0.26433682811E+01 -0.74322656721E+01  0.89462188684E+01  0.51100000000E-03 0. -1.
        -11    1    3    3    0    0  0.16459842313E+02 -0.32225561693E+02 -0.12207275687E+02  0.38189407109E+02  0.51100000000E-03 0.  1.
         12    1    3    3    0    0 -0.12749123193E+02  0.35933055826E+02  0.19603327494E+02  0.42872078233E+02  0.00000000000E+00 0. -1.
</event>
<event>
 7    1  0.2490895E-015  0.9000775E+02  0.7816164E-02  0.1186339E+00
        -11   -1    0    0    0    0  0.00000000000E+00  0.00000000000E+00  0.45593999997E+02  0.45594000000E+02  0.51100000000E-03 0.  1.
         11   -1    0    0    0    0 -0.00000000000E+00 -0.00000000000E+00 -0.45593999997E+02  0.45594000000E+02  0.51100000000E-03 0. -1.
    9900012    2    1    2    0    0  0.23746400547E+00  0.90600040503E+00  0.71816458010E+00  0.90007751614E+02  0.90000013136E+02 0.  0.
         12    1    1    2    0    0 -0.23746400547E+00 -0.90600040503E+00 -0.71816458010E+00  0.11802483857E+01  0.00000000000E+00 0. -1.
         11    1    3    3    0    0 -0.68961224553E+01  0.32944567905E+01  0.97194285517E+00  0.77041951973E+01  0.51100000000E-03 0. -1.
        -11    1    3    3    0    0 -0.21041972183E+02 -0.31070319626E+02  0.13395029181E+02  0.39844148404E+02  0.51100000000E-03 0.  1.
         12    1    3    3    0    0  0.28175558644E+02  0.28681863240E+02 -0.13648807456E+02  0.42459408013E+02  0.00000000000E+00 0. -1.
</event>
<event>
 7    1  0.2490895E-015  0.9000778E+02  0.7816164E-02  0.1186339E+00
        -11   -1    0    0    0    0  0.00000000000E+00  0.00000000000E+00  0.45593999997E+02  0.45594000000E+02  0.51100000000E-03 0.  1.
         11   -1    0    0    0    0 -0.00000000000E+00 -0.00000000000E+00 -0.45593999997E+02  0.45594000000E+02  0.51100000000E-03 0. -1.
    9900012    2    1    2    0    0 -0.72122292265E+00  0.27732965139E-02  0.93421272307E+00  0.90007778153E+02  0.90000040025E+02 0.  0.
         12    1    1    2    0    0  0.72122292265E+00 -0.27732965139E-02 -0.93421272307E+00  0.11802218466E+01  0.00000000000E+00 0. -1.
         11    1    3    3    0    0 -0.31922774597E+02  0.23873659829E+02 -0.25846888479E+01  0.39946161121E+02  0.51100000000E-03 0. -1.
        -11    1    3    3    0    0  0.11248678168E+01  0.23319414918E+01  0.93915163844E+01  0.97418611664E+01  0.51100000000E-03 0.  1.
        -12    1    3    3    0    0  0.30076683857E+02 -0.26202828025E+02 -0.58726148134E+01  0.40319755866E+02  0.00000000000E+00 0.  1.
</event>
<event>
 7    1  0.2490895E-015  0.9000772E+02  0.7816164E-02  0.1186339E+00
        -11   -1    0    0    0    0  0.00000000000E+00  0.00000000000E+00  0.45593999997E+02  0.45594000000E+02  0.51100000000E-03 0. -1.
         11   -1    0    0    0    0 -0.00000000000E+00 -0.00000000000E+00 -0.45593999997E+02  0.45594000000E+02  0.51100000000E-03 0.  1.
    9900012    2    1    2    0    0  0.31553472322E-01  0.52858873445E+00 -0.10548258054E+01  0.90007720732E+02  0.89999981845E+02 0.  0.
         12    1    1    2    0    0 -0.31553472322E-01 -0.52858873445E+00  0.10548258054E+01  0.11802792685E+01  0.00000000000E+00 0. -1.
         11    1    3    3    0    0  0.51632187039E+01 -0.72982742043E+01  0.52336947832E+01  0.10359304759E+02  0.51100000000E-03 0. -1.
        -11    1    3    3    0    0 -0.31617881119E+01 -0.24984606519E+02 -0.29962142243E+02  0.39140227836E+02  0.51100000000E-03 0.  1.
         12    1    3    3    0    0 -0.19698771197E+01  0.32811469458E+02  0.23673621655E+02  0.40508188137E+02  0.00000000000E+00 0. -1.
</event>
<event>
 7    1  0.2490895E-015  0.9000783E+02  0.7816164E-02  0.1186339E+00
        -11   -1    0    0    0    0  0.00000000000E+00  0.00000000000E+00  0.45593999997E+02  0.45594000000E+02  0.51100000000E-03 0.  1.
         11   -1    0    0    0    0 -0.00000000000E+00 -0.00000000000E+00 -0.45593999997E+02  0.45594000000E+02  0.51100000000E-03 0. -1.
    9900012    2    1    2    0    0 -0.10149517618E+01 -0.58135436284E+00  0.15716938571E+00  0.90007829593E+02  0.90000092143E+02 0.  0.
         12    1    1    2    0    0  0.10149517618E+01  0.58135436284E+00 -0.15716938571E+00  0.11801704071E+01  0.00000000000E+00 0. -1.
         11    1    3    3    0    0 -0.48216424969E+01 -0.74808725698E+00  0.70251004474E+01  0.85533565031E+01  0.51100000000E-03 0. -1.
        -11    1    3    3    0    0  0.11475463303E+02  0.46690265656E+01  0.35793053476E+02  0.37876493298E+02  0.51100000000E-03 0.  1.
         12    1    3    3    0    0 -0.76687725685E+01 -0.45022936714E+01 -0.42660984538E+02  0.43577979792E+02  0.00000000000E+00 0. -1.
</event>
<event>
 7    1  0.2490895E-015  0.9000775E+02  0.7816164E-02  0.1186339E+00
        -11   -1    0    0    0    0  0.00000000000E+00  0.00000000000E+00  0.45593999997E+02  0.45594000000E+02  0.51100000000E-03 0.  1.
         11   -1    0    0    0    0 -0.00000000000E+00 -0.00000000000E+00 -0.45593999997E+02  0.45594000000E+02  0.51100000000E-03 0. -1.
    9900012    2    1    2    0    0  0.63576739170E+00  0.47927850177E+00  0.87124664252E+00  0.90007754784E+02  0.90000016347E+02 0.  0.
         12    1    1    2    0    0 -0.63576739170E+00 -0.47927850177E+00 -0.87124664252E+00  0.11802452163E+01  0.00000000000E+00 0. -1.
         11    1    3    3    0    0  0.36768259034E+02 -0.18567123015E+02  0.21902582976E+00  0.41190908002E+02  0.51100000000E-03 0. -1.
        -11    1    3    3    0    0 -0.64420886400E+01 -0.61097469133E+01 -0.37816201238E+01  0.96503971116E+01  0.51100000000E-03 0.  1.
        -12    1    3    3    0    0 -0.29690403003E+02  0.25156148430E+02  0.44338409365E+01  0.39166449670E+02  0.00000000000E+00 0.  1.
</event>
<event>
 7    1  0.2490895E-015  0.9000793E+02  0.7816164E-02  0.1186339E+00
        -11   -1    0    0    0    0  0.00000000000E+00  0.00000000000E+00  0.45593999997E+02  0.45594000000E+02  0.51100000000E-03 0.  1.
         11   -1    0    0    0    0 -0.00000000000E+00 -0.00000000000E+00 -0.45593999997E+02  0.45594000000E+02  0.51100000000E-03 0. -1.
    9900012    2    1    2    0    0  0.11465325085E+01 -0.14693737728E+00  0.23758066350E+00  0.90007927139E+02  0.90000190977E+02 0.  0.
         12    1    1    2    0    0 -0.11465325085E+01  0.14693737728E+00 -0.23758066350E+00  0.11800728612E+01  0.00000000000E+00 0. -1.
         11    1    3    3    0    0  0.13958286814E+02  0.33823291547E+01  0.20155169160E+02  0.24748833618E+02  0.51100000000E-03 0. -1.
        -11    1    3    3    0    0  0.15582158263E+02 -0.22678580419E+02 -0.52970696529E+01  0.28021074446E+02  0.51100000000E-03 0.  1.
         12    1    3    3    0    0 -0.28393912569E+02  0.19149313887E+02 -0.14620518844E+02  0.37238019074E+02  0.00000000000E+00 0. -1.
</event>
<event>
 7    1  0.2490895E-015  0.9000787E+02  0.7816164E-02  0.1186339E+00
        -11   -1    0    0    0    0  0.00000000000E+00  0.00000000000E+00  0.45593999997E+02  0.45594000000E+02  0.51100000000E-03 0.  1.
         11   -1    0    0    0    0 -0.00000000000E+00 -0.00000000000E+00 -0.45593999997E+02  0.45594000000E+02  0.51100000000E-03 0. -1.
    9900012    2    1    2    0    0  0.10663174553E+01  0.50520839895E+00  0.21023927891E-01  0.90007868462E+02  0.90000131525E+02 0.  0.
         12    1    1    2    0    0 -0.10663174553E+01 -0.50520839895E+00 -0.21023927891E-01  0.11801315381E+01  0.00000000000E+00 0. -1.
         11    1    3    3    0    0  0.22126240324E+02 -0.26333651468E+02  0.10002833447E+02  0.35820223167E+02  0.51100000000E-03 0. -1.
        -11    1    3    3    0    0  0.73639304510E+01 -0.10132034469E+01  0.76453623331E+01  0.10663283658E+02  0.51100000000E-03 0.  1.
        -12    1    3    3    0    0 -0.28423853319E+02  0.27852063314E+02 -0.17627171852E+02  0.43524361637E+02  0.00000000000E+00 0.  1.
</event>
<event>
 7    1  0.2490895E-015  0.9000787E+02  0.7816164E-02  0.1186339E+00
        -11   -1    0    0    0    0  0.00000000000E+00  0.00000000000E+00  0.45593999997E+02  0.45594000000E+02  0.51100000000E-03 0.  1.
         11   -1    0    0    0    0 -0.00000000000E+00 -0.00000000000E+00 -0.45593999997E+02  0.45594000000E+02  0.51100000000E-03 0. -1.
    9900012    2    1    2    0    0  0.10589582206E+01  0.51335927620E+00  0.88209861602E-01  0.90007868126E+02  0.90000131186E+02 0.  0.
         12    1    1    2    0    0 -0.10589582206E+01 -0.51335927620E+00 -0.88209861602E-01  0.11801318736E+01  0.00000000000E+00 0. -1.
         11    1    3    3    0    0 -0.24197379263E+02 -0.20503929110E+02  0.17191724886E+02  0.36076026347E+02  0.51100000000E-03 0. -1.
        -11    1    3    3    0    0 -0.75833598483E+01  0.15100753196E+02 -0.11258454415E+01  0.16935395534E+02  0.51100000000E-03 0.  1.
        -12    1    3    3    0    0  0.32839697332E+02  0.59165351904E+01 -0.15977669583E+02  0.36996446246E+02  0.00000000000E+00 0.  1.
</event>
<event>
 7    1  0.2490895E-015  0.9000781E+02  0.7816164E-02  0.1186339E+00
        -11   -1    0    0    0    0  0.00000000000E+00  0.00000000000E+00  0.45593999997E+02  0.45594000000E+02  0.51100000000E-03 0.  1.
         11   -1    0    0    0    0 -0.00000000000E+00 -0.00000000000E+00 -0.45593999997E+02  0.45594000000E+02  0.51100000000E-03 0. -1.
    9900012    2    1    2    0    0 -0.81955584471E+00 -0.85561756965E-01  0.84489372666E+00  0.90007814419E+02  0.90000076769E+02 0.  0.
         12    1    1    2    0    0  0.81955584471E+00  0.85561756965E-01 -0.84489372666E+00  0.11801855813E+01  0.00000000000E+00 0. -1.
         11    1    3    3    0    0  0.31128791013E+02 -0.15869742716E+02  0.60772792483E+00  0.34945953947E+02  0.51100000000E-03 0. -1.
        -11    1    3    3    0    0 -0.30474499857E+01 -0.96871459704E+01 -0.10962633348E+02  0.14943462740E+02  0.51100000000E-03 0.  1.
        -12    1    3    3    0    0 -0.28900896872E+02  0.25471326929E+02  0.11199799150E+02  0.40118397732E+02  0.00000000000E+00 0.  1.
</event>
<event>
 7    1  0.2490895E-015  0.9000775E+02  0.7816164E-02  0.1186339E+00
        -11   -1    0    0    0    0  0.00000000000E+00  0.00000000000E+00  0.45593999997E+02  0.45594000000E+02  0.51100000000E-03 0.  1.
         11   -1    0    0    0    0 -0.00000000000E+00 -0.00000000000E+00 -0.45593999997E+02  0.45594000000E+02  0.51100000000E-03 0. -1.
    9900012    2    1    2    0    0  0.16612800658E+00 -0.11517653649E+01 -0.19706205295E+00  0.90007747729E+02  0.90000009199E+02 0.  0.
         12    1    1    2    0    0 -0.16612800658E+00  0.11517653649E+01  0.19706205295E+00  0.11802522710E+01  0.00000000000E+00 0. -1.
         11    1    3    3    0    0  0.13775227745E+02  0.28533482699E+02 -0.21284681936E+02  0.38170069685E+02  0.51100000000E-03 0. -1.
        -11    1    3    3    0    0  0.86195004927E+01 -0.87084521605E+00 -0.17976998727E+01  0.88479311270E+01  0.51100000000E-03 0.  1.
        -12    1    3    3    0    0 -0.22228600231E+02 -0.28814402847E+02  0.22885319756E+02  0.42989746917E+02  0.00000000000E+00 0.  1.
</event>
<event>
 7    1  0.2490895E-015  0.9000778E+02  0.7816164E-02  0.1186339E+00
        -11   -1    0    0    0    0  0.00000000000E+00  0.00000000000E+00  0.45593999997E+02  0.45594000000E+02  0.51100000000E-03 0.  1.
         11   -1    0    0    0    0 -0.00000000000E+00 -0.00000000000E+00 -0.45593999997E+02  0.45594000000E+02  0.51100000000E-03 0. -1.
    9900012    2    1    2    0    0 -0.93311035496E+00  0.70774866271E+00  0.14596211919E+00  0.90007784747E+02  0.90000046705E+02 0.  0.
         12    1    1    2    0    0  0.93311035496E+00 -0.70774866271E+00 -0.14596211919E+00  0.11802152534E+01  0.00000000000E+00 0. -1.
         11    1    3    3    0    0 -0.12592951387E+02 -0.63651713938E+01 -0.25402788362E+01  0.14337044617E+02  0.51100000000E-03 0. -1.
        -11    1    3    3    0    0  0.18276878156E+02 -0.25397743984E+02  0.21119595368E+02  0.37750854075E+02  0.51100000000E-03 0.  1.
         12    1    3    3    0    0 -0.66170371238E+01  0.32470664041E+02 -0.18433354412E+02  0.37919886055E+02  0.00000000000E+00 0. -1.
</event>
<event>
 7    1  0.2490895E-015  0.9000797E+02  0.7816164E-02  0.1186339E+00
        -11   -1    0    0    0    0  0.00000000000E+00  0.00000000000E+00  0.45593999997E+02  0.45594000000E+02  0.51100000000E-03 0.  1.
         11   -1    0    0    0    0 -0.00000000000E+00 -0.00000000000E+00 -0.45593999997E+02  0.45594000000E+02  0.51100000000E-03 0. -1.
    9900012    2    1    2    0    0  0.96840643974E+00  0.26946317620E+00  0.61810940381E+00  0.90007965818E+02  0.90000230166E+02 0.  0.
         12    1    1    2    0    0 -0.96840643974E+00 -0.26946317620E+00 -0.61810940381E+00  0.11800341821E+01  0.00000000000E+00 0. -1.
         11    1    3    3    0    0 -0.89882159514E+01 -0.30386180672E+01 -0.36854555983E+01  0.10178595629E+02  0.51100000000E-03 0. -1.
        -11    1    3    3    0    0  0.52594765152E+01  0.39347665037E+02 -0.97250674163E+01  0.40871478730E+02  0.51100000000E-03 0.  1.
         12    1    3    3    0    0  0.46971458759E+01 -0.36039583794E+02  0.14028632418E+02  0.38957891459E+02  0.00000000000E+00 0. -1.
</event>
<event>
 7    1  0.2490895E-015  0.9000780E+02  0.7816164E-02  0.1186339E+00
        -11   -1    0    0    0    0  0.00000000000E+00  0.00000000000E+00  0.45593999997E+02  0.45594000000E+02  0.51100000000E-03 0.  1.
         11   -1    0    0    0    0 -0.00000000000E+00 -0.00000000000E+00 -0.45593999997E+02  0.45594000000E+02  0.51100000000E-03 0. -1.
    9900012    2    1    2    0    0 -0.10927643057E+01  0.37632311154E+00  0.23897406432E+00  0.90007804459E+02  0.90000066678E+02 0.  0.
         12    1    1    2    0    0  0.10927643057E+01 -0.37632311154E+00 -0.23897406432E+00  0.11801955412E+01  0.00000000000E+00 0. -1.
         11    1    3    3    0    0  0.34917192353E+00 -0.33669297664E+02 -0.42206303513E+01  0.33934602503E+02  0.51100000000E-03 0. -1.
        -11    1    3    3    0    0 -0.40294583692E+01 -0.74273854750E+01 -0.90471102577E+01  0.12379531252E+02  0.51100000000E-03 0.  1.
        -12    1    3    3    0    0  0.25875221400E+01  0.41473006251E+02  0.13506714673E+02  0.43693670704E+02  0.00000000000E+00 0.  1.
</event>
<event>
 7    1  0.2490895E-015  0.9000766E+02  0.7816164E-02  0.1186339E+00
        -11   -1    0    0    0    0  0.00000000000E+00  0.00000000000E+00  0.45593999997E+02  0.45594000000E+02  0.51100000000E-03 0.  1.
         11   -1    0    0    0    0 -0.00000000000E+00 -0.00000000000E+00 -0.45593999997E+02  0.45594000000E+02  0.51100000000E-03 0. -1.
    9900012    2    1    2    0    0 -0.10963082599E+01  0.40263826173E+00 -0.17087375888E+00  0.90007658011E+02  0.89999918296E+02 0.  0.
         12    1    1    2    0    0  0.10963082599E+01 -0.40263826173E+00  0.17087375888E+00  0.11803419894E+01  0.00000000000E+00 0. -1.
         11    1    3    3    0    0  0.94200059594E+01  0.10456126550E+02 -0.19050555830E+02  0.23685243769E+02  0.51100000000E-03 0. -1.
        -11    1    3    3    0    0  0.39076935907E+01 -0.16958192296E+02 -0.18661790058E+02  0.25516911325E+02  0.51100000000E-03 0.  1.
         12    1    3    3    0    0 -0.14424007810E+02  0.69047040073E+01  0.37541472129E+02  0.40805502917E+02  0.00000000000E+00 0. -1.
</event>
<event>
 7    1  0.2490895E-015  0.9000784E+02  0.7816164E-02  0.1186339E+00
        -11   -1    0    0    0    0  0.00000000000E+00  0.00000000000E+00  0.45593999997E+02  0.45594000000E+02  0.51100000000E-03 0.  1.
         11   -1    0    0    0    0 -0.00000000000E+00 -0.00000000000E+00 -0.45593999997E+02  0.45594000000E+02  0.51100000000E-03 0. -1.
    9900012    2    1    2    0    0 -0.40211041954E+00 -0.17207841633E-01  0.11094051580E+01  0.90007843780E+02  0.90000106518E+02 0.  0.
         12    1    1    2    0    0  0.40211041954E+00  0.17207841633E-01 -0.11094051580E+01  0.11801562201E+01  0.00000000000E+00 0. -1.
         11    1    3    3    0    0  0.53037704624E+01  0.84623823455E+01  0.22203523601E+01  0.10230926690E+02  0.51100000000E-03 0. -1.
        -11    1    3    3    0    0  0.58357145098E+01  0.34533170901E+02 -0.33753623647E+01  0.35185061144E+02  0.51100000000E-03 0.  1.
         12    1    3    3    0    0 -0.11541595392E+02 -0.43012761089E+02  0.22644151625E+01  0.44591855946E+02  0.00000000000E+00 0. -1.
</event>
<event>
 7    1  0.3405004E-015  0.9000769E+02  0.7816164E-02  0.1186339E+00
        -11   -1    0    0    0    0  0.00000000000E+00  0.00000000000E+00  0.45593999997E+02  0.45594000000E+02  0.51100000000E-03 0. -1.
         11   -1    0    0    0    0 -0.00000000000E+00 -0.00000000000E+00 -0.45593999997E+02  0.45594000000E+02  0.51100000000E-03 0.  1.
    9900012    2    1    2    0    0 -0.71806556044E+00  0.58105466780E+00 -0.73477577418E+00  0.90007687281E+02  0.89999947953E+02 0.  0.
         12    1    1    2    0    0  0.71806556044E+00 -0.58105466780E+00  0.73477577418E+00  0.11803127189E+01  0.00000000000E+00 0. -1.
         11    1    3    3    0    0 -0.34704097877E+02 -0.19349308982E+02  0.71949235493E+01  0.40379909518E+02  0.51100000000E-03 0. -1.
        -11    1    3    3    0    0  0.50406416553E+01 -0.75486089467E+01 -0.16334736064E+01  0.92226786570E+01  0.51100000000E-03 0.  1.
        -12    1    3    3    0    0  0.28945390661E+02  0.27478972596E+02 -0.62962257171E+01  0.40405099106E+02  0.00000000000E+00 0.  1.
</event>
<event>
 7    1  0.2490895E-015  0.9000769E+02  0.7816164E-02  0.1186339E+00
        -11   -1    0    0    0    0  0.00000000000E+00  0.00000000000E+00  0.45593999997E+02  0.45594000000E+02  0.51100000000E-03 0. -1.
         11   -1    0    0    0    0 -0.00000000000E+00 -0.00000000000E+00 -0.45593999997E+02  0.45594000000E+02  0.51100000000E-03 0.  1.
    9900012    2    1    2    0    0  0.86137582934E+00 -0.73084523522E+00  0.34209232642E+00  0.90007690618E+02  0.89999951334E+02 0.  0.
         12    1    1    2    0    0 -0.86137582934E+00  0.73084523522E+00 -0.34209232642E+00  0.11803093819E+01  0.00000000000E+00 0. -1.
         11    1    3    3    0    0 -0.16569746112E+02 -0.25525711794E+02  0.23460127910E+02  0.38425200723E+02  0.51100000000E-03 0. -1.
        -11    1    3    3    0    0 -0.50477396261E+01 -0.46438336912E+01 -0.10325392440E+02  0.12395910454E+02  0.51100000000E-03 0.  1.
        -12    1    3    3    0    0  0.22478861567E+02  0.29438700250E+02 -0.12792643144E+02  0.39186579442E+02  0.00000000000E+00 0.  1.
</event>
<event>
 7    1  0.2490895E-015  0.9000770E+02  0.7816164E-02  0.1186339E+00
        -11   -1    0    0    0    0  0.00000000000E+00  0.00000000000E+00  0.45593999997E+02  0.45594000000E+02  0.51100000000E-03 0.  1.
         11   -1    0    0    0    0 -0.00000000000E+00 -0.00000000000E+00 -0.45593999997E+02  0.45594000000E+02  0.51100000000E-03 0. -1.
    9900012    2    1    2    0    0 -0.53074634181E+00  0.73156597236E+00  0.75909350219E+00  0.90007701988E+02  0.89999962855E+02 0.  0.
         12    1    1    2    0    0  0.53074634181E+00 -0.73156597236E+00 -0.75909350219E+00  0.11802980117E+01  0.00000000000E+00 0. -1.
         11    1    3    3    0    0 -0.42316491805E+01 -0.49642297492E+01 -0.81300615891E+01  0.10423451132E+02  0.51100000000E-03 0. -1.
        -11    1    3    3    0    0 -0.29707889340E+00 -0.23097713694E+02 -0.25598043483E+02  0.34479739909E+02  0.51100000000E-03 0.  1.
         12    1    3    3    0    0  0.39979817321E+01  0.28793509415E+02  0.34487198574E+02  0.45104510948E+02  0.00000000000E+00 0. -1.
</event>
<event>
 7    1  0.2490895E-015  0.9000776E+02  0.7816164E-02  0.1186339E+00
        -11   -1    0    0    0    0  0.00000000000E+00  0.00000000000E+00  0.45593999997E+02  0.45594000000E+02  0.51100000000E-03 0.  1.
         11   -1    0    0    0    0 -0.00000000000E+00 -0.00000000000E+00 -0.45593999997E+02  0.45594000000E+02  0.51100000000E-03 0. -1.
    9900012    2    1    2    0    0 -0.29187389801E+00  0.92630552192E+00  0.67061772424E+00  0.90007762556E+02  0.90000024222E+02 0.  0.
         12    1    1    2    0    0  0.29187389801E+00 -0.92630552192E+00 -0.67061772424E+00  0.11802374440E+01  0.00000000000E+00 0. -1.
         11    1    3    3    0    0  0.12131333741E+02  0.38712182661E+02  0.41326397152E+01  0.40778438616E+02  0.51100000000E-03 0. -1.
        -11    1    3    3    0    0 -0.70459746656E+01  0.31940917954E+00 -0.77844155160E+01  0.10504518380E+02  0.51100000000E-03 0.  1.
        -12    1    3    3    0    0 -0.53772329730E+01 -0.38105286318E+02  0.43223935250E+01  0.38724805560E+02  0.00000000000E+00 0.  1.
</event>
<event>
 7    1  0.2490895E-015  0.9000766E+02  0.7816164E-02  0.1186339E+00
        -11   -1    0    0    0    0  0.00000000000E+00  0.00000000000E+00  0.45593999997E+02  0.45594000000E+02  0.51100000000E-03 0.  1.
         11   -1    0    0    0    0 -0.00000000000E+00 -0.00000000000E+00 -0.45593999997E+02  0.45594000000E+02  0.51100000000E-03 0. -1.
    9900012    2    1    2    0    0  0.98911703976E+00  0.59440182051E+00 -0.24806802922E+00  0.90007659460E+02  0.89999919765E+02 0.  0.
         12    1    1    2    0    0 -0.98911703976E+00 -0.59440182051E+00  0.24806802922E+00  0.11803405397E+01  0.00000000000E+00 0. -1.
         11    1    3    3    0    0 -0.38712543723E+02  0.39426551870E+01 -0.88864115437E+00  0.38922939956E+02  0.51100000000E-03 0. -1.
        -11    1    3    3    0    0 -0.45678650937E+00  0.68265939778E+01  0.62654345431E+01  0.92772145350E+01  0.51100000000E-03 0.  1.
        -12    1    3    3    0    0  0.40158447272E+02 -0.10174847344E+02 -0.56248614180E+01  0.41807504969E+02  0.00000000000E+00 0.  1.
</event>
<event>
 7    1  0.2490895E-015  0.9000772E+02  0.7816164E-02  0.1186339E+00
        -11   -1    0    0    0    0  0.00000000000E+00  0.00000000000E+00  0.45593999997E+02  0.45594000000E+02  0.51100000000E-03 0.  1.
         11   -1    0    0    0    0 -0.00000000000E+00 -0.00000000000E+00 -0.45593999997E+02  0.45594000000E+02  0.51100000000E-03 0. -1.
    9900012    2    1    2    0    0 -0.70445778815E+00  0.77110932852E+00 -0.54972220015E+00  0.90007718309E+02  0.89999979391E+02 0.  0.
         12    1    1    2    0    0  0.70445778815E+00 -0.77110932852E+00  0.54972220015E+00  0.11802816906E+01  0.00000000000E+00 0. -1.
         11    1    3    3    0    0 -0.21842289226E+01 -0.55724737629E+01 -0.86473349632E+01  0.10516640245E+02  0.51100000000E-03 0. -1.
        -11    1    3    3    0    0 -0.34433535509E+02  0.20894757910E+02  0.55547182439E+01  0.40658506746E+02  0.51100000000E-03 0.  1.
         12    1    3    3    0    0  0.35913306643E+02 -0.14551174819E+02  0.25428945192E+01  0.38832571318E+02  0.00000000000E+00 0. -1.
</event>
<event>
 7    1  0.2995980E-015  0.9000778E+02  0.7816164E-02  0.1186339E+00
        -11   -1    0    0    0    0  0.00000000000E+00  0.00000000000E+00  0.45593999997E+02  0.45594000000E+02  0.51100000000E-03 0.  1.
         11   -1    0    0    0    0 -0.00000000000E+00 -0.00000000000E+00 -0.45593999997E+02  0.45594000000E+02  0.51100000000E-03 0. -1.
    9900012    2    1    2    0    0 -0.10741341472E+00 -0.10319503922E+01  0.56254384964E+00  0.90007781869E+02  0.90000043790E+02 0.  0.
         12    1    1    2    0    0  0.10741341472E+00  0.10319503922E+01 -0.56254384964E+00  0.11802181308E+01  0.00000000000E+00 0. -1.
         11    1    3    3    0    0  0.12561081814E+02  0.12051708571E+02 -0.32921113375E+02  0.37240088103E+02  0.51100000000E-03 0. -1.
        -11    1    3    3    0    0 -0.34901654552E+01  0.91376292493E+01 -0.19240657700E+01  0.99689293583E+01  0.51100000000E-03 0.  1.
        -12    1    3    3    0    0 -0.91783297735E+01 -0.22221288212E+02  0.35407722994E+02  0.42798764408E+02  0.00000000000E+00 0.  1.
</event>
<event>
 7    1  0.2490895E-015  0.9000770E+02  0.7816164E-02  0.1186339E+00
        -11   -1    0    0    0    0  0.00000000000E+00  0.00000000000E+00  0.45593999997E+02  0.45594000000E+02  0.51100000000E-03 0. -1.
         11   -1    0    0    0    0 -0.00000000000E+00 -0.00000000000E+00 -0.45593999997E+02  0.45594000000E+02  0.51100000000E-03 0.  1.
    9900012    2    1    2    0    0 -0.10998003194E+01  0.37202906066E+00 -0.21244928779E+00  0.90007702976E+02  0.89999963855E+02 0.  0.
         12    1    1    2    0    0  0.10998003194E+01 -0.37202906066E+00  0.21244928779E+00  0.11802970238E+01  0.00000000000E+00 0. -1.
         11    1    3    3    0    0  0.15735011106E+02  0.28004500052E+02 -0.97945782058E+01  0.33582381693E+02  0.51100000000E-03 0. -1.
        -11    1    3    3    0    0  0.52594443761E+01  0.67105852219E+01 -0.82512130936E+01  0.11864915800E+02  0.51100000000E-03 0.  1.
         12    1    3    3    0    0 -0.22094255802E+02 -0.34343056213E+02  0.17833342012E+02  0.44560405483E+02  0.00000000000E+00 0. -1.
</event>
<event>
 7    1  0.2490895E-015  0.9000787E+02  0.7816164E-02  0.1186339E+00
        -11   -1    0    0    0    0  0.00000000000E+00  0.00000000000E+00  0.45593999997E+02  0.45594000000E+02  0.51100000000E-03 0.  1.
         11   -1    0    0    0    0 -0.00000000000E+00 -0.00000000000E+00 -0.45593999997E+02  0.45594000000E+02  0.51100000000E-03 0. -1.
    9900012    2    1    2    0    0  0.48518443709E-01 -0.80200473613E+00  0.86437950388E+00  0.90007865447E+02  0.90000128471E+02 0.  0.
         12    1    1    2    0    0 -0.48518443709E-01  0.80200473613E+00 -0.86437950388E+00  0.11801345529E+01  0.00000000000E+00 0. -1.
         11    1    3    3    0    0  0.22048225570E+01 -0.81268770853E+01 -0.19248553865E+01  0.86378493960E+01  0.51100000000E-03 0. -1.
        -11    1    3    3    0    0  0.15199641049E+02  0.80731699672E+01  0.38216290872E+02  0.41912886438E+02  0.51100000000E-03 0.  1.
         12    1    3    3    0    0 -0.17355945162E+02 -0.74829761797E+00 -0.35427055981E+02  0.39457129613E+02  0.00000000000E+00 0. -1.
</event>
<event>
 7    1  0.2490895E-015  0.9000759E+02  0.7816164E-02  0.1186339E+00
        -11   -1    0    0    0    0  0.00000000000E+00  0.00000000000E+00  0.45593999997E+02  0.45594000000E+02  0.51100000000E-03 0. -1.
         11   -1    0    0    0    0 -0.00000000000E+00 -0.00000000000E+00 -0.45593999997E+02  0.45594000000E+02  0.51100000000E-03 0.  1.
    9900012    2    1    2    0    0 -0.72844287956E+00  0.89448559829E+00 -0.25027179037E+00  0.90007589273E+02  0.89999848652E+02 0.  0.
         12    1    1    2    0    0  0.72844287956E+00 -0.89448559829E+00  0.25027179037E+00  0.11804107266E+01  0.00000000000E+00 0. -1.
         11    1    3    3    0    0 -0.73876105865E+00 -0.28197402840E+01 -0.11008241784E+02  0.11387628840E+02  0.51100000000E-03 0. -1.
        -11    1    3    3    0    0 -0.38384906992E+02 -0.41971682360E+01  0.69431488691E+01  0.39232953273E+02  0.51100000000E-03 0.  1.
         12    1    3    3    0    0  0.38395225172E+02  0.79113941182E+01  0.38148211240E+01  0.39387007161E+02  0.00000000000E+00 0. -1.
</event>
<event>
 7    1  0.2490895E-015  0.9000775E+02  0.7816164E-02  0.1186339E+00
        -11   -1    0    0    0    0  0.00000000000E+00  0.00000000000E+00  0.45593999997E+02  0.45594000000E+02  0.51100000000E-03 0. -1.
         11   -1    0    0    0    0 -0.00000000000E+00 -0.00000000000E+00 -0.45593999997E+02  0.45594000000E+02  0.51100000000E-03 0.  1.
    9900012    2    1    2    0    0 -0.69114266679E+00 -0.67147137803E+00  0.68149892922E+00  0.90007748845E+02  0.90000010330E+02 0.  0.
         12    1    1    2    0    0  0.69114266679E+00  0.67147137803E+00 -0.68149892922E+00  0.11802511546E+01  0.00000000000E+00 0. -1.
         11    1    3    3    0    0  0.13914277421E+01  0.10128851596E+02  0.79331779151E+01  0.12940827559E+02  0.51100000000E-03 0. -1.
        -11    1    3    3    0    0 -0.24868463751E+02  0.73261770527E+01  0.23304373118E+02  0.34859821661E+02  0.51100000000E-03 0.  1.
         12    1    3    3    0    0  0.22785893342E+02 -0.18126500027E+02 -0.30556052104E+02  0.42207099626E+02  0.00000000000E+00 0. -1.
</event>
<event>
 7    1  0.2780398E-015  0.9000778E+02  0.7816164E-02  0.1186339E+00
        -11   -1    0    0    0    0  0.00000000000E+00  0.00000000000E+00  0.45593999997E+02  0.45594000000E+02  0.51100000000E-03 0.  1.
         11   -1    0    0    0    0 -0.00000000000E+00 -0.00000000000E+00 -0.45593999997E+02  0.45594000000E+02  0.51100000000E-03 0. -1.
    9900012    2    1    2    0    0  0.36411915539E+00 -0.91159164275E+00  0.65523893169E+00  0.90007779622E+02  0.90000041513E+02 0.  0.
         12    1    1    2    0    0 -0.36411915539E+00  0.91159164275E+00 -0.65523893169E+00  0.11802203778E+01  0.00000000000E+00 0. -1.
         11    1    3    3    0    0  0.13063167812E+02 -0.29092551414E+02 -0.23599805173E+02  0.39673337464E+02  0.51100000000E-03 0. -1.
        -11    1    3    3    0    0  0.84593327981E+01 -0.48553696019E+00  0.44519718819E+01  0.95716305522E+01  0.51100000000E-03 0.  1.
        -12    1    3    3    0    0 -0.21158381454E+02  0.28666496731E+02  0.19803072223E+02  0.40762811606E+02  0.00000000000E+00 0.  1.
</event>
<event>
 7    1  0.2490895E-015  0.9000770E+02  0.7816164E-02  0.1186339E+00
        -11   -1    0    0    0    0  0.00000000000E+00  0.00000000000E+00  0.45593999997E+02  0.45594000000E+02  0.51100000000E-03 0. -1.
         11   -1    0    0    0    0 -0.00000000000E+00 -0.00000000000E+00 -0.45593999997E+02  0.45594000000E+02  0.51100000000E-03 0.  1.
    9900012    2    1    2    0    0  0.93793940475E-01  0.60152940316E+00  0.10111799001E+01  0.90007695075E+02  0.89999955850E+02 0.  0.
         12    1    1    2    0    0 -0.93793940475E-01 -0.60152940316E+00 -0.10111799001E+01  0.11803049253E+01  0.00000000000E+00 0. -1.
         11    1    3    3    0    0 -0.35280707144E+01  0.62642546304E+01 -0.80093636307E+01  0.10762809813E+02  0.51100000000E-03 0. -1.
        -11    1    3    3    0    0  0.11310816351E+02  0.32021593013E+02 -0.11242236038E+02  0.35772962653E+02  0.51100000000E-03 0.  1.
         12    1    3    3    0    0 -0.76889516964E+01 -0.37684318240E+02  0.20262779569E+02  0.43471922608E+02  0.00000000000E+00 0. -1.
</event>
<event>
 7    1  0.2490895E-015  0.9000779E+02  0.7816164E-02  0.1186339E+00
        -11   -1    0    0    0    0  0.00000000000E+00  0.00000000000E+00  0.45593999997E+02  0.45594000000E+02  0.51100000000E-03 0.  1.
         11   -1    0    0    0    0 -0.00000000000E+00 -0.00000000000E+00 -0.45593999997E+02  0.45594000000E+02  0.51100000000E-03 0. -1.
    9900012    2    1    2    0    0  0.20637192558E+00  0.16519500193E+00  0.11502207184E+01  0.90007793890E+02  0.90000055970E+02 0.  0.
         12    1    1    2    0    0 -0.20637192558E+00 -0.16519500193E+00 -0.11502207184E+01  0.11802061097E+01  0.00000000000E+00 0. -1.
         11    1    3    3    0    0 -0.35153487921E+02  0.16385745818E+02 -0.15139199975E+02  0.41634790202E+02  0.51100000000E-03 0. -1.
        -11    1    3    3    0    0 -0.62814089587E+00 -0.79193898035E+01  0.62267036324E+01  0.10093717563E+02  0.51100000000E-03 0.  1.
        -12    1    3    3    0    0  0.35988000743E+02 -0.83011610128E+01  0.10062717061E+02  0.38279286125E+02  0.00000000000E+00 0.  1.
</event>
<event>
 7    1  0.2490895E-015  0.9000780E+02  0.7816164E-02  0.1186339E+00
        -11   -1    0    0    0    0  0.00000000000E+00  0.00000000000E+00  0.45593999997E+02  0.45594000000E+02  0.51100000000E-03 0.  1.
         11   -1    0    0    0    0 -0.00000000000E+00 -0.00000000000E+00 -0.45593999997E+02  0.45594000000E+02  0.51100000000E-03 0. -1.
    9900012    2    1    2    0    0  0.32762554200E-01 -0.29090650737E+00  0.11433162439E+01  0.90007800011E+02  0.90000062171E+02 0.  0.
         12    1    1    2    0    0 -0.32762554200E-01  0.29090650737E+00 -0.11433162439E+01  0.11801999892E+01  0.00000000000E+00 0. -1.
         11    1    3    3    0    0 -0.98063032252E+01 -0.20435371582E+02 -0.28394612413E+02  0.36332107137E+02  0.51100000000E-03 0. -1.
        -11    1    3    3    0    0 -0.74611139334E+01  0.37954881024E+01 -0.64225491364E+01  0.10550975724E+02  0.51100000000E-03 0.  1.
        -12    1    3    3    0    0  0.17300179713E+02  0.16348976973E+02  0.35960477793E+02  0.43124717150E+02  0.00000000000E+00 0.  1.
</event>
<event>
 7    1  0.2753734E-015  0.9000795E+02  0.7816164E-02  0.1186339E+00
        -11   -1    0    0    0    0  0.00000000000E+00  0.00000000000E+00  0.45593999997E+02  0.45594000000E+02  0.51100000000E-03 0.  1.
         11   -1    0    0    0    0 -0.00000000000E+00 -0.00000000000E+00 -0.45593999997E+02  0.45594000000E+02  0.51100000000E-03 0. -1.
    9900012    2    1    2    0    0  0.10096958200E+01  0.50493751143E+00  0.34361250080E+00  0.90007950387E+02  0.90000214531E+02 0.  0.
         12    1    1    2    0    0 -0.10096958200E+01 -0.50493751143E+00 -0.34361250080E+00  0.11800496134E+01  0.00000000000E+00 0. -1.
         11    1    3    3    0    0  0.31030013192E+02 -0.27017435196E+01 -0.23501877463E+02  0.39019218102E+02  0.51100000000E-03 0. -1.
        -11    1    3    3    0    0 -0.36147539647E+01 -0.30794570010E+01 -0.79022436603E+01  0.92192709459E+01  0.51100000000E-03 0.  1.
        -12    1    3    3    0    0 -0.26405563408E+02  0.62861380320E+01  0.31747733624E+02  0.41769461338E+02  0.00000000000E+00 0.  1.
</event>
<event>
 7    1  0.2490895E-015  0.9000769E+02  0.7816164E-02  0.1186339E+00
        -11   -1    0    0    0    0  0.00000000000E+00  0.00000000000E+00  0.45593999997E+02  0.45594000000E+02  0.51100000000E-03 0. -1.
         11   -1    0    0    0    0 -0.00000000000E+00 -0.00000000000E+00 -0.45593999997E+02  0.45594000000E+02  0.51100000000E-03 0.  1.
    9900012    2    1    2    0    0 -0.70382087847E+00 -0.92456308309E+00  0.20722475952E+00  0.90007693758E+02  0.89999954516E+02 0.  0.
         12    1    1    2    0    0  0.70382087847E+00  0.92456308309E+00 -0.20722475952E+00  0.11803062418E+01  0.00000000000E+00 0. -1.
         11    1    3    3    0    0 -0.51828533666E+01  0.11439217949E+02 -0.18011513682E+01  0.12687073059E+02  0.51100000000E-03 0. -1.
        -11    1    3    3    0    0 -0.63084610541E+00 -0.41225767081E+02 -0.14469119099E+02  0.43695734872E+02  0.51100000000E-03 0.  1.
         12    1    3    3    0    0  0.51098785935E+01  0.28861986049E+02  0.16477495226E+02  0.33624885827E+02  0.00000000000E+00 0. -1.
</event>
<event>
 7    1  0.2490895E-015  0.9000753E+02  0.7816164E-02  0.1186339E+00
        -11   -1    0    0    0    0  0.00000000000E+00  0.00000000000E+00  0.45593999997E+02  0.45594000000E+02  0.51100000000E-03 0. -1.
         11   -1    0    0    0    0 -0.00000000000E+00 -0.00000000000E+00 -0.45593999997E+02  0.45594000000E+02  0.51100000000E-03 0.  1.
    9900012    2    1    2    0    0  0.84299362818E+00  0.82505506890E+00 -0.46343622727E-01  0.90007533205E+02  0.89999791843E+02 0.  0.
         12    1    1    2    0    0 -0.84299362818E+00 -0.82505506890E+00  0.46343622727E-01  0.11804667955E+01  0.00000000000E+00 0. -1.
         11    1    3    3    0    0  0.57984507506E+01 -0.75217069116E+00 -0.76217134575E+01  0.96061599063E+01  0.51100000000E-03 0. -1.
        -11    1    3    3    0    0 -0.30912729257E+02  0.26800076964E+02 -0.67693166775E+01  0.41468838951E+02  0.51100000000E-03 0.  1.
         12    1    3    3    0    0  0.25957272135E+02 -0.25222851204E+02  0.14344686512E+02  0.38932534347E+02  0.00000000000E+00 0. -1.
</event>
<event>
 7    1  0.2490895E-015  0.9000770E+02  0.7816164E-02  0.1186339E+00
        -11   -1    0    0    0    0  0.00000000000E+00  0.00000000000E+00  0.45593999997E+02  0.45594000000E+02  0.51100000000E-03 0.  1.
         11   -1    0    0    0    0 -0.00000000000E+00 -0.00000000000E+00 -0.45593999997E+02  0.45594000000E+02  0.51100000000E-03 0. -1.
    9900012    2    1    2    0    0 -0.37595311509E+00  0.38416901776E-01  0.11181623869E+01  0.90007701848E+02  0.89999962713E+02 0.  0.
         12    1    1    2    0    0  0.37595311509E+00 -0.38416901776E-01 -0.11181623869E+01  0.11802981516E+01  0.00000000000E+00 0. -1.
         11    1    3    3    0    0 -0.12591397948E+01 -0.82703771004E+01 -0.98354596359E+00  0.84232970581E+01  0.51100000000E-03 0. -1.
        -11    1    3    3    0    0 -0.35770898538E+02  0.65154591200E+01 -0.17084998241E+02  0.40173443404E+02  0.51100000000E-03 0.  1.
         12    1    3    3    0    0  0.36654085218E+02  0.17933348822E+01  0.19186706591E+02  0.41410961387E+02  0.00000000000E+00 0. -1.
</event>
<event>
 7    1  0.2490895E-015  0.9000743E+02  0.7816164E-02  0.1186340E+00
        -11   -1    0    0    0    0  0.00000000000E+00  0.00000000000E+00  0.45593999997E+02  0.45594000000E+02  0.51100000000E-03 0. -1.
         11   -1    0    0    0    0 -0.00000000000E+00 -0.00000000000E+00 -0.45593999997E+02  0.45594000000E+02  0.51100000000E-03 0.  1.
    9900012    2    1    2    0    0  0.15336956349E+00  0.11684194279E+01  0.70867804590E-01  0.90007428770E+02  0.89999686030E+02 0.  0.
         12    1    1    2    0    0 -0.15336956349E+00 -0.11684194279E+01 -0.70867804590E-01  0.11805712296E+01  0.00000000000E+00 0. -1.
         11    1    3    3    0    0 -0.30030714183E+01 -0.28656141785E+02 -0.14252483507E+02  0.32145391370E+02  0.51100000000E-03 0. -1.
        -11    1    3    3    0    0 -0.10793676709E+01 -0.12496882421E+02  0.79595870925E+01  0.14855710409E+02  0.51100000000E-03 0.  1.
        -12    1    3    3    0    0  0.42358086527E+01  0.42321443634E+02  0.63637642191E+01  0.43006326991E+02  0.00000000000E+00 0.  1.
</event>
<event>
 7    1  0.2490895E-015  0.9000781E+02  0.7816164E-02  0.1186339E+00
        -11   -1    0    0    0    0  0.00000000000E+00  0.00000000000E+00  0.45593999997E+02  0.45594000000E+02  0.51100000000E-03 0. -1.
         11   -1    0    0    0    0 -0.00000000000E+00 -0.00000000000E+00 -0.45593999997E+02  0.45594000000E+02  0.51100000000E-03 0.  1.
    9900012    2    1    2    0    0  0.96122085627E+00 -0.61417298319E+00  0.30279931390E+00  0.90007812976E+02  0.90000075307E+02 0.  0.
         12    1    1    2    0    0 -0.96122085627E+00  0.61417298319E+00 -0.30279931390E+00  0.11801870243E+01  0.00000000000E+00 0. -1.
         11    1    3    3    0    0 -0.26907959347E+01  0.81530672818E+01  0.36727603696E+02  0.37717764546E+02  0.51100000000E-03 0. -1.
        -11    1    3    3    0    0  0.67620735024E+01  0.43720657211E+01  0.44797364419E+01  0.92145881933E+01  0.51100000000E-03 0.  1.
        -12    1    3    3    0    0 -0.31100567114E+01 -0.13139305986E+02 -0.40904540824E+02  0.43075460236E+02  0.00000000000E+00 0.  1.
</event>
<event>
 7    1  0.2490895E-015  0.9000772E+02  0.7816164E-02  0.1186339E+00
        -11   -1    0    0    0    0  0.00000000000E+00  0.00000000000E+00  0.45593999997E+02  0.45594000000E+02  0.51100000000E-03 0. -1.
         11   -1    0    0    0    0 -0.00000000000E+00 -0.00000000000E+00 -0.45593999997E+02  0.45594000000E+02  0.51100000000E-03 0.  1.
    9900012    2    1    2    0    0 -0.49993515695E+00 -0.13484611130E+00 -0.10606360252E+01  0.90007717232E+02  0.89999978299E+02 0.  0.
         12    1    1    2    0    0  0.49993515695E+00  0.13484611130E+00  0.10606360252E+01  0.11802827682E+01  0.00000000000E+00 0. -1.
         11    1    3    3    0    0  0.15353758002E+02  0.24439693739E+02  0.16660660729E+02  0.33325877798E+02  0.51100000000E-03 0. -1.
        -11    1    3    3    0    0  0.78286834413E+01  0.75173864892E+01  0.36271070007E+01  0.11443569789E+02  0.51100000000E-03 0.  1.
        -12    1    3    3    0    0 -0.23682376600E+02 -0.32091926340E+02 -0.21348403755E+02  0.45238269645E+02  0.00000000000E+00 0.  1.
</event>
<event>
 7    1  0.3739914E-015  0.9000782E+02  0.7816164E-02  0.1186339E+00
        -11   -1    0    0    0    0  0.00000000000E+00  0.00000000000E+00  0.45593999997E+02  0.45594000000E+02  0.51100000000E-03 0. -1.
         11   -1    0    0    0    0 -0.00000000000E+00 -0.00000000000E+00 -0.45593999997E+02  0.45594000000E+02  0.51100000000E-03 0.  1.
    9900012    2    1    2    0    0  0.86340485998E+00  0.15300536608E+00 -0.78989892218E+00  0.90007822513E+02  0.90000084970E+02 0.  0.
         12    1    1    2    0    0 -0.86340485998E+00 -0.15300536608E+00  0.78989892218E+00  0.11801774873E+01  0.00000000000E+00 0. -1.
         11    1    3    3    0    0  0.23716117348E+02 -0.62001852625E+01  0.27830006830E+02  0.37086463835E+02  0.51100000000E-03 0. -1.
        -11    1    3    3    0    0 -0.19200461393E+01 -0.73431381582E+01  0.63701366439E+01  0.99089301295E+01  0.51100000000E-03 0.  1.
        -12    1    3    3    0    0 -0.20932666349E+02  0.13696328787E+02 -0.34990042396E+02  0.43012428548E+02  0.00000000000E+00 0.  1.
</event>
<event>
 7    1  0.2490895E-015  0.9000764E+02  0.7816164E-02  0.1186339E+00
        -11   -1    0    0    0    0  0.00000000000E+00  0.00000000000E+00  0.45593999997E+02  0.45594000000E+02  0.51100000000E-03 0.  1.
         11   -1    0    0    0    0 -0.00000000000E+00 -0.00000000000E+00 -0.45593999997E+02  0.45594000000E+02  0.51100000000E-03 0. -1.
    9900012    2    1    2    0    0 -0.75168331193E-01  0.11095849277E+01 -0.39550802758E+00  0.90007637518E+02  0.89999897533E+02 0.  0.
         12    1    1    2    0    0  0.75168331193E-01 -0.11095849277E+01  0.39550802758E+00  0.11803624823E+01  0.00000000000E+00 0. -1.
         11    1    3    3    0    0 -0.69114830851E+00 -0.21583131543E+01  0.77173555078E+01  0.80432318101E+01  0.51100000000E-03 0. -1.
        -11    1    3    3    0    0  0.27266766362E+02 -0.19175522227E+02  0.18497693831E+02  0.38122721280E+02  0.51100000000E-03 0.  1.
         12    1    3    3    0    0 -0.26650786385E+02  0.22443420309E+02 -0.26610557366E+02  0.43841684427E+02  0.00000000000E+00 0. -1.
</event>
<event>
 7    1  0.2490895E-015  0.9000764E+02  0.7816164E-02  0.1186339E+00
        -11   -1    0    0    0    0  0.00000000000E+00  0.00000000000E+00  0.45593999997E+02  0.45594000000E+02  0.51100000000E-03 0.  1.
         11   -1    0    0    0    0 -0.00000000000E+00 -0.00000000000E+00 -0.45593999997E+02  0.45594000000E+02  0.51100000000E-03 0. -1.
    9900012    2    1    2    0    0 -0.60816276845E+00  0.92870122024E+00  0.40113421999E+00  0.90007637102E+02  0.89999897111E+02 0.  0.
         12    1    1    2    0    0  0.60816276845E+00 -0.92870122024E+00 -0.40113421999E+00  0.11803628984E+01  0.00000000000E+00 0. -1.
         11    1    3    3    0    0 -0.79909493173E+01 -0.10649021894E+00  0.64172421261E+01  0.10249273532E+02  0.51100000000E-03 0. -1.
        -11    1    3    3    0    0  0.70379146196E+01  0.24610067970E+02  0.28277381681E+02  0.38141814360E+02  0.51100000000E-03 0.  1.
         12    1    3    3    0    0  0.34487192923E+00 -0.23574876531E+02 -0.34293489587E+02  0.41616549210E+02  0.00000000000E+00 0. -1.
</event>
<event>
 7    1  0.2490895E-015  0.9000775E+02  0.7816164E-02  0.1186339E+00
        -11   -1    0    0    0    0  0.00000000000E+00  0.00000000000E+00  0.45593999997E+02  0.45594000000E+02  0.51100000000E-03 0. -1.
         11   -1    0    0    0    0 -0.00000000000E+00 -0.00000000000E+00 -0.45593999997E+02  0.45594000000E+02  0.51100000000E-03 0.  1.
    9900012    2    1    2    0    0 -0.64751032265E+00  0.19651326946E-01 -0.98657520261E+00  0.90007751542E+02  0.90000013062E+02 0.  0.
         12    1    1    2    0    0  0.64751032265E+00 -0.19651326946E-01  0.98657520261E+00  0.11802484582E+01  0.00000000000E+00 0. -1.
         11    1    3    3    0    0  0.10077177495E+01  0.28398409279E+01  0.94299148256E+01  0.98996709762E+01  0.51100000000E-03 0. -1.
        -11    1    3    3    0    0 -0.32564518638E+02 -0.25273440929E+02 -0.50674972516E+01  0.41531605063E+02  0.51100000000E-03 0.  1.
         12    1    3    3    0    0  0.30909290565E+02  0.22453251328E+02 -0.53489927765E+01  0.38576475502E+02  0.00000000000E+00 0. -1.
</event>
<event>
 7    1  0.2490895E-015  0.9000773E+02  0.7816164E-02  0.1186339E+00
        -11   -1    0    0    0    0  0.00000000000E+00  0.00000000000E+00  0.45593999997E+02  0.45594000000E+02  0.51100000000E-03 0. -1.
         11   -1    0    0    0    0 -0.00000000000E+00 -0.00000000000E+00 -0.45593999997E+02  0.45594000000E+02  0.51100000000E-03 0.  1.
    9900012    2    1    2    0    0  0.46238096597E+00  0.10791200427E+01 -0.12146031517E+00  0.90007725103E+02  0.89999986274E+02 0.  0.
         12    1    1    2    0    0 -0.46238096597E+00 -0.10791200427E+01  0.12146031517E+00  0.11802748969E+01  0.00000000000E+00 0. -1.
         11    1    3    3    0    0 -0.21173261421E+01  0.22875455991E+02  0.30639640469E+02  0.38295654128E+02  0.51100000000E-03 0. -1.
        -11    1    3    3    0    0 -0.23406996677E+01  0.84295192835E+01 -0.66285305672E+00  0.87735423132E+01  0.51100000000E-03 0.  1.
        -12    1    3    3    0    0  0.49204067758E+01 -0.30225855232E+02 -0.30098247728E+02  0.42938528661E+02  0.00000000000E+00 0.  1.
</event>
<event>
 7    1  0.2490895E-015  0.9000766E+02  0.7816164E-02  0.1186339E+00
        -11   -1    0    0    0    0  0.00000000000E+00  0.00000000000E+00  0.45593999997E+02  0.45594000000E+02  0.51100000000E-03 0. -1.
         11   -1    0    0    0    0 -0.00000000000E+00 -0.00000000000E+00 -0.45593999997E+02  0.45594000000E+02  0.51100000000E-03 0.  1.
    9900012    2    1    2    0    0  0.85308860328E+00 -0.71440467967E+00 -0.39378629539E+00  0.90007660279E+02  0.89999920594E+02 0.  0.
         12    1    1    2    0    0 -0.85308860328E+00  0.71440467967E+00  0.39378629539E+00  0.11803397214E+01  0.00000000000E+00 0. -1.
         11    1    3    3    0    0 -0.47344854198E+01  0.89605824772E+01 -0.21932494270E+01  0.10369075843E+02  0.51100000000E-03 0. -1.
        -11    1    3    3    0    0  0.13010988970E+02  0.59423828490E+01 -0.35637572897E+02  0.38400968089E+02  0.51100000000E-03 0.  1.
         12    1    3    3    0    0 -0.74234149470E+01 -0.15617370006E+02  0.37437036029E+02  0.41237616347E+02  0.00000000000E+00 0. -1.
</event>
<event>
 7    1  0.2490895E-015  0.9000736E+02  0.7816164E-02  0.1186340E+00
        -11   -1    0    0    0    0  0.00000000000E+00  0.00000000000E+00  0.45593999997E+02  0.45594000000E+02  0.51100000000E-03 0. -1.
         11   -1    0    0    0    0 -0.00000000000E+00 -0.00000000000E+00 -0.45593999997E+02  0.45594000000E+02  0.51100000000E-03 0.  1.
    9900012    2    1    2    0    0 -0.46377285858E+00  0.13558008084E+00 -0.10772401739E+01  0.90007358812E+02  0.89999615147E+02 0.  0.
         12    1    1    2    0    0  0.46377285858E+00 -0.13558008084E+00  0.10772401739E+01  0.11806411881E+01  0.00000000000E+00 0. -1.
         11    1    3    3    0    0 -0.32518251255E+02 -0.11556204220E+02 -0.16526351347E+02  0.38263596404E+02  0.51100000000E-03 0. -1.
        -11    1    3    3    0    0 -0.31812941407E+01  0.60568716990E+01 -0.68373471936E+01  0.96724166626E+01  0.51100000000E-03 0.  1.
        -12    1    3    3    0    0  0.35235772537E+02  0.56349126013E+01  0.22286458367E+02  0.42071345746E+02  0.00000000000E+00 0.  1.
</event>
<event>
 7    1  0.2490895E-015  0.9000782E+02  0.7816164E-02  0.1186339E+00
        -11   -1    0    0    0    0  0.00000000000E+00  0.00000000000E+00  0.45593999997E+02  0.45594000000E+02  0.51100000000E-03 0.  1.
         11   -1    0    0    0    0 -0.00000000000E+00 -0.00000000000E+00 -0.45593999997E+02  0.45594000000E+02  0.51100000000E-03 0. -1.
    9900012    2    1    2    0    0  0.72673991494E+00 -0.34178148089E+00  0.86479233797E+00  0.90007817272E+02  0.90000079660E+02 0.  0.
         12    1    1    2    0    0 -0.72673991494E+00  0.34178148089E+00 -0.86479233797E+00  0.11801827284E+01  0.00000000000E+00 0. -1.
         11    1    3    3    0    0 -0.20444667898E+01 -0.57462273106E+01  0.73979896097E+01  0.95879728455E+01  0.51100000000E-03 0. -1.
        -11    1    3    3    0    0 -0.20636955902E+02  0.24849949606E+02 -0.28348210120E+02  0.42977028302E+02  0.51100000000E-03 0.  1.
         12    1    3    3    0    0  0.23408162607E+02 -0.19445503777E+02  0.21815012849E+02  0.37442816125E+02  0.00000000000E+00 0. -1.
</event>
<event>
 7    1  0.2490895E-015  0.9000777E+02  0.7816164E-02  0.1186339E+00
        -11   -1    0    0    0    0  0.00000000000E+00  0.00000000000E+00  0.45593999997E+02  0.45594000000E+02  0.51100000000E-03 0.  1.
         11   -1    0    0    0    0 -0.00000000000E+00 -0.00000000000E+00 -0.45593999997E+02  0.45594000000E+02  0.51100000000E-03 0. -1.
    9900012    2    1    2    0    0 -0.23175194382E+00 -0.11473817461E+01  0.15081471204E+00  0.90007771670E+02  0.90000033456E+02 0.  0.
         12    1    1    2    0    0  0.23175194382E+00  0.11473817461E+01 -0.15081471204E+00  0.11802283305E+01  0.00000000000E+00 0. -1.
         11    1    3    3    0    0 -0.43391525076E+01 -0.16552725523E+01 -0.62886152728E+01  0.78175989931E+01  0.51100000000E-03 0. -1.
        -11    1    3    3    0    0  0.27236593231E+02  0.32497674619E+02  0.49077036766E+01  0.42685084304E+02  0.51100000000E-03 0.  1.
         12    1    3    3    0    0 -0.23129192667E+02 -0.31989783812E+02  0.15317263081E+01  0.39505088372E+02  0.00000000000E+00 0. -1.
</event>
<event>
 7    1  0.2490895E-015  0.9000777E+02  0.7816164E-02  0.1186339E+00
        -11   -1    0    0    0    0  0.00000000000E+00  0.00000000000E+00  0.45593999997E+02  0.45594000000E+02  0.51100000000E-03 0.  1.
         11   -1    0    0    0    0 -0.00000000000E+00 -0.00000000000E+00 -0.45593999997E+02  0.45594000000E+02  0.51100000000E-03 0. -1.
    9900012    2    1    2    0    0 -0.81312466901E+00  0.80493837791E+00 -0.28955412187E+00  0.90007771586E+02  0.90000033371E+02 0.  0.
         12    1    1    2    0    0  0.81312466901E+00 -0.80493837791E+00  0.28955412187E+00  0.11802284139E+01  0.00000000000E+00 0. -1.
         11    1    3    3    0    0  0.13408769816E+02 -0.11885337576E+02 -0.24456698387E+02  0.30318087894E+02  0.51100000000E-03 0. -1.
        -11    1    3    3    0    0  0.43375410225E+01 -0.37335985910E+01 -0.13464548737E+02  0.14630382548E+02  0.51100000000E-03 0.  1.
        -12    1    3    3    0    0 -0.18559435507E+02  0.16423874545E+02  0.37631693002E+02  0.45059301144E+02  0.00000000000E+00 0.  1.
</event>
<event>
 7    1  0.2490895E-015  0.9000771E+02  0.7816164E-02  0.1186339E+00
        -11   -1    0    0    0    0  0.00000000000E+00  0.00000000000E+00  0.45593999997E+02  0.45594000000E+02  0.51100000000E-03 0.  1.
         11   -1    0    0    0    0 -0.00000000000E+00 -0.00000000000E+00 -0.45593999997E+02  0.45594000000E+02  0.51100000000E-03 0. -1.
    9900012    2    1    2    0    0  0.12534833622E+00  0.10054044815E+01 -0.60541840794E+00  0.90007711126E+02  0.89999972113E+02 0.  0.
         12    1    1    2    0    0 -0.12534833622E+00 -0.10054044815E+01  0.60541840794E+00  0.11802888737E+01  0.00000000000E+00 0. -1.
         11    1    3    3    0    0 -0.24304403310E+02  0.51198061753E+01 -0.28208905528E+02  0.37585353356E+02  0.51100000000E-03 0. -1.
        -11    1    3    3    0    0  0.39543675881E+01  0.12372040972E+00 -0.92443240363E+01  0.10055339721E+02  0.51100000000E-03 0.  1.
        -12    1    3    3    0    0  0.20475384058E+02 -0.42381221036E+01  0.36847811157E+02  0.42367018049E+02  0.00000000000E+00 0.  1.
</event>
<event>
 7    1  0.2490895E-015  0.9000778E+02  0.7816164E-02  0.1186339E+00
        -11   -1    0    0    0    0  0.00000000000E+00  0.00000000000E+00  0.45593999997E+02  0.45594000000E+02  0.51100000000E-03 0.  1.
         11   -1    0    0    0    0 -0.00000000000E+00 -0.00000000000E+00 -0.45593999997E+02  0.45594000000E+02  0.51100000000E-03 0. -1.
    9900012    2    1    2    0    0 -0.46149809101E+00 -0.10849447843E+01 -0.53324356737E-01  0.90007775801E+02  0.90000037641E+02 0.  0.
         12    1    1    2    0    0  0.46149809101E+00  0.10849447843E+01  0.53324356737E-01  0.11802241991E+01  0.00000000000E+00 0. -1.
         11    1    3    3    0    0  0.23865807865E+02  0.24892147218E+02 -0.16476441713E+02  0.38218698433E+02  0.51100000000E-03 0. -1.
        -11    1    3    3    0    0 -0.37925881336E+01 -0.12128009840E+01 -0.96115708164E+01  0.10403696689E+02  0.51100000000E-03 0.  1.
        -12    1    3    3    0    0 -0.20534717822E+02 -0.24764291018E+02  0.26034688172E+02  0.41385380679E+02  0.00000000000E+00 0.  1.
</event>
<event>
 7    1  0.2490895E-015  0.9000775E+02  0.7816164E-02  0.1186339E+00
        -11   -1    0    0    0    0  0.00000000000E+00  0.00000000000E+00  0.45593999997E+02  0.45594000000E+02  0.51100000000E-03 0. -1.
         11   -1    0    0    0    0 -0.00000000000E+00 -0.00000000000E+00 -0.45593999997E+02  0.45594000000E+02  0.51100000000E-03 0.  1.
    9900012    2    1    2    0    0  0.47941413944E+00 -0.10213474534E+01  0.34642881515E+00  0.90007745171E+02  0.90000006607E+02 0.  0.
         12    1    1    2    0    0 -0.47941413944E+00  0.10213474534E+01 -0.34642881515E+00  0.11802548291E+01  0.00000000000E+00 0. -1.
         11    1    3    3    0    0 -0.18881363746E+02  0.58540540736E+00  0.32252172685E+02  0.37377148628E+02  0.51100000000E-03 0. -1.
        -11    1    3    3    0    0 -0.65437874600E+01  0.83133651572E+01 -0.30773997016E+00  0.10584323252E+02  0.51100000000E-03 0.  1.
        -12    1    3    3    0    0  0.25904565345E+02 -0.99201180180E+01 -0.31598003899E+02  0.42046273291E+02  0.00000000000E+00 0.  1.
</event>
<event>
 7    1  0.2490895E-015  0.9000769E+02  0.7816164E-02  0.1186339E+00
        -11   -1    0    0    0    0  0.00000000000E+00  0.00000000000E+00  0.45593999997E+02  0.45594000000E+02  0.51100000000E-03 0.  1.
         11   -1    0    0    0    0 -0.00000000000E+00 -0.00000000000E+00 -0.45593999997E+02  0.45594000000E+02  0.51100000000E-03 0. -1.
    9900012    2    1    2    0    0 -0.86132525853E+00 -0.69818331579E+00  0.40471750777E+00  0.90007687582E+02  0.89999948258E+02 0.  0.
         12    1    1    2    0    0  0.86132525853E+00  0.69818331579E+00 -0.40471750777E+00  0.11803124182E+01  0.00000000000E+00 0. -1.
         11    1    3    3    0    0  0.78387289554E+01  0.21880899362E+00 -0.89414916978E+00  0.78925947577E+01  0.51100000000E-03 0. -1.
        -11    1    3    3    0    0 -0.23954028466E+01 -0.85615117587E+01  0.40611336702E+02  0.41573045443E+02  0.51100000000E-03 0.  1.
         12    1    3    3    0    0 -0.63046513673E+01  0.76445194493E+01 -0.39312470024E+02  0.40542047382E+02  0.00000000000E+00 0. -1.
</event>
<event>
 7    1  0.2490895E-015  0.9000763E+02  0.7816164E-02  0.1186339E+00
        -11   -1    0    0    0    0  0.00000000000E+00  0.00000000000E+00  0.45593999997E+02  0.45594000000E+02  0.51100000000E-03 0.  1.
         11   -1    0    0    0    0 -0.00000000000E+00 -0.00000000000E+00 -0.45593999997E+02  0.45594000000E+02  0.51100000000E-03 0. -1.
    9900012    2    1    2    0    0 -0.26821186854E+00  0.42670277080E+00  0.10673664808E+01  0.90007625455E+02  0.89999885311E+02 0.  0.
         12    1    1    2    0    0  0.26821186854E+00 -0.42670277080E+00 -0.10673664808E+01  0.11803745445E+01  0.00000000000E+00 0. -1.
         11    1    3    3    0    0  0.24279935492E+02 -0.20879157622E+02 -0.27630445032E+02  0.42295342337E+02  0.51100000000E-03 0. -1.
        -11    1    3    3    0    0 -0.94404722559E+01  0.13628342739E+01 -0.13296078878E+00  0.95392616331E+01  0.51100000000E-03 0.  1.
        -12    1    3    3    0    0 -0.15107675105E+02  0.19943026119E+02  0.28830772301E+02  0.38173021485E+02  0.00000000000E+00 0.  1.
</event>
<event>
 7    1  0.2490895E-015  0.9000756E+02  0.7816164E-02  0.1186339E+00
        -11   -1    0    0    0    0  0.00000000000E+00  0.00000000000E+00  0.45593999997E+02  0.45594000000E+02  0.51100000000E-03 0. -1.
         11   -1    0    0    0    0 -0.00000000000E+00 -0.00000000000E+00 -0.45593999997E+02  0.45594000000E+02  0.51100000000E-03 0.  1.
    9900012    2    1    2    0    0 -0.76666248041E+00 -0.86736688738E+00  0.23094782215E+00  0.90007562127E+02  0.89999821147E+02 0.  0.
         12    1    1    2    0    0  0.76666248041E+00  0.86736688738E+00 -0.23094782215E+00  0.11804378733E+01  0.00000000000E+00 0. -1.
         11    1    3    3    0    0  0.31356422238E+02  0.88899141652E+01  0.14123930846E+02  0.35520996780E+02  0.51100000000E-03 0. -1.
        -11    1    3    3    0    0  0.47086082382E+01 -0.45406784414E+01  0.87598726720E+01  0.10932708802E+02  0.51100000000E-03 0.  1.
        -12    1    3    3    0    0 -0.36831692956E+02 -0.52166026113E+01 -0.22652855695E+02  0.43553856546E+02  0.00000000000E+00 0.  1.
</event>
<event>
 7    1  0.2490895E-015  0.9000750E+02  0.7816164E-02  0.1186340E+00
        -11   -1    0    0    0    0  0.00000000000E+00  0.00000000000E+00  0.45593999997E+02  0.45594000000E+02  0.51100000000E-03 0.  1.
         11   -1    0    0    0    0 -0.00000000000E+00 -0.00000000000E+00 -0.45593999997E+02  0.45594000000E+02  0.51100000000E-03 0. -1.
    9900012    2    1    2    0    0  0.58886553807E+00 -0.51997982517E-01  0.10218236972E+01  0.90007495836E+02  0.89999753981E+02 0.  0.
         12    1    1    2    0    0 -0.58886553807E+00  0.51997982517E-01 -0.10218236972E+01  0.11805041636E+01  0.00000000000E+00 0. -1.
         11    1    3    3    0    0  0.14467804180E+02  0.97633892863E+01  0.24259249257E+02  0.29885653798E+02  0.51100000000E-03 0. -1.
        -11    1    3    3    0    0  0.15092769500E+02 -0.10813992548E+02  0.54373964401E+01  0.19346819023E+02  0.51100000000E-03 0.  1.
         12    1    3    3    0    0 -0.28971708142E+02  0.99860527918E+00 -0.28674822000E+02  0.40775023015E+02  0.00000000000E+00 0. -1.
</event>
<event>
 7    1  0.2490895E-015  0.9000778E+02  0.7816164E-02  0.1186339E+00
        -11   -1    0    0    0    0  0.00000000000E+00  0.00000000000E+00  0.45593999997E+02  0.45594000000E+02  0.51100000000E-03 0.  1.
         11   -1    0    0    0    0 -0.00000000000E+00 -0.00000000000E+00 -0.45593999997E+02  0.45594000000E+02  0.51100000000E-03 0. -1.
    9900012    2    1    2    0    0 -0.85053809710E+00 -0.72646517667E+00  0.37651377106E+00  0.90007775730E+02  0.90000037570E+02 0.  0.
         12    1    1    2    0    0  0.85053809710E+00  0.72646517667E+00 -0.37651377106E+00  0.11802242699E+01  0.00000000000E+00 0. -1.
         11    1    3    3    0    0  0.41234488664E+02 -0.21412331234E+01 -0.22139902875E+01  0.41349361396E+02  0.51100000000E-03 0. -1.
        -11    1    3    3    0    0 -0.44258128093E+01 -0.69085040034E+01  0.56614497040E+01  0.99683127760E+01  0.51100000000E-03 0.  1.
        -12    1    3    3    0    0 -0.37659213951E+02  0.83232719501E+01 -0.30709456455E+01  0.38690101558E+02  0.00000000000E+00 0.  1.
</event>
<event>
 7    1  0.2490895E-015  0.9000780E+02  0.7816164E-02  0.1186339E+00
        -11   -1    0    0    0    0  0.00000000000E+00  0.00000000000E+00  0.45593999997E+02  0.45594000000E+02  0.51100000000E-03 0.  1.
         11   -1    0    0    0    0 -0.00000000000E+00 -0.00000000000E+00 -0.45593999997E+02  0.45594000000E+02  0.51100000000E-03 0. -1.
    9900012    2    1    2    0    0  0.38309293355E+00 -0.80102315189E+00  0.77748028682E+00  0.90007799220E+02  0.90000061369E+02 0.  0.
         12    1    1    2    0    0 -0.38309293355E+00  0.80102315189E+00 -0.77748028682E+00  0.11802007804E+01  0.00000000000E+00 0. -1.
         11    1    3    3    0    0 -0.31185225200E+02  0.19874655189E+02 -0.12413909808E+02  0.39008016440E+02  0.51100000000E-03 0. -1.
        -11    1    3    3    0    0 -0.10471972103E+01  0.53434109542E+01  0.69250343204E+01  0.88093565725E+01  0.51100000000E-03 0.  1.
        -12    1    3    3    0    0  0.32615515343E+02 -0.26019089295E+02  0.62663557743E+01  0.42190426207E+02  0.00000000000E+00 0.  1.
</event>
<event>
 7    1  0.2490895E-015  0.9000773E+02  0.7816164E-02  0.1186339E+00
        -11   -1    0    0    0    0  0.00000000000E+00  0.00000000000E+00  0.45593999997E+02  0.45594000000E+02  0.51100000000E-03 0.  1.
         11   -1    0    0    0    0 -0.00000000000E+00 -0.00000000000E+00 -0.45593999997E+02  0.45594000000E+02  0.51100000000E-03 0. -1.
    9900012    2    1    2    0    0 -0.59004792852E+00 -0.10102096913E+01  0.15606244276E+00  0.90007730681E+02  0.89999991926E+02 0.  0.
         12    1    1    2    0    0  0.59004792852E+00  0.10102096913E+01 -0.15606244276E+00  0.11802693186E+01  0.00000000000E+00 0. -1.
         11    1    3    3    0    0 -0.13459684689E+01 -0.52661647898E+01 -0.79786830063E+01  0.96541962632E+01  0.51100000000E-03 0. -1.
        -11    1    3    3    0    0  0.36174330540E+02 -0.58576953133E+01  0.19881970771E+02  0.41691576445E+02  0.51100000000E-03 0.  1.
         12    1    3    3    0    0 -0.35418410000E+02  0.10113650412E+02 -0.11747225322E+02  0.38661957974E+02  0.00000000000E+00 0. -1.
</event>
<event>
 7    1  0.2490895E-015  0.9000787E+02  0.7816164E-02  0.1186339E+00
        -11   -1    0    0    0    0  0.00000000000E+00  0.00000000000E+00  0.45593999997E+02  0.45594000000E+02  0.51100000000E-03 0.  1.
         11   -1    0    0    0    0 -0.00000000000E+00 -0.00000000000E+00 -0.45593999997E+02  0.45594000000E+02  0.51100000000E-03 0. -1.
    9900012    2    1    2    0    0 -0.27098693544E-01 -0.97301089267E+00 -0.66724802909E+00  0.90007870995E+02  0.90000134092E+02 0.  0.
         12    1    1    2    0    0  0.27098693544E-01  0.97301089267E+00  0.66724802909E+00  0.11801290051E+01  0.00000000000E+00 0. -1.
         11    1    3    3    0    0 -0.33029917177E+02 -0.33427152468E+01 -0.13375959277E+02  0.35791974810E+02  0.51100000000E-03 0. -1.
        -11    1    3    3    0    0 -0.92270953746E+01 -0.22407679556E+01 -0.10723157227E+01  0.95556366273E+01  0.51100000000E-03 0.  1.
        -12    1    3    3    0    0  0.42229913858E+02  0.46104723097E+01  0.13781026971E+02  0.44660259558E+02  0.00000000000E+00 0.  1.
</event>
<event>
 7    1  0.2490895E-015  0.9000779E+02  0.7816164E-02  0.1186339E+00
        -11   -1    0    0    0    0  0.00000000000E+00  0.00000000000E+00  0.45593999997E+02  0.45594000000E+02  0.51100000000E-03 0. -1.
         11   -1    0    0    0    0 -0.00000000000E+00 -0.00000000000E+00 -0.45593999997E+02  0.45594000000E+02  0.51100000000E-03 0.  1.
    9900012    2    1    2    0    0  0.85990952374E+00  0.77631844148E+00 -0.22533698567E+00  0.90007791769E+02  0.90000053820E+02 0.  0.
         12    1    1    2    0    0 -0.85990952374E+00 -0.77631844148E+00  0.22533698567E+00  0.11802082311E+01  0.00000000000E+00 0. -1.
         11    1    3    3    0    0  0.12192548813E+02  0.36577878380E+02  0.22878677520E+02  0.44833395128E+02  0.51100000000E-03 0. -1.
        -11    1    3    3    0    0 -0.54365298938E+01 -0.50556132868E+01 -0.56668558301E+01  0.93396112473E+01  0.51100000000E-03 0.  1.
        -12    1    3    3    0    0 -0.58961093953E+01 -0.30745946652E+02 -0.17437158676E+02  0.35834785394E+02  0.00000000000E+00 0.  1.
</event>
<event>
 7    1  0.2490895E-015  0.9000768E+02  0.7816164E-02  0.1186339E+00
        -11   -1    0    0    0    0  0.00000000000E+00  0.00000000000E+00  0.45593999997E+02  0.45594000000E+02  0.51100000000E-03 0.  1.
         11   -1    0    0    0    0 -0.00000000000E+00 -0.00000000000E+00 -0.45593999997E+02  0.45594000000E+02  0.51100000000E-03 0. -1.
    9900012    2    1    2    0    0 -0.54299761533E+00 -0.68145371788E+00 -0.79620381350E+00  0.90007675429E+02  0.89999935945E+02 0.  0.
         12    1    1    2    0    0  0.54299761533E+00  0.68145371788E+00  0.79620381350E+00  0.11803245708E+01  0.00000000000E+00 0. -1.
         11    1    3    3    0    0 -0.36794560435E+02 -0.18604781481E+02  0.11361547696E+02  0.42767538366E+02  0.51100000000E-03 0. -1.
        -11    1    3    3    0    0  0.71120129941E+01  0.58072752615E+01  0.58680511506E+01  0.10896751780E+02  0.51100000000E-03 0.  1.
        -12    1    3    3    0    0  0.29139549826E+02  0.12116052502E+02 -0.18025802660E+02  0.36343385283E+02  0.00000000000E+00 0.  1.
</event>
<event>
 7    1  0.2490895E-015  0.9000765E+02  0.7816164E-02  0.1186339E+00
        -11   -1    0    0    0    0  0.00000000000E+00  0.00000000000E+00  0.45593999997E+02  0.45594000000E+02  0.51100000000E-03 0.  1.
         11   -1    0    0    0    0 -0.00000000000E+00 -0.00000000000E+00 -0.45593999997E+02  0.45594000000E+02  0.51100000000E-03 0. -1.
    9900012    2    1    2    0    0 -0.77625929316E+00 -0.83573783526E+00 -0.30361849361E+00  0.90007652420E+02  0.89999912632E+02 0.  0.
         12    1    1    2    0    0  0.77625929316E+00  0.83573783526E+00  0.30361849361E+00  0.11803475798E+01  0.00000000000E+00 0. -1.
         11    1    3    3    0    0  0.19290058195E+01  0.62515182386E+01  0.75941989822E+01  0.10023692043E+02  0.51100000000E-03 0. -1.
        -11    1    3    3    0    0  0.21750528247E+01  0.30446480656E+02  0.16748546648E+02  0.34817134491E+02  0.51100000000E-03 0.  1.
         12    1    3    3    0    0 -0.48803179374E+01 -0.37533736729E+02 -0.24646364124E+02  0.45166825885E+02  0.00000000000E+00 0. -1.
</event>
<event>
 7    1  0.2490895E-015  0.9000796E+02  0.7816164E-02  0.1186339E+00
        -11   -1    0    0    0    0  0.00000000000E+00  0.00000000000E+00  0.45593999997E+02  0.45594000000E+02  0.51100000000E-03 0.  1.
         11   -1    0    0    0    0 -0.00000000000E+00 -0.00000000000E+00 -0.45593999997E+02  0.45594000000E+02  0.51100000000E-03 0. -1.
    9900012    2    1    2    0    0 -0.10661812165E+01 -0.50570877842E+00  0.46676408951E-02  0.90007955280E+02  0.90000219489E+02 0.  0.
         12    1    1    2    0    0  0.10661812165E+01  0.50570877842E+00 -0.46676408951E-02  0.11800447203E+01  0.00000000000E+00 0. -1.
         11    1    3    3    0    0  0.23694199109E+02  0.20602619941E+02 -0.28322180932E+02  0.42285091378E+02  0.51100000000E-03 0. -1.
        -11    1    3    3    0    0 -0.66717139268E+01 -0.61327686316E+01 -0.20856657760E+01  0.92990655337E+01  0.51100000000E-03 0.  1.
        -12    1    3    3    0    0 -0.18088666399E+02 -0.14975560087E+02  0.30412514349E+02  0.38423798368E+02  0.00000000000E+00 0.  1.
</event>
<event>
 7    1  0.2490895E-015  0.9000781E+02  0.7816164E-02  0.1186339E+00
        -11   -1    0    0    0    0  0.00000000000E+00  0.00000000000E+00  0.45593999997E+02  0.45594000000E+02  0.51100000000E-03 0.  1.
         11   -1    0    0    0    0 -0.00000000000E+00 -0.00000000000E+00 -0.45593999997E+02  0.45594000000E+02  0.51100000000E-03 0. -1.
    9900012    2    1    2    0    0 -0.26589245004E+00 -0.70109040702E-01  0.11477064116E+01  0.90007811846E+02  0.90000074162E+02 0.  0.
         12    1    1    2    0    0  0.26589245004E+00  0.70109040702E-01 -0.11477064116E+01  0.11801881544E+01  0.00000000000E+00 0. -1.
         11    1    3    3    0    0  0.29617721221E+02 -0.57934059615E+01 -0.16401281950E+02  0.34347853104E+02  0.51100000000E-03 0. -1.
        -11    1    3    3    0    0  0.58160831410E+01  0.18940339704E-01 -0.90631405620E+01  0.10768829971E+02  0.51100000000E-03 0.  1.
        -12    1    3    3    0    0 -0.35699696812E+02  0.57043565811E+01  0.26612128924E+02  0.44891128771E+02  0.00000000000E+00 0.  1.
</event>
<event>
 7    1  0.2490895E-015  0.9000782E+02  0.7816164E-02  0.1186339E+00
        -11   -1    0    0    0    0  0.00000000000E+00  0.00000000000E+00  0.45593999997E+02  0.45594000000E+02  0.51100000000E-03 0.  1.
         11   -1    0    0    0    0 -0.00000000000E+00 -0.00000000000E+00 -0.45593999997E+02  0.45594000000E+02  0.51100000000E-03 0. -1.
    9900012    2    1    2    0    0 -0.65055230854E+00 -0.92193334365E+00  0.34591436524E+00  0.90007815208E+02  0.90000077568E+02 0.  0.
         12    1    1    2    0    0  0.65055230854E+00  0.92193334365E+00 -0.34591436524E+00  0.11801847925E+01  0.00000000000E+00 0. -1.
         11    1    3    3    0    0 -0.95882986306E+01  0.18890941647E+00  0.12657787796E+01  0.96733320824E+01  0.51100000000E-03 0. -1.
        -11    1    3    3    0    0  0.64375122174E+01  0.17949777710E+02  0.34850025861E+02  0.39726066835E+02  0.51100000000E-03 0.  1.
         12    1    3    3    0    0  0.25002341047E+01 -0.19060620470E+02 -0.35769890275E+02  0.40608416290E+02  0.00000000000E+00 0. -1.
</event>
<event>
 7    1  0.2490895E-015  0.9000782E+02  0.7816164E-02  0.1186339E+00
        -11   -1    0    0    0    0  0.00000000000E+00  0.00000000000E+00  0.45593999997E+02  0.45594000000E+02  0.51100000000E-03 0. -1.
         11   -1    0    0    0    0 -0.00000000000E+00 -0.00000000000E+00 -0.45593999997E+02  0.45594000000E+02  0.51100000000E-03 0.  1.
    9900012    2    1    2    0    0 -0.59946726602E+00 -0.18344812561E-01 -0.10164343537E+01  0.90007815129E+02  0.90000077488E+02 0.  0.
         12    1    1    2    0    0  0.59946726602E+00  0.18344812561E-01  0.10164343537E+01  0.11801848713E+01  0.00000000000E+00 0. -1.
         11    1    3    3    0    0 -0.31847189503E+02 -0.11437193534E+02  0.77574971890E+01  0.34716446219E+02  0.51100000000E-03 0. -1.
        -11    1    3    3    0    0 -0.88113903210E+01  0.10052489647E+02  0.26179200819E+01  0.13621551061E+02  0.51100000000E-03 0.  1.
        -12    1    3    3    0    0  0.40059112558E+02  0.13663590740E+01 -0.11391851625E+02  0.41669817848E+02  0.00000000000E+00 0.  1.
</event>
<event>
 7    1  0.2490895E-015  0.9000765E+02  0.7816164E-02  0.1186339E+00
        -11   -1    0    0    0    0  0.00000000000E+00  0.00000000000E+00  0.45593999997E+02  0.45594000000E+02  0.51100000000E-03 0. -1.
         11   -1    0    0    0    0 -0.00000000000E+00 -0.00000000000E+00 -0.45593999997E+02  0.45594000000E+02  0.51100000000E-03 0.  1.
    9900012    2    1    2    0    0  0.11529411198E+01 -0.23482456963E-01  0.25180110840E+00  0.90007649014E+02  0.89999909181E+02 0.  0.
         12    1    1    2    0    0 -0.11529411198E+01  0.23482456963E-01 -0.25180110840E+00  0.11803509858E+01  0.00000000000E+00 0. -1.
         11    1    3    3    0    0  0.26591756272E+02  0.23591745027E+02  0.76920265227E+01  0.36371131510E+02  0.51100000000E-03 0. -1.
        -11    1    3    3    0    0  0.89698107806E+01  0.25486235138E+01  0.16372745843E+01  0.94675052459E+01  0.51100000000E-03 0.  1.
        -12    1    3    3    0    0 -0.34408625933E+02 -0.26163850998E+02 -0.90774999987E+01  0.44169012258E+02  0.00000000000E+00 0.  1.
</event>
<event>
 7    1  0.2490895E-015  0.9000771E+02  0.7816164E-02  0.1186339E+00
        -11   -1    0    0    0    0  0.00000000000E+00  0.00000000000E+00  0.45593999997E+02  0.45594000000E+02  0.51100000000E-03 0.  1.
         11   -1    0    0    0    0 -0.00000000000E+00 -0.00000000000E+00 -0.45593999997E+02  0.45594000000E+02  0.51100000000E-03 0. -1.
    9900012    2    1    2    0    0  0.69876355280E+00  0.12229072852E+00  0.94332906693E+00  0.90007705438E+02  0.89999966350E+02 0.  0.
         12    1    1    2    0    0 -0.69876355280E+00 -0.12229072852E+00 -0.94332906693E+00  0.11802945622E+01  0.00000000000E+00 0. -1.
         11    1    3    3    0    0 -0.21540044444E+02  0.33016469333E+02 -0.19416249768E+02  0.43943731261E+02  0.51100000000E-03 0. -1.
        -11    1    3    3    0    0  0.34207032829E+01 -0.11854607673E+02  0.10381972154E+02  0.16125082329E+02  0.51100000000E-03 0.  1.
        -12    1    3    3    0    0  0.18818104714E+02 -0.21039570931E+02  0.99776066808E+01  0.29938891848E+02  0.00000000000E+00 0.  1.
</event>
<event>
 7    1  0.2490895E-015  0.9000772E+02  0.7816164E-02  0.1186339E+00
        -11   -1    0    0    0    0  0.00000000000E+00  0.00000000000E+00  0.45593999997E+02  0.45594000000E+02  0.51100000000E-03 0.  1.
         11   -1    0    0    0    0 -0.00000000000E+00 -0.00000000000E+00 -0.45593999997E+02  0.45594000000E+02  0.51100000000E-03 0. -1.
    9900012    2    1    2    0    0 -0.30812045846E+00 -0.10720259612E+01 -0.38586388310E+00  0.90007716638E+02  0.89999977698E+02 0.  0.
         12    1    1    2    0    0  0.30812045846E+00  0.10720259612E+01  0.38586388310E+00  0.11802833621E+01  0.00000000000E+00 0. -1.
         11    1    3    3    0    0  0.21407175995E+02 -0.11478330950E+02 -0.27925467881E+02  0.37011498512E+02  0.51100000000E-03 0. -1.
        -11    1    3    3    0    0  0.92969064636E+00 -0.12543371347E+02  0.44570107892E+01  0.13344116115E+02  0.51100000000E-03 0.  1.
        -12    1    3    3    0    0 -0.22644987100E+02  0.22949676335E+02  0.23082593209E+02  0.39652102011E+02  0.00000000000E+00 0.  1.
</event>
<event>
 7    1  0.2490895E-015  0.9000775E+02  0.7816164E-02  0.1186339E+00
        -11   -1    0    0    0    0  0.00000000000E+00  0.00000000000E+00  0.45593999997E+02  0.45594000000E+02  0.51100000000E-03 0.  1.
         11   -1    0    0    0    0 -0.00000000000E+00 -0.00000000000E+00 -0.45593999997E+02  0.45594000000E+02  0.51100000000E-03 0. -1.
    9900012    2    1    2    0    0  0.10544273971E+01 -0.41326894027E-01  0.52864765018E+00  0.90007748592E+02  0.90000010073E+02 0.  0.
         12    1    1    2    0    0 -0.10544273971E+01  0.41326894027E-01 -0.52864765018E+00  0.11802514080E+01  0.00000000000E+00 0. -1.
         11    1    3    3    0    0  0.10217318311E+02  0.90971442279E+01  0.11629796626E+01  0.13729681298E+02  0.51100000000E-03 0. -1.
        -11    1    3    3    0    0 -0.56744319900E+01  0.23676365231E+02  0.24694537599E+02  0.34678374190E+02  0.51100000000E-03 0.  1.
         12    1    3    3    0    0 -0.34884589243E+01 -0.32814836353E+02 -0.25328869611E+02  0.41599693104E+02  0.00000000000E+00 0. -1.
</event>
<event>
 7    1  0.2490895E-015  0.9000775E+02  0.7816164E-02  0.1186339E+00
        -11   -1    0    0    0    0  0.00000000000E+00  0.00000000000E+00  0.45593999997E+02  0.45594000000E+02  0.51100000000E-03 0. -1.
         11   -1    0    0    0    0 -0.00000000000E+00 -0.00000000000E+00 -0.45593999997E+02  0.45594000000E+02  0.51100000000E-03 0.  1.
    9900012    2    1    2    0    0 -0.39189098855E+00  0.48337056172E+00 -0.10028754906E+01  0.90007752189E+02  0.90000013717E+02 0.  0.
         12    1    1    2    0    0  0.39189098855E+00 -0.48337056172E+00  0.10028754906E+01  0.11802478115E+01  0.00000000000E+00 0. -1.
         11    1    3    3    0    0 -0.35989199316E+02 -0.59100155946E+01 -0.18135474080E+02  0.40731390500E+02  0.51100000000E-03 0. -1.
        -11    1    3    3    0    0  0.33553648798E+01 -0.76287080104E+01 -0.28836902183E+01  0.88188054134E+01  0.51100000000E-03 0.  1.
        -12    1    3    3    0    0  0.32241943448E+02  0.14022094167E+02  0.20016288808E+02  0.40457556275E+02  0.00000000000E+00 0.  1.
</event>
<event>
 7    1  0.2490895E-015  0.9000773E+02  0.7816164E-02  0.1186339E+00
        -11   -1    0    0    0    0  0.00000000000E+00  0.00000000000E+00  0.45593999997E+02  0.45594000000E+02  0.51100000000E-03 0. -1.
         11   -1    0    0    0    0 -0.00000000000E+00 -0.00000000000E+00 -0.45593999997E+02  0.45594000000E+02  0.51100000000E-03 0.  1.
    9900012    2    1    2    0    0  0.10958422199E+01 -0.42618831671E+00  0.10257700169E+00  0.90007733635E+02  0.89999994918E+02 0.  0.
         12    1    1    2    0    0 -0.10958422199E+01  0.42618831671E+00 -0.10257700169E+00  0.11802663655E+01  0.00000000000E+00 0. -1.
         11    1    3    3    0    0  0.31650043725E+02 -0.32871017236E+01  0.20389380332E+02  0.37792289374E+02  0.51100000000E-03 0. -1.
        -11    1    3    3    0    0  0.59424266674E+01  0.68007804189E+01  0.20284147947E+01  0.92562149848E+01  0.51100000000E-03 0.  1.
        -12    1    3    3    0    0 -0.36496628172E+02 -0.39398670120E+01 -0.22315218125E+02  0.42959229276E+02  0.00000000000E+00 0.  1.
</event>
<event>
 7    1  0.2490895E-015  0.9000774E+02  0.7816164E-02  0.1186339E+00
        -11   -1    0    0    0    0  0.00000000000E+00  0.00000000000E+00  0.45593999997E+02  0.45594000000E+02  0.51100000000E-03 0.  1.
         11   -1    0    0    0    0 -0.00000000000E+00 -0.00000000000E+00 -0.45593999997E+02  0.45594000000E+02  0.51100000000E-03 0. -1.
    9900012    2    1    2    0    0 -0.21141425166E+00 -0.11198903533E+01  0.30685889338E+00  0.90007740380E+02  0.90000001753E+02 0.  0.
         12    1    1    2    0    0  0.21141425166E+00  0.11198903533E+01 -0.30685889338E+00  0.11802596196E+01  0.00000000000E+00 0. -1.
         11    1    3    3    0    0 -0.36117736265E+02 -0.11746612824E+02  0.11003404007E+02  0.39541733469E+02  0.51100000000E-03 0. -1.
        -11    1    3    3    0    0  0.90002039898E+01 -0.10326495143E+02  0.24532511434E+01  0.13916127882E+02  0.51100000000E-03 0.  1.
        -12    1    3    3    0    0  0.26906118023E+02  0.20953217614E+02 -0.13149796257E+02  0.36549879029E+02  0.00000000000E+00 0.  1.
</event>
<event>
 7    1  0.2490895E-015  0.9000774E+02  0.7816164E-02  0.1186339E+00
        -11   -1    0    0    0    0  0.00000000000E+00  0.00000000000E+00  0.45593999997E+02  0.45594000000E+02  0.51100000000E-03 0. -1.
         11   -1    0    0    0    0 -0.00000000000E+00 -0.00000000000E+00 -0.45593999997E+02  0.45594000000E+02  0.51100000000E-03 0.  1.
    9900012    2    1    2    0    0 -0.10252252457E+00  0.11118679276E+01 -0.38243540036E+00  0.90007738168E+02  0.89999999512E+02 0.  0.
         12    1    1    2    0    0  0.10252252457E+00 -0.11118679276E+01  0.38243540036E+00  0.11802618319E+01  0.00000000000E+00 0. -1.
         11    1    3    3    0    0 -0.18905770428E+02 -0.22783758231E+02  0.19155266360E+02  0.35262615107E+02  0.51100000000E-03 0. -1.
        -11    1    3    3    0    0 -0.40477329119E+01 -0.41992733271E+01  0.75358901812E+01  0.95293063381E+01  0.51100000000E-03 0.  1.
        -12    1    3    3    0    0  0.22850980815E+02  0.28094899485E+02 -0.27073591942E+02  0.45215816723E+02  0.00000000000E+00 0.  1.
</event>
<event>
 7    1  0.2490895E-015  0.9000772E+02  0.7816164E-02  0.1186339E+00
        -11   -1    0    0    0    0  0.00000000000E+00  0.00000000000E+00  0.45593999997E+02  0.45594000000E+02  0.51100000000E-03 0.  1.
         11   -1    0    0    0    0 -0.00000000000E+00 -0.00000000000E+00 -0.45593999997E+02  0.45594000000E+02  0.51100000000E-03 0. -1.
    9900012    2    1    2    0    0  0.86995846276E+00  0.26541397487E+00 -0.75219282330E+00  0.90007717683E+02  0.89999978756E+02 0.  0.
         12    1    1    2    0    0 -0.86995846276E+00 -0.26541397487E+00  0.75219282330E+00  0.11802823172E+01  0.00000000000E+00 0. -1.
         11    1    3    3    0    0 -0.22102439978E+01 -0.13514270155E+02  0.83067853466E+01  0.16016346631E+02  0.51100000000E-03 0. -1.
        -11    1    3    3    0    0 -0.28825987729E+02  0.23008457301E+02  0.62680275488E+01  0.37411426670E+02  0.51100000000E-03 0.  1.
         12    1    3    3    0    0  0.31906190189E+02 -0.92287731705E+01 -0.15327005719E+02  0.36579944381E+02  0.00000000000E+00 0. -1.
</event>
<event>
 7    1  0.2490895E-015  0.9000755E+02  0.7816164E-02  0.1186339E+00
        -11   -1    0    0    0    0  0.00000000000E+00  0.00000000000E+00  0.45593999997E+02  0.45594000000E+02  0.51100000000E-03 0.  1.
         11   -1    0    0    0    0 -0.00000000000E+00 -0.00000000000E+00 -0.45593999997E+02  0.45594000000E+02  0.51100000000E-03 0. -1.
    9900012    2    1    2    0    0  0.23675589016E+00 -0.11474909675E+01  0.14375860099E+00  0.90007552878E+02  0.89999811776E+02 0.  0.
         12    1    1    2    0    0 -0.23675589016E+00  0.11474909675E+01 -0.14375860099E+00  0.11804471218E+01  0.00000000000E+00 0. -1.
         11    1    3    3    0    0  0.48101279916E+01 -0.80869961513E+01 -0.44165483387E+01  0.10394360853E+02  0.51100000000E-03 0. -1.
        -11    1    3    3    0    0 -0.32806816744E+01 -0.27514744796E+02  0.26828112306E+02  0.38569050592E+02  0.51100000000E-03 0.  1.
         12    1    3    3    0    0 -0.12926904271E+01  0.34454249980E+02 -0.22267805366E+02  0.41044141433E+02  0.00000000000E+00 0. -1.
</event>
<event>
 7    1  0.2900579E-015  0.9000776E+02  0.7816164E-02  0.1186339E+00
        -11   -1    0    0    0    0  0.00000000000E+00  0.00000000000E+00  0.45593999997E+02  0.45594000000E+02  0.51100000000E-03 0.  1.
         11   -1    0    0    0    0 -0.00000000000E+00 -0.00000000000E+00 -0.45593999997E+02  0.45594000000E+02  0.51100000000E-03 0. -1.
    9900012    2    1    2    0    0  0.17839924618E+00  0.75903799720E+00  0.88600440780E+00  0.90007759015E+02  0.90000020634E+02 0.  0.
         12    1    1    2    0    0 -0.17839924618E+00 -0.75903799720E+00 -0.88600440780E+00  0.11802409851E+01  0.00000000000E+00 0. -1.
         11    1    3    3    0    0  0.26865208524E+02 -0.25588405614E+01 -0.25037484253E+02  0.36812534714E+02  0.51100000000E-03 0. -1.
        -11    1    3    3    0    0  0.84587568306E+01  0.43462394224E+01 -0.19669060282E-02  0.95100141097E+01  0.51100000000E-03 0.  1.
        -12    1    3    3    0    0 -0.35145566108E+02 -0.10283608639E+01  0.25925455567E+02  0.43685210192E+02  0.00000000000E+00 0.  1.
</event>
<event>
 7    1  0.2490895E-015  0.9000773E+02  0.7816164E-02  0.1186339E+00
        -11   -1    0    0    0    0  0.00000000000E+00  0.00000000000E+00  0.45593999997E+02  0.45594000000E+02  0.51100000000E-03 0.  1.
         11   -1    0    0    0    0 -0.00000000000E+00 -0.00000000000E+00 -0.45593999997E+02  0.45594000000E+02  0.51100000000E-03 0. -1.
    9900012    2    1    2    0    0  0.61712549433E+00 -0.70955883724E+00  0.71324746995E+00  0.90007729026E+02  0.89999990249E+02 0.  0.
         12    1    1    2    0    0 -0.61712549433E+00  0.70955883724E+00 -0.71324746995E+00  0.11802709742E+01  0.00000000000E+00 0. -1.
         11    1    3    3    0    0  0.20041373915E+02  0.13557018789E+02  0.16535978740E+02  0.29306791363E+02  0.51100000000E-03 0. -1.
        -11    1    3    3    0    0  0.74377105334E+01 -0.19634920748E+02  0.98192329406E+01  0.23179020397E+02  0.51100000000E-03 0.  1.
        -12    1    3    3    0    0 -0.26861958954E+02  0.53683431218E+01 -0.25641964211E+02  0.37521917266E+02  0.00000000000E+00 0.  1.
</event>
<event>
 7    1  0.2490895E-015  0.9000774E+02  0.7816164E-02  0.1186339E+00
        -11   -1    0    0    0    0  0.00000000000E+00  0.00000000000E+00  0.45593999997E+02  0.45594000000E+02  0.51100000000E-03 0.  1.
         11   -1    0    0    0    0 -0.00000000000E+00 -0.00000000000E+00 -0.45593999997E+02  0.45594000000E+02  0.51100000000E-03 0. -1.
    9900012    2    1    2    0    0  0.79610219637E+00  0.30890506904E+00  0.81474948492E+00  0.90007738261E+02  0.89999999606E+02 0.  0.
         12    1    1    2    0    0 -0.79610219637E+00 -0.30890506904E+00 -0.81474948492E+00  0.11802617387E+01  0.00000000000E+00 0. -1.
         11    1    3    3    0    0  0.32521754501E+02 -0.15931565602E+02 -0.65535475760E+01  0.36802558124E+02  0.51100000000E-03 0. -1.
        -11    1    3    3    0    0  0.63274193858E+01 -0.55097609379E+01 -0.14004984576E+01  0.85061799809E+01  0.51100000000E-03 0.  1.
        -12    1    3    3    0    0 -0.38053071690E+02  0.21750231609E+02  0.87687955186E+01  0.44699000156E+02  0.00000000000E+00 0.  1.
</event>
<event>
 7    1  0.2669798E-015  0.9000771E+02  0.7816164E-02  0.1186339E+00
        -11   -1    0    0    0    0  0.00000000000E+00  0.00000000000E+00  0.45593999997E+02  0.45594000000E+02  0.51100000000E-03 0. -1.
         11   -1    0    0    0    0 -0.00000000000E+00 -0.00000000000E+00 -0.45593999997E+02  0.45594000000E+02  0.51100000000E-03 0.  1.
    9900012    2    1    2    0    0  0.50247300620E+00  0.76011450088E+00 -0.75021881762E+00  0.90007711285E+02  0.89999972274E+02 0.  0.
         12    1    1    2    0    0 -0.50247300620E+00 -0.76011450088E+00  0.75021881762E+00  0.11802887150E+01  0.00000000000E+00 0. -1.
         11    1    3    3    0    0 -0.21354117968E+02 -0.27994810656E+02  0.17520395321E+02  0.39327751402E+02  0.51100000000E-03 0. -1.
        -11    1    3    3    0    0  0.71842057601E+01 -0.11418636423E+01  0.60339675435E+01  0.94512131263E+01  0.51100000000E-03 0.  1.
        -12    1    3    3    0    0  0.14672385214E+02  0.29896788799E+02 -0.24304581682E+02  0.41228746757E+02  0.00000000000E+00 0.  1.
</event>
<event>
 7    1  0.2490895E-015  0.9000788E+02  0.7816164E-02  0.1186339E+00
        -11   -1    0    0    0    0  0.00000000000E+00  0.00000000000E+00  0.45593999997E+02  0.45594000000E+02  0.51100000000E-03 0.  1.
         11   -1    0    0    0    0 -0.00000000000E+00 -0.00000000000E+00 -0.45593999997E+02  0.45594000000E+02  0.51100000000E-03 0. -1.
    9900012    2    1    2    0    0 -0.21902618718E-01  0.10985380597E+01  0.43059588321E+00  0.90007882036E+02  0.90000145279E+02 0.  0.
         12    1    1    2    0    0  0.21902618718E-01 -0.10985380597E+01 -0.43059588321E+00  0.11801179635E+01  0.00000000000E+00 0. -1.
         11    1    3    3    0    0  0.34676377837E+02 -0.67280078987E+01  0.88463896433E+00  0.35334117458E+02  0.51100000000E-03 0. -1.
        -11    1    3    3    0    0  0.90124347976E+01 -0.32151982874E+01 -0.63219684018E+00  0.95896378510E+01  0.51100000000E-03 0.  1.
        -12    1    3    3    0    0 -0.43710715254E+02  0.11041744246E+02  0.17815375906E+00  0.45084126727E+02  0.00000000000E+00 0.  1.
</event>
<event>
 7    1  0.2490895E-015  0.9000772E+02  0.7816164E-02  0.1186339E+00
        -11   -1    0    0    0    0  0.00000000000E+00  0.00000000000E+00  0.45593999997E+02  0.45594000000E+02  0.51100000000E-03 0.  1.
         11   -1    0    0    0    0 -0.00000000000E+00 -0.00000000000E+00 -0.45593999997E+02  0.45594000000E+02  0.51100000000E-03 0. -1.
    9900012    2    1    2    0    0  0.81216861832E+00  0.40965269188E+00  0.75208763624E+00  0.90007716557E+02  0.89999977616E+02 0.  0.
         12    1    1    2    0    0 -0.81216861832E+00 -0.40965269188E+00 -0.75208763624E+00  0.11802834427E+01  0.00000000000E+00 0. -1.
         11    1    3    3    0    0 -0.14120086129E+02 -0.18404053146E+01 -0.34258581388E+02  0.37100058261E+02  0.51100000000E-03 0. -1.
        -11    1    3    3    0    0  0.20009278848E+01 -0.80334178666E+01 -0.49641640003E+01  0.96531051741E+01  0.51100000000E-03 0.  1.
        -12    1    3    3    0    0  0.12931326862E+02  0.10283475873E+02  0.39974833024E+02  0.43254553122E+02  0.00000000000E+00 0.  1.
</event>
<event>
 7    1  0.2490895E-015  0.9000773E+02  0.7816164E-02  0.1186339E+00
        -11   -1    0    0    0    0  0.00000000000E+00  0.00000000000E+00  0.45593999997E+02  0.45594000000E+02  0.51100000000E-03 0.  1.
         11   -1    0    0    0    0 -0.00000000000E+00 -0.00000000000E+00 -0.45593999997E+02  0.45594000000E+02  0.51100000000E-03 0. -1.
    9900012    2    1    2    0    0  0.42244375970E+00 -0.14092336693E+00  0.10930334806E+01  0.90007728711E+02  0.89999989930E+02 0.  0.
         12    1    1    2    0    0 -0.42244375970E+00  0.14092336693E+00 -0.10930334806E+01  0.11802712888E+01  0.00000000000E+00 0. -1.
         11    1    3    3    0    0  0.34495123600E+01  0.61275264281E+01 -0.23532020668E+01  0.74150708612E+01  0.51100000000E-03 0. -1.
        -11    1    3    3    0    0  0.11186684756E+02  0.18925783256E+02  0.34018497252E+02  0.40504139828E+02  0.51100000000E-03 0.  1.
         12    1    3    3    0    0 -0.14213753356E+02 -0.25194233051E+02 -0.30572261705E+02  0.42088518022E+02  0.00000000000E+00 0. -1.
</event>
<event>
 7    1  0.2498096E-015  0.9000785E+02  0.7816164E-02  0.1186339E+00
        -11   -1    0    0    0    0  0.00000000000E+00  0.00000000000E+00  0.45593999997E+02  0.45594000000E+02  0.51100000000E-03 0. -1.
         11   -1    0    0    0    0 -0.00000000000E+00 -0.00000000000E+00 -0.45593999997E+02  0.45594000000E+02  0.51100000000E-03 0.  1.
    9900012    2    1    2    0    0 -0.88227194804E+00 -0.17534217447E+00 -0.76393741831E+00  0.90007852108E+02  0.90000114956E+02 0.  0.
         12    1    1    2    0    0  0.88227194804E+00  0.17534217447E+00  0.76393741831E+00  0.11801478922E+01  0.00000000000E+00 0. -1.
         11    1    3    3    0    0 -0.39584549729E+02  0.29850241489E+01 -0.18916706822E+01  0.39741984911E+02  0.51100000000E-03 0. -1.
        -11    1    3    3    0    0 -0.89033976118E+00 -0.70649621452E+00 -0.92039879761E+01  0.92739008361E+01  0.51100000000E-03 0.  1.
        -12    1    3    3    0    0  0.39592617542E+02 -0.24538701088E+01  0.10331721240E+02  0.40991966361E+02  0.00000000000E+00 0.  1.
</event>
<event>
 7    1  0.2490895E-015  0.9000770E+02  0.7816164E-02  0.1186339E+00
        -11   -1    0    0    0    0  0.00000000000E+00  0.00000000000E+00  0.45593999997E+02  0.45594000000E+02  0.51100000000E-03 0. -1.
         11   -1    0    0    0    0 -0.00000000000E+00 -0.00000000000E+00 -0.45593999997E+02  0.45594000000E+02  0.51100000000E-03 0.  1.
    9900012    2    1    2    0    0 -0.81238864183E+00 -0.85613466017E+00 -0.13171559558E-01  0.90007696924E+02  0.89999957723E+02 0.  0.
         12    1    1    2    0    0  0.81238864183E+00  0.85613466017E+00  0.13171559558E-01  0.11803030762E+01  0.00000000000E+00 0. -1.
         11    1    3    3    0    0 -0.55103511122E+01  0.54947589517E-01  0.13475640942E+02  0.14558842251E+02  0.51100000000E-03 0. -1.
        -11    1    3    3    0    0 -0.15233213648E+02  0.28454680201E+02 -0.21862965013E+02  0.38983443445E+02  0.51100000000E-03 0.  1.
         12    1    3    3    0    0  0.19931176118E+02 -0.29365762451E+02  0.83741525112E+01  0.36465411228E+02  0.00000000000E+00 0. -1.
</event>
<event>
 7    1  0.2490895E-015  0.9000677E+02  0.7816164E-02  0.1186341E+00
        -11   -1    0    0    0    0  0.00000000000E+00  0.00000000000E+00  0.45593999997E+02  0.45594000000E+02  0.51100000000E-03 0. -1.
         11   -1    0    0    0    0 -0.00000000000E+00 -0.00000000000E+00 -0.45593999997E+02  0.45594000000E+02  0.51100000000E-03 0.  1.
    9900012    2    1    2    0    0 -0.45031995537E+00 -0.66852793266E+00 -0.86346863515E+00  0.90006773628E+02  0.89999022234E+02 0.  0.
         12    1    1    2    0    0  0.45031995537E+00  0.66852793266E+00  0.86346863515E+00  0.11812263724E+01  0.00000000000E+00 0. -1.
         11    1    3    3    0    0 -0.29115780181E+01  0.90659831663E+01  0.11681459377E+01  0.95934301749E+01  0.51100000000E-03 0. -1.
        -11    1    3    3    0    0 -0.20257657598E+02  0.27494613021E+02 -0.11015228503E+02  0.35884003341E+02  0.51100000000E-03 0.  1.
         12    1    3    3    0    0  0.22718915661E+02 -0.37229124120E+02  0.89836139296E+01  0.44529340112E+02  0.00000000000E+00 0. -1.
</event>
<event>
 7    1  0.2490895E-015  0.9000770E+02  0.7816164E-02  0.1186339E+00
        -11   -1    0    0    0    0  0.00000000000E+00  0.00000000000E+00  0.45593999997E+02  0.45594000000E+02  0.51100000000E-03 0. -1.
         11   -1    0    0    0    0 -0.00000000000E+00 -0.00000000000E+00 -0.45593999997E+02  0.45594000000E+02  0.51100000000E-03 0.  1.
    9900012    2    1    2    0    0  0.79689855537E+00 -0.58577252738E+00  0.64414902157E+00  0.90007701426E+02  0.89999962285E+02 0.  0.
         12    1    1    2    0    0 -0.79689855537E+00  0.58577252738E+00 -0.64414902157E+00  0.11802985738E+01  0.00000000000E+00 0. -1.
         11    1    3    3    0    0  0.74632206978E+01  0.17775628298E+01 -0.23704394343E+01  0.80298428485E+01  0.51100000000E-03 0. -1.
        -11    1    3    3    0    0  0.39058011538E+01 -0.29880682084E+02  0.29630208070E+02  0.42261799240E+02  0.51100000000E-03 0.  1.
         12    1    3    3    0    0 -0.10572123296E+02  0.27517346727E+02 -0.26615619614E+02  0.39716059338E+02  0.00000000000E+00 0. -1.
</event>
<event>
 7    1  0.2490895E-015  0.9000776E+02  0.7816164E-02  0.1186339E+00
        -11   -1    0    0    0    0  0.00000000000E+00  0.00000000000E+00  0.45593999997E+02  0.45594000000E+02  0.51100000000E-03 0. -1.
         11   -1    0    0    0    0 -0.00000000000E+00 -0.00000000000E+00 -0.45593999997E+02  0.45594000000E+02  0.51100000000E-03 0.  1.
    9900012    2    1    2    0    0 -0.66204485738E+00  0.79000632914E+00 -0.57493451299E+00  0.90007761428E+02  0.90000023079E+02 0.  0.
         12    1    1    2    0    0  0.66204485738E+00 -0.79000632914E+00  0.57493451299E+00  0.11802385723E+01  0.00000000000E+00 0. -1.
         11    1    3    3    0    0  0.11106664814E+02  0.10449505209E+02 -0.71424829231E+01  0.16839395030E+02  0.51100000000E-03 0. -1.
        -11    1    3    3    0    0  0.26719150422E+02 -0.64108087579E+01 -0.12390462432E+02  0.30141914799E+02  0.51100000000E-03 0.  1.
         12    1    3    3    0    0 -0.38487860093E+02 -0.32486901220E+01  0.18958010842E+02  0.43026451599E+02  0.00000000000E+00 0. -1.
</event>
<event>
 7    1  0.2490895E-015  0.9000776E+02  0.7816164E-02  0.1186339E+00
        -11   -1    0    0    0    0  0.00000000000E+00  0.00000000000E+00  0.45593999997E+02  0.45594000000E+02  0.51100000000E-03 0.  1.
         11   -1    0    0    0    0 -0.00000000000E+00 -0.00000000000E+00 -0.45593999997E+02  0.45594000000E+02  0.51100000000E-03 0. -1.
    9900012    2    1    2    0    0  0.48100481118E+00  0.89371080799E+00  0.60239094395E+00  0.90007762953E+02  0.90000024624E+02 0.  0.
         12    1    1    2    0    0 -0.48100481118E+00 -0.89371080799E+00 -0.60239094395E+00  0.11802370465E+01  0.00000000000E+00 0. -1.
         11    1    3    3    0    0  0.20182444571E+01  0.15256766347E+00 -0.83275529376E+01  0.85699898349E+01  0.51100000000E-03 0. -1.
        -11    1    3    3    0    0 -0.40798309214E+02  0.62901542465E+01  0.37694421822E+01  0.41452102115E+02  0.51100000000E-03 0.  1.
         12    1    3    3    0    0  0.39261069568E+02 -0.55490111020E+01  0.51605016993E+01  0.39985671003E+02  0.00000000000E+00 0. -1.
</event>
<event>
 7    1  0.2633552E-015  0.9000773E+02  0.7816164E-02  0.1186339E+00
        -11   -1    0    0    0    0  0.00000000000E+00  0.00000000000E+00  0.45593999997E+02  0.45594000000E+02  0.51100000000E-03 0. -1.
         11   -1    0    0    0    0 -0.00000000000E+00 -0.00000000000E+00 -0.45593999997E+02  0.45594000000E+02  0.51100000000E-03 0.  1.
    9900012    2    1    2    0    0  0.58938615649E+00 -0.90305785535E+00 -0.47973530409E+00  0.90007730754E+02  0.89999992000E+02 0.  0.
         12    1    1    2    0    0 -0.58938615649E+00  0.90305785535E+00  0.47973530409E+00  0.11802692462E+01  0.00000000000E+00 0. -1.
         11    1    3    3    0    0 -0.76577312442E+01  0.33898679303E+02  0.22132771550E+02  0.41202195124E+02  0.51100000000E-03 0. -1.
        -11    1    3    3    0    0  0.88731137057E+01 -0.24548469200E+01  0.21672242465E+00  0.92089841517E+01  0.51100000000E-03 0.  1.
        -12    1    3    3    0    0 -0.62599630502E+00 -0.32346890239E+02 -0.22829229279E+02  0.39596551478E+02  0.00000000000E+00 0.  1.
</event>
<event>
 7    1  0.2490895E-015  0.9000773E+02  0.7816164E-02  0.1186339E+00
        -11   -1    0    0    0    0  0.00000000000E+00  0.00000000000E+00  0.45593999997E+02  0.45594000000E+02  0.51100000000E-03 0.  1.
         11   -1    0    0    0    0 -0.00000000000E+00 -0.00000000000E+00 -0.45593999997E+02  0.45594000000E+02  0.51100000000E-03 0. -1.
    9900012    2    1    2    0    0  0.71581864270E+00 -0.30248725577E-01  0.93793801945E+00  0.90007729250E+02  0.89999990476E+02 0.  0.
         12    1    1    2    0    0 -0.71581864270E+00  0.30248725577E-01 -0.93793801945E+00  0.11802707499E+01  0.00000000000E+00 0. -1.
         11    1    3    3    0    0 -0.23207536675E+01 -0.74628098417E+01 -0.16968022256E+01  0.79974099791E+01  0.51100000000E-03 0. -1.
        -11    1    3    3    0    0  0.12158754123E+00 -0.36775388104E+02  0.71932177751E+01  0.37472474377E+02  0.51100000000E-03 0.  1.
         12    1    3    3    0    0  0.29149847690E+01  0.44207949220E+02 -0.45584775300E+01  0.44537844894E+02  0.00000000000E+00 0. -1.
</event>
<event>
 7    1  0.2490895E-015  0.9000769E+02  0.7816164E-02  0.1186339E+00
        -11   -1    0    0    0    0  0.00000000000E+00  0.00000000000E+00  0.45593999997E+02  0.45594000000E+02  0.51100000000E-03 0.  1.
         11   -1    0    0    0    0 -0.00000000000E+00 -0.00000000000E+00 -0.45593999997E+02  0.45594000000E+02  0.51100000000E-03 0. -1.
    9900012    2    1    2    0    0 -0.72461949256E+00 -0.11937567563E+00  0.92401195476E+00  0.90007694085E+02  0.89999954847E+02 0.  0.
         12    1    1    2    0    0  0.72461949256E+00  0.11937567563E+00 -0.92401195476E+00  0.11803059152E+01  0.00000000000E+00 0. -1.
         11    1    3    3    0    0  0.25804303694E+01 -0.97890759938E+01  0.30446426220E+01  0.10571399087E+02  0.51100000000E-03 0. -1.
        -11    1    3    3    0    0  0.36056581811E+02  0.14372477265E+02  0.50784355532E+01  0.39146337026E+02  0.51100000000E-03 0.  1.
         12    1    3    3    0    0 -0.39361631673E+02 -0.47027769465E+01 -0.71990662204E+01  0.40289957972E+02  0.00000000000E+00 0. -1.
</event>
<event>
 7    1  0.2490895E-015  0.9000776E+02  0.7816164E-02  0.1186339E+00
        -11   -1    0    0    0    0  0.00000000000E+00  0.00000000000E+00  0.45593999997E+02  0.45594000000E+02  0.51100000000E-03 0.  1.
         11   -1    0    0    0    0 -0.00000000000E+00 -0.00000000000E+00 -0.45593999997E+02  0.45594000000E+02  0.51100000000E-03 0. -1.
    9900012    2    1    2    0    0  0.10364430890E+00  0.11576406219E+01  0.20518167145E+00  0.90007757029E+02  0.90000018622E+02 0.  0.
         12    1    1    2    0    0 -0.10364430890E+00 -0.11576406219E+01 -0.20518167145E+00  0.11802429709E+01  0.00000000000E+00 0. -1.
         11    1    3    3    0    0  0.56507150363E+01 -0.11295878885E+01 -0.10977847014E+02  0.12398373867E+02  0.51100000000E-03 0. -1.
        -11    1    3    3    0    0  0.11308932670E+01 -0.36002476820E+02 -0.32085626864E+01  0.36162855689E+02  0.51100000000E-03 0.  1.
         12    1    3    3    0    0 -0.66779639945E+01  0.38289705331E+02  0.14391591372E+02  0.41446527474E+02  0.00000000000E+00 0. -1.
</event>
<event>
 7    1  0.2490895E-015  0.9000770E+02  0.7816164E-02  0.1186339E+00
        -11   -1    0    0    0    0  0.00000000000E+00  0.00000000000E+00  0.45593999997E+02  0.45594000000E+02  0.51100000000E-03 0. -1.
         11   -1    0    0    0    0 -0.00000000000E+00 -0.00000000000E+00 -0.45593999997E+02  0.45594000000E+02  0.51100000000E-03 0.  1.
    9900012    2    1    2    0    0  0.80967751652E+00 -0.12723913104E-01 -0.85870568999E+00  0.90007697056E+02  0.89999957857E+02 0.  0.
         12    1    1    2    0    0 -0.80967751652E+00  0.12723913104E-01  0.85870568999E+00  0.11803029445E+01  0.00000000000E+00 0. -1.
         11    1    3    3    0    0 -0.52009763303E+01  0.81976472815E+01  0.13093682102E+01  0.97962248397E+01  0.51100000000E-03 0. -1.
        -11    1    3    3    0    0 -0.15083568651E+02  0.30903964048E+02  0.63304894400E+01  0.34966328574E+02  0.51100000000E-03 0.  1.
         12    1    3    3    0    0  0.21094222498E+02 -0.39114335243E+02 -0.84985633402E+01  0.45245143641E+02  0.00000000000E+00 0. -1.
</event>
<event>
 7    1  0.2490895E-015  0.9000774E+02  0.7816164E-02  0.1186339E+00
        -11   -1    0    0    0    0  0.00000000000E+00  0.00000000000E+00  0.45593999997E+02  0.45594000000E+02  0.51100000000E-03 0. -1.
         11   -1    0    0    0    0 -0.00000000000E+00 -0.00000000000E+00 -0.45593999997E+02  0.45594000000E+02  0.51100000000E-03 0.  1.
    9900012    2    1    2    0    0 -0.39058274537E+00  0.10847663371E+01 -0.25247307403E+00  0.90007739207E+02  0.90000000564E+02 0.  0.
         12    1    1    2    0    0  0.39058274537E+00 -0.10847663371E+01  0.25247307403E+00  0.11802607933E+01  0.00000000000E+00 0. -1.
         11    1    3    3    0    0  0.21437007503E+01  0.16656114085E+02  0.38250927909E+02  0.41775053268E+02  0.51100000000E-03 0. -1.
        -11    1    3    3    0    0  0.53496330629E+01 -0.88630914746E+01 -0.23355701104E+01  0.10612627026E+02  0.51100000000E-03 0.  1.
        -12    1    3    3    0    0 -0.78839165586E+01 -0.67082562736E+01 -0.36167830873E+02  0.37620058913E+02  0.00000000000E+00 0.  1.
</event>
<event>
 7    1  0.2490895E-015  0.9000784E+02  0.7816164E-02  0.1186339E+00
        -11   -1    0    0    0    0  0.00000000000E+00  0.00000000000E+00  0.45593999997E+02  0.45594000000E+02  0.51100000000E-03 0.  1.
         11   -1    0    0    0    0 -0.00000000000E+00 -0.00000000000E+00 -0.45593999997E+02  0.45594000000E+02  0.51100000000E-03 0. -1.
    9900012    2    1    2    0    0 -0.56089401311E+00  0.92036221419E+00  0.48073802720E+00  0.90007839947E+02  0.90000102635E+02 0.  0.
         12    1    1    2    0    0  0.56089401311E+00 -0.92036221419E+00 -0.48073802720E+00  0.11801600527E+01  0.00000000000E+00 0. -1.
         11    1    3    3    0    0 -0.24352286194E+01  0.42997829987E+01  0.59535750403E+01  0.77371524663E+01  0.51100000000E-03 0. -1.
        -11    1    3    3    0    0 -0.28962851066E+02  0.18573645817E+02  0.16865077895E+02  0.38317853717E+02  0.51100000000E-03 0.  1.
         12    1    3    3    0    0  0.30837185672E+02 -0.21953066602E+02 -0.22337914909E+02  0.43952833764E+02  0.00000000000E+00 0. -1.
</event>
<event>
 7    1  0.2490895E-015  0.9000766E+02  0.7816164E-02  0.1186339E+00
        -11   -1    0    0    0    0  0.00000000000E+00  0.00000000000E+00  0.45593999997E+02  0.45594000000E+02  0.51100000000E-03 0.  1.
         11   -1    0    0    0    0 -0.00000000000E+00 -0.00000000000E+00 -0.45593999997E+02  0.45594000000E+02  0.51100000000E-03 0. -1.
    9900012    2    1    2    0    0 -0.41399799525E+00 -0.90265815470E+00  0.63798353092E+00  0.90007657224E+02  0.89999917499E+02 0.  0.
         12    1    1    2    0    0  0.41399799525E+00  0.90265815470E+00 -0.63798353092E+00  0.11803427765E+01  0.00000000000E+00 0. -1.
         11    1    3    3    0    0 -0.49605247639E+01  0.66811518956E+00  0.78266926023E+01  0.92903337503E+01  0.51100000000E-03 0. -1.
        -11    1    3    3    0    0 -0.25412615568E+02 -0.15613727692E+01  0.25736250997E+02  0.36202120526E+02  0.51100000000E-03 0.  1.
         12    1    3    3    0    0  0.29959142337E+02 -0.94005751072E-02 -0.32924960069E+02  0.44515202947E+02  0.00000000000E+00 0. -1.
</event>
<event>
 7    1  0.2490895E-015  0.9000773E+02  0.7816164E-02  0.1186339E+00
        -11   -1    0    0    0    0  0.00000000000E+00  0.00000000000E+00  0.45593999997E+02  0.45594000000E+02  0.51100000000E-03 0. -1.
         11   -1    0    0    0    0 -0.00000000000E+00 -0.00000000000E+00 -0.45593999997E+02  0.45594000000E+02  0.51100000000E-03 0.  1.
    9900012    2    1    2    0    0 -0.80460722190E+00 -0.15719819274E+00 -0.84907247361E+00  0.90007733878E+02  0.89999995165E+02 0.  0.
         12    1    1    2    0    0  0.80460722190E+00  0.15719819274E+00  0.84907247361E+00  0.11802661220E+01  0.00000000000E+00 0. -1.
         11    1    3    3    0    0  0.36239070549E+01  0.38950768153E+01 -0.91908506135E+01  0.10619607384E+02  0.51100000000E-03 0. -1.
        -11    1    3    3    0    0  0.68787164914E+01 -0.38512495893E+02 -0.74607632122E+01  0.39827026859E+02  0.51100000000E-03 0.  1.
         12    1    3    3    0    0 -0.11307230768E+02  0.34460220885E+02  0.15802541352E+02  0.39561099634E+02  0.00000000000E+00 0. -1.
</event>
<event>
 7    1  0.2490895E-015  0.9000772E+02  0.7816164E-02  0.1186339E+00
        -11   -1    0    0    0    0  0.00000000000E+00  0.00000000000E+00  0.45593999997E+02  0.45594000000E+02  0.51100000000E-03 0.  1.
         11   -1    0    0    0    0 -0.00000000000E+00 -0.00000000000E+00 -0.45593999997E+02  0.45594000000E+02  0.51100000000E-03 0. -1.
    9900012    2    1    2    0    0  0.78503939387E+00 -0.50393139748E+00  0.72307182335E+00  0.90007717591E+02  0.89999978663E+02 0.  0.
         12    1    1    2    0    0 -0.78503939387E+00  0.50393139748E+00 -0.72307182335E+00  0.11802824090E+01  0.00000000000E+00 0. -1.
         11    1    3    3    0    0 -0.11981028440E+01 -0.86117568815E+01  0.26042886445E+01  0.90763498509E+01  0.51100000000E-03 0. -1.
        -11    1    3    3    0    0 -0.31142518873E+02 -0.13323024182E+02  0.16181737959E+02  0.37539420597E+02  0.51100000000E-03 0.  1.
         12    1    3    3    0    0  0.33125661111E+02  0.21430849666E+02 -0.18062954780E+02  0.43391947143E+02  0.00000000000E+00 0. -1.
</event>
<event>
 7    1  0.2490895E-015  0.9000770E+02  0.7816164E-02  0.1186339E+00
        -11   -1    0    0    0    0  0.00000000000E+00  0.00000000000E+00  0.45593999997E+02  0.45594000000E+02  0.51100000000E-03 0. -1.
         11   -1    0    0    0    0 -0.00000000000E+00 -0.00000000000E+00 -0.45593999997E+02  0.45594000000E+02  0.51100000000E-03 0.  1.
    9900012    2    1    2    0    0  0.60551323841E+00  0.36558722180E+00 -0.94488185023E+00  0.90007702576E+02  0.89999963450E+02 0.  0.
         12    1    1    2    0    0 -0.60551323841E+00 -0.36558722180E+00  0.94488185023E+00  0.11802974242E+01  0.00000000000E+00 0. -1.
         11    1    3    3    0    0  0.24597753405E+01  0.49819561333E+01  0.64953239745E+01  0.85474917628E+01  0.51100000000E-03 0. -1.
        -11    1    3    3    0    0 -0.90442721219E+01 -0.41835219373E+02 -0.80310919120E+01  0.43548626566E+02  0.51100000000E-03 0.  1.
         12    1    3    3    0    0  0.71900100199E+01  0.37218850462E+02  0.59088608728E+00  0.37911584247E+02  0.00000000000E+00 0. -1.
</event>
<event>
 7    1  0.2490895E-015  0.9000762E+02  0.7816164E-02  0.1186339E+00
        -11   -1    0    0    0    0  0.00000000000E+00  0.00000000000E+00  0.45593999997E+02  0.45594000000E+02  0.51100000000E-03 0. -1.
         11   -1    0    0    0    0 -0.00000000000E+00 -0.00000000000E+00 -0.45593999997E+02  0.45594000000E+02  0.51100000000E-03 0.  1.
    9900012    2    1    2    0    0 -0.66346714781E+00  0.97056482948E+00  0.10545400458E+00  0.90007616464E+02  0.89999876201E+02 0.  0.
         12    1    1    2    0    0  0.66346714781E+00 -0.97056482948E+00 -0.10545400458E+00  0.11803835358E+01  0.00000000000E+00 0. -1.
         11    1    3    3    0    0  0.89956285718E+01 -0.23229148574E+01  0.39922460206E+01  0.10112136045E+02  0.51100000000E-03 0. -1.
        -11    1    3    3    0    0  0.17494989180E+01 -0.22736723976E+02 -0.32410969646E+02  0.39629412275E+02  0.51100000000E-03 0.  1.
         12    1    3    3    0    0 -0.11408594638E+02  0.26030203663E+02  0.28524177630E+02  0.40266068144E+02  0.00000000000E+00 0. -1.
</event>
<event>
 7    1  0.2490895E-015  0.9000775E+02  0.7816164E-02  0.1186339E+00
        -11   -1    0    0    0    0  0.00000000000E+00  0.00000000000E+00  0.45593999997E+02  0.45594000000E+02  0.51100000000E-03 0. -1.
         11   -1    0    0    0    0 -0.00000000000E+00 -0.00000000000E+00 -0.45593999997E+02  0.45594000000E+02  0.51100000000E-03 0.  1.
    9900012    2    1    2    0    0  0.15377530393E+00  0.11701171867E+01  0.12719214171E-01  0.90007753054E+02  0.90000014594E+02 0.  0.
         12    1    1    2    0    0 -0.15377530393E+00 -0.11701171867E+01 -0.12719214171E-01  0.11802469459E+01  0.00000000000E+00 0. -1.
         11    1    3    3    0    0  0.15196341818E+02 -0.37464201806E-01  0.30207296743E+02  0.33814360632E+02  0.51100000000E-03 0. -1.
        -11    1    3    3    0    0  0.23476136531E+01  0.21646820051E+01  0.11007567618E+02  0.11461399704E+02  0.51100000000E-03 0.  1.
        -12    1    3    3    0    0 -0.17390180167E+02 -0.95710061653E+00 -0.41202145147E+02  0.44731992718E+02  0.00000000000E+00 0.  1.
</event>
<event>
 7    1  0.3331075E-015  0.9000772E+02  0.7816164E-02  0.1186339E+00
        -11   -1    0    0    0    0  0.00000000000E+00  0.00000000000E+00  0.45593999997E+02  0.45594000000E+02  0.51100000000E-03 0.  1.
         11   -1    0    0    0    0 -0.00000000000E+00 -0.00000000000E+00 -0.45593999997E+02  0.45594000000E+02  0.51100000000E-03 0. -1.
    9900012    2    1    2    0    0  0.72727240102E+00  0.89291007085E+00  0.25855101009E+00  0.90007719455E+02  0.89999980552E+02 0.  0.
         12    1    1    2    0    0 -0.72727240102E+00 -0.89291007085E+00 -0.25855101009E+00  0.11802805449E+01  0.00000000000E+00 0. -1.
         11    1    3    3    0    0 -0.28306129186E+02  0.45760153787E+01 -0.20567807199E+02  0.35287555306E+02  0.51100000000E-03 0. -1.
        -11    1    3    3    0    0 -0.54404790709E+01  0.51302323613E+01 -0.64583340800E+01  0.98806971389E+01  0.51100000000E-03 0.  1.
        -12    1    3    3    0    0  0.34473880658E+02 -0.88133376691E+01  0.27284692289E+02  0.44839467010E+02  0.00000000000E+00 0.  1.
</event>
<event>
 7    1  0.2490895E-015  0.9000772E+02  0.7816164E-02  0.1186339E+00
        -11   -1    0    0    0    0  0.00000000000E+00  0.00000000000E+00  0.45593999997E+02  0.45594000000E+02  0.51100000000E-03 0.  1.
         11   -1    0    0    0    0 -0.00000000000E+00 -0.00000000000E+00 -0.45593999997E+02  0.45594000000E+02  0.51100000000E-03 0. -1.
    9900012    2    1    2    0    0  0.10951361201E+00 -0.11627667002E+01  0.17040439379E+00  0.90007721521E+02  0.89999982645E+02 0.  0.
         12    1    1    2    0    0 -0.10951361201E+00  0.11627667002E+01 -0.17040439379E+00  0.11802784789E+01  0.00000000000E+00 0. -1.
         11    1    3    3    0    0 -0.46496799130E+01  0.86230648767E+00 -0.88280121515E+01  0.10014833727E+02  0.51100000000E-03 0. -1.
        -11    1    3    3    0    0 -0.15079994154E+02  0.27380419043E+02 -0.17400680745E+02  0.35775372273E+02  0.51100000000E-03 0.  1.
         12    1    3    3    0    0  0.19839187679E+02 -0.29405492231E+02  0.26399097290E+02  0.44217515521E+02  0.00000000000E+00 0. -1.
</event>
<event>
 7    1  0.2490895E-015  0.9000780E+02  0.7816164E-02  0.1186339E+00
        -11   -1    0    0    0    0  0.00000000000E+00  0.00000000000E+00  0.45593999997E+02  0.45594000000E+02  0.51100000000E-03 0.  1.
         11   -1    0    0    0    0 -0.00000000000E+00 -0.00000000000E+00 -0.45593999997E+02  0.45594000000E+02  0.51100000000E-03 0. -1.
    9900012    2    1    2    0    0 -0.92477769837E+00  0.54525442228E+00  0.49025565710E+00  0.90007802226E+02  0.90000064415E+02 0.  0.
         12    1    1    2    0    0  0.92477769837E+00 -0.54525442228E+00 -0.49025565710E+00  0.11801977740E+01  0.00000000000E+00 0. -1.
         11    1    3    3    0    0  0.90621961613E+01 -0.64828943896E+01  0.10145494509E+02  0.15069252736E+02  0.51100000000E-03 0. -1.
        -11    1    3    3    0    0 -0.80605466488E+01 -0.69283654027E+01  0.30544721784E+02  0.32341222744E+02  0.51100000000E-03 0.  1.
         12    1    3    3    0    0 -0.19264272109E+01  0.13956514215E+02 -0.40199960636E+02  0.42597326746E+02  0.00000000000E+00 0. -1.
</event>
<event>
 7    1  0.2490895E-015  0.9000781E+02  0.7816164E-02  0.1186339E+00
        -11   -1    0    0    0    0  0.00000000000E+00  0.00000000000E+00  0.45593999997E+02  0.45594000000E+02  0.51100000000E-03 0. -1.
         11   -1    0    0    0    0 -0.00000000000E+00 -0.00000000000E+00 -0.45593999997E+02  0.45594000000E+02  0.51100000000E-03 0.  1.
    9900012    2    1    2    0    0  0.88544254212E+00 -0.58143096959E+00 -0.52037137569E+00  0.90007806441E+02  0.90000068686E+02 0.  0.
         12    1    1    2    0    0 -0.88544254212E+00  0.58143096959E+00  0.52037137569E+00  0.11801935589E+01  0.00000000000E+00 0. -1.
         11    1    3    3    0    0 -0.28737629786E+02 -0.48430620298E+01  0.55219399721E+01  0.29661396408E+02  0.51100000000E-03 0. -1.
        -11    1    3    3    0    0 -0.11707007707E+02  0.12956916704E+02  0.11640488587E+01  0.17501163674E+02  0.51100000000E-03 0.  1.
         12    1    3    3    0    0  0.41330080035E+02 -0.86952856441E+01 -0.72063602064E+01  0.42845246359E+02  0.00000000000E+00 0. -1.
</event>
<event>
 7    1  0.2625484E-015  0.9000825E+02  0.7816164E-02  0.1186338E+00
        -11   -1    0    0    0    0  0.00000000000E+00  0.00000000000E+00  0.45593999997E+02  0.45594000000E+02  0.51100000000E-03 0.  1.
         11   -1    0    0    0    0 -0.00000000000E+00 -0.00000000000E+00 -0.45593999997E+02  0.45594000000E+02  0.51100000000E-03 0. -1.
    9900012    2    1    2    0    0  0.60245149352E+00 -0.46898490177E+00 -0.89939347440E+00  0.90008252882E+02  0.90000521019E+02 0.  0.
         12    1    1    2    0    0 -0.60245149352E+00  0.46898490177E+00  0.89939347440E+00  0.11797471178E+01  0.00000000000E+00 0. -1.
         11    1    3    3    0    0 -0.35936802745E+01 -0.37583978487E+02  0.23140127043E+02  0.44282450888E+02  0.51100000000E-03 0. -1.
        -11    1    3    3    0    0 -0.35431413348E+01  0.76331483503E+01 -0.51028079682E+01  0.98416184481E+01  0.51100000000E-03 0.  1.
        -12    1    3    3    0    0  0.77392731028E+01  0.29481845235E+02 -0.18936712550E+02  0.35884183546E+02  0.00000000000E+00 0.  1.
</event>
<event>
 7    1  0.2698438E-015  0.9000778E+02  0.7816164E-02  0.1186339E+00
        -11   -1    0    0    0    0  0.00000000000E+00  0.00000000000E+00  0.45593999997E+02  0.45594000000E+02  0.51100000000E-03 0. -1.
         11   -1    0    0    0    0 -0.00000000000E+00 -0.00000000000E+00 -0.45593999997E+02  0.45594000000E+02  0.51100000000E-03 0.  1.
    9900012    2    1    2    0    0  0.21180040891E+00 -0.81464484927E+00 -0.82729169382E+00  0.90007780872E+02  0.90000042779E+02 0.  0.
         12    1    1    2    0    0 -0.21180040891E+00  0.81464484927E+00  0.82729169382E+00  0.11802191281E+01  0.00000000000E+00 0. -1.
         11    1    3    3    0    0 -0.23590722638E+02 -0.20227974834E+02  0.27271807403E+02  0.41345430700E+02  0.51100000000E-03 0. -1.
        -11    1    3    3    0    0 -0.50230017909E+01  0.62320800829E+01 -0.49282268561E+01  0.93998292196E+01  0.51100000000E-03 0.  1.
        -12    1    3    3    0    0  0.28825524838E+02  0.13181249902E+02 -0.23170872241E+02  0.39262520952E+02  0.00000000000E+00 0.  1.
</event>
<event>
 7    1  0.2490895E-015  0.9000780E+02  0.7816164E-02  0.1186339E+00
        -11   -1    0    0    0    0  0.00000000000E+00  0.00000000000E+00  0.45593999997E+02  0.45594000000E+02  0.51100000000E-03 0. -1.
         11   -1    0    0    0    0 -0.00000000000E+00 -0.00000000000E+00 -0.45593999997E+02  0.45594000000E+02  0.51100000000E-03 0.  1.
    9900012    2    1    2    0    0  0.10741245844E+01  0.40082281387E+00  0.28012788641E+00  0.90007799092E+02  0.90000061240E+02 0.  0.
         12    1    1    2    0    0 -0.10741245844E+01 -0.40082281387E+00 -0.28012788641E+00  0.11802009082E+01  0.00000000000E+00 0. -1.
         11    1    3    3    0    0  0.14960241744E+01  0.71946726011E+01 -0.37179686657E+01  0.82355748693E+01  0.51100000000E-03 0. -1.
        -11    1    3    3    0    0  0.26850010627E+01  0.19269617441E+02 -0.31861910201E+02  0.37332408292E+02  0.51100000000E-03 0.  1.
         12    1    3    3    0    0 -0.31069006526E+01 -0.26063467228E+02  0.35860006753E+02  0.44439815930E+02  0.00000000000E+00 0. -1.
</event>
<event>
 7    1  0.2490895E-015  0.9000772E+02  0.7816164E-02  0.1186339E+00
        -11   -1    0    0    0    0  0.00000000000E+00  0.00000000000E+00  0.45593999997E+02  0.45594000000E+02  0.51100000000E-03 0. -1.
         11   -1    0    0    0    0 -0.00000000000E+00 -0.00000000000E+00 -0.45593999997E+02  0.45594000000E+02  0.51100000000E-03 0.  1.
    9900012    2    1    2    0    0 -0.85782486606E+00  0.34920040602E-02 -0.81067371506E+00  0.90007717166E+02  0.89999978233E+02 0.  0.
         12    1    1    2    0    0  0.85782486606E+00 -0.34920040602E-02  0.81067371506E+00  0.11802828336E+01  0.00000000000E+00 0. -1.
         11    1    3    3    0    0  0.14515874007E+02  0.10567404520E+02  0.31856321762E+02  0.36567825653E+02  0.51100000000E-03 0. -1.
        -11    1    3    3    0    0 -0.66045650599E+01  0.72179317641E+01  0.49149600168E+01  0.10948773941E+02  0.51100000000E-03 0.  1.
        -12    1    3    3    0    0 -0.87691338134E+01 -0.17781844280E+02 -0.37581955494E+02  0.42491117573E+02  0.00000000000E+00 0.  1.
</event>
<event>
 7    1  0.2490895E-015  0.9000778E+02  0.7816164E-02  0.1186339E+00
        -11   -1    0    0    0    0  0.00000000000E+00  0.00000000000E+00  0.45593999997E+02  0.45594000000E+02  0.51100000000E-03 0. -1.
         11   -1    0    0    0    0 -0.00000000000E+00 -0.00000000000E+00 -0.45593999997E+02  0.45594000000E+02  0.51100000000E-03 0.  1.
    9900012    2    1    2    0    0  0.52314606879E+00  0.22923150375E+00 -0.10328073947E+01  0.90007779679E+02  0.90000041571E+02 0.  0.
         12    1    1    2    0    0 -0.52314606879E+00 -0.22923150375E+00  0.10328073947E+01  0.11802203210E+01  0.00000000000E+00 0. -1.
         11    1    3    3    0    0 -0.42059016864E+01 -0.79647201674E+01 -0.80028275039E+01  0.12048718797E+02  0.51100000000E-03 0. -1.
        -11    1    3    3    0    0 -0.24922701143E+02  0.13958209621E+02 -0.22038707790E+02  0.36078765076E+02  0.51100000000E-03 0.  1.
         12    1    3    3    0    0  0.29651748899E+02 -0.57642579498E+01  0.29008727899E+02  0.41880295806E+02  0.00000000000E+00 0. -1.
</event>
<event>
 7    1  0.2490895E-015  0.9000776E+02  0.7816164E-02  0.1186339E+00
        -11   -1    0    0    0    0  0.00000000000E+00  0.00000000000E+00  0.45593999997E+02  0.45594000000E+02  0.51100000000E-03 0.  1.
         11   -1    0    0    0    0 -0.00000000000E+00 -0.00000000000E+00 -0.45593999997E+02  0.45594000000E+02  0.51100000000E-03 0. -1.
    9900012    2    1    2    0    0 -0.64159014206E+00  0.55625696713E+00  0.81969703684E+00  0.90007761483E+02  0.90000023135E+02 0.  0.
         12    1    1    2    0    0  0.64159014206E+00 -0.55625696713E+00 -0.81969703684E+00  0.11802385166E+01  0.00000000000E+00 0. -1.
         11    1    3    3    0    0 -0.34116755759E+01  0.89216406768E+01 -0.37682074096E+02  0.38873820381E+02  0.51100000000E-03 0. -1.
        -11    1    3    3    0    0  0.48314027481E+01  0.91855340936E+01  0.19860950221E+01  0.10566979833E+02  0.51100000000E-03 0.  1.
        -12    1    3    3    0    0 -0.20613173142E+01 -0.17550917803E+02  0.36515676110E+02  0.40566961269E+02  0.00000000000E+00 0.  1.
</event>
<event>
 7    1  0.2490895E-015  0.9000766E+02  0.7816164E-02  0.1186339E+00
        -11   -1    0    0    0    0  0.00000000000E+00  0.00000000000E+00  0.45593999997E+02  0.45594000000E+02  0.51100000000E-03 0.  1.
         11   -1    0    0    0    0 -0.00000000000E+00 -0.00000000000E+00 -0.45593999997E+02  0.45594000000E+02  0.51100000000E-03 0. -1.
    9900012    2    1    2    0    0 -0.71634856265E+00  0.76284393751E+00  0.54600965839E+00  0.90007655693E+02  0.89999915948E+02 0.  0.
         12    1    1    2    0    0  0.71634856265E+00 -0.76284393751E+00 -0.54600965839E+00  0.11803443071E+01  0.00000000000E+00 0. -1.
         11    1    3    3    0    0  0.58956533837E+01 -0.59029903814E+00  0.63386212341E+01  0.86767102744E+01  0.51100000000E-03 0. -1.
        -11    1    3    3    0    0  0.18061409994E+01  0.21534812923E+02  0.31440633360E+02  0.38151326835E+02  0.51100000000E-03 0.  1.
         12    1    3    3    0    0 -0.84181429457E+01 -0.20181669948E+02 -0.37233244936E+02  0.43179618583E+02  0.00000000000E+00 0. -1.
</event>
<event>
 7    1  0.2490895E-015  0.9000763E+02  0.7816164E-02  0.1186339E+00
        -11   -1    0    0    0    0  0.00000000000E+00  0.00000000000E+00  0.45593999997E+02  0.45594000000E+02  0.51100000000E-03 0. -1.
         11   -1    0    0    0    0 -0.00000000000E+00 -0.00000000000E+00 -0.45593999997E+02  0.45594000000E+02  0.51100000000E-03 0.  1.
    9900012    2    1    2    0    0  0.66514393186E+00  0.89327397180E+00 -0.39103695799E+00  0.90007633641E+02  0.89999893605E+02 0.  0.
         12    1    1    2    0    0 -0.66514393186E+00 -0.89327397180E+00  0.39103695799E+00  0.11803663589E+01  0.00000000000E+00 0. -1.
         11    1    3    3    0    0 -0.76666063065E+00 -0.75308712838E+01  0.97007081245E+01  0.12304695412E+02  0.51100000000E-03 0. -1.
        -11    1    3    3    0    0  0.26060233851E+02 -0.14534243399E+02 -0.26807124946E+02  0.40112366767E+02  0.51100000000E-03 0.  1.
         12    1    3    3    0    0 -0.24628429288E+02  0.22958388654E+02  0.16715379864E+02  0.37590571461E+02  0.00000000000E+00 0. -1.
</event>
<event>
 7    1  0.2490895E-015  0.9000778E+02  0.7816164E-02  0.1186339E+00
        -11   -1    0    0    0    0  0.00000000000E+00  0.00000000000E+00  0.45593999997E+02  0.45594000000E+02  0.51100000000E-03 0. -1.
         11   -1    0    0    0    0 -0.00000000000E+00 -0.00000000000E+00 -0.45593999997E+02  0.45594000000E+02  0.51100000000E-03 0.  1.
    9900012    2    1    2    0    0 -0.11535158145E+00  0.10172113092E+00 -0.11701586866E+01  0.90007777763E+02  0.90000039630E+02 0.  0.
         12    1    1    2    0    0  0.11535158145E+00 -0.10172113092E+00  0.11701586866E+01  0.11802222366E+01  0.00000000000E+00 0. -1.
         11    1    3    3    0    0 -0.15886698266E+01 -0.26926464781E+02  0.28863668798E+02  0.39505312986E+02  0.51100000000E-03 0. -1.
        -11    1    3    3    0    0  0.93545694781E+01 -0.90407014770E+00 -0.10016693830E+01  0.94513837488E+01  0.51100000000E-03 0.  1.
        -12    1    3    3    0    0 -0.78812512330E+01  0.27932256059E+02 -0.29032158102E+02  0.41051081028E+02  0.00000000000E+00 0.  1.
</event>
<event>
 7    1  0.2490895E-015  0.9000772E+02  0.7816164E-02  0.1186339E+00
        -11   -1    0    0    0    0  0.00000000000E+00  0.00000000000E+00  0.45593999997E+02  0.45594000000E+02  0.51100000000E-03 0.  1.
         11   -1    0    0    0    0 -0.00000000000E+00 -0.00000000000E+00 -0.45593999997E+02  0.45594000000E+02  0.51100000000E-03 0. -1.
    9900012    2    1    2    0    0 -0.28522880954E+00 -0.10498112454E+01 -0.45781876713E+00  0.90007721580E+02  0.89999982705E+02 0.  0.
         12    1    1    2    0    0  0.28522880954E+00  0.10498112454E+01  0.45781876713E+00  0.11802784198E+01  0.00000000000E+00 0. -1.
         11    1    3    3    0    0 -0.10510563218E+01 -0.12436129470E+02 -0.35245735537E+02  0.37390157921E+02  0.51100000000E-03 0. -1.
        -11    1    3    3    0    0  0.23261040438E+00 -0.87289253002E+01 -0.34654630236E+01  0.93945558024E+01  0.51100000000E-03 0.  1.
        -12    1    3    3    0    0  0.53321710790E+00  0.20115243525E+02  0.38253379793E+02  0.43223007856E+02  0.00000000000E+00 0.  1.
</event>
<event>
 7    1  0.2490895E-015  0.9000782E+02  0.7816164E-02  0.1186339E+00
        -11   -1    0    0    0    0  0.00000000000E+00  0.00000000000E+00  0.45593999997E+02  0.45594000000E+02  0.51100000000E-03 0. -1.
         11   -1    0    0    0    0 -0.00000000000E+00 -0.00000000000E+00 -0.45593999997E+02  0.45594000000E+02  0.51100000000E-03 0.  1.
    9900012    2    1    2    0    0  0.26942127743E+00  0.10142170536E+01 -0.54000952983E+00  0.90007815968E+02  0.90000078339E+02 0.  0.
         12    1    1    2    0    0 -0.26942127743E+00 -0.10142170536E+01  0.54000952983E+00  0.11801840317E+01  0.00000000000E+00 0. -1.
         11    1    3    3    0    0 -0.11768082569E+01 -0.60702289419E+01  0.28065890466E+01  0.67903975891E+01  0.51100000000E-03 0. -1.
        -11    1    3    3    0    0 -0.31455863754E+02 -0.16633589848E+02 -0.18270123749E+02  0.39999313717E+02  0.51100000000E-03 0.  1.
         12    1    3    3    0    0  0.32902093289E+02  0.23718035843E+02  0.14923525172E+02  0.43218104662E+02  0.00000000000E+00 0. -1.
</event>
<event>
 7    1  0.2490895E-015  0.9000782E+02  0.7816164E-02  0.1186339E+00
        -11   -1    0    0    0    0  0.00000000000E+00  0.00000000000E+00  0.45593999997E+02  0.45594000000E+02  0.51100000000E-03 0.  1.
         11   -1    0    0    0    0 -0.00000000000E+00 -0.00000000000E+00 -0.45593999997E+02  0.45594000000E+02  0.51100000000E-03 0. -1.
    9900012    2    1    2    0    0  0.31739393726E+00 -0.79493922810E+00  0.81249610998E+00  0.90007823227E+02  0.90000085693E+02 0.  0.
         12    1    1    2    0    0 -0.31739393726E+00  0.79493922810E+00 -0.81249610998E+00  0.11801767734E+01  0.00000000000E+00 0. -1.
         11    1    3    3    0    0 -0.12199160946E+02  0.17983121065E+02 -0.34212535123E+02  0.40530355671E+02  0.51100000000E-03 0. -1.
        -11    1    3    3    0    0 -0.41307934125E+01 -0.91315506029E+01  0.59978260555E+00  0.10040339141E+02  0.51100000000E-03 0.  1.
        -12    1    3    3    0    0  0.16647348296E+02 -0.96465096899E+01  0.34425248628E+02  0.39437128414E+02  0.00000000000E+00 0.  1.
</event>
<event>
 7    1  0.2490895E-015  0.9000769E+02  0.7816164E-02  0.1186339E+00
        -11   -1    0    0    0    0  0.00000000000E+00  0.00000000000E+00  0.45593999997E+02  0.45594000000E+02  0.51100000000E-03 0.  1.
         11   -1    0    0    0    0 -0.00000000000E+00 -0.00000000000E+00 -0.45593999997E+02  0.45594000000E+02  0.51100000000E-03 0. -1.
    9900012    2    1    2    0    0 -0.10383630108E+01  0.55068645005E+00 -0.10807532827E+00  0.90007689200E+02  0.89999949897E+02 0.  0.
         12    1    1    2    0    0  0.10383630108E+01 -0.55068645005E+00  0.10807532827E+00  0.11803108001E+01  0.00000000000E+00 0. -1.
         11    1    3    3    0    0  0.31227790820E+02 -0.95377115732E+01 -0.20833860468E+02  0.38732319886E+02  0.51100000000E-03 0. -1.
        -11    1    3    3    0    0  0.16331370579E+01  0.63041021847E+01 -0.52791271225E+01  0.83831989384E+01  0.51100000000E-03 0.  1.
        -12    1    3    3    0    0 -0.33899290888E+02  0.37842958386E+01  0.26004912262E+02  0.42892170375E+02  0.00000000000E+00 0.  1.
</event>
<event>
 7    1  0.2490895E-015  0.9000783E+02  0.7816164E-02  0.1186339E+00
        -11   -1    0    0    0    0  0.00000000000E+00  0.00000000000E+00  0.45593999997E+02  0.45594000000E+02  0.51100000000E-03 0.  1.
         11   -1    0    0    0    0 -0.00000000000E+00 -0.00000000000E+00 -0.45593999997E+02  0.45594000000E+02  0.51100000000E-03 0. -1.
    9900012    2    1    2    0    0  0.11286021013E+01 -0.31550017363E+00  0.13966899762E+00  0.90007834549E+02  0.90000097165E+02 0.  0.
         12    1    1    2    0    0 -0.11286021013E+01  0.31550017363E+00 -0.13966899762E+00  0.11801654509E+01  0.00000000000E+00 0. -1.
         11    1    3    3    0    0 -0.17656957456E+02 -0.22575342122E+01 -0.31409143869E+02  0.36102616611E+02  0.51100000000E-03 0. -1.
        -11    1    3    3    0    0 -0.60391350696E+01 -0.66029897238E+00 -0.61806141044E+01  0.86664374509E+01  0.51100000000E-03 0.  1.
        -12    1    3    3    0    0  0.24824694627E+02  0.26023330110E+01  0.37729426971E+02  0.45238780487E+02  0.00000000000E+00 0.  1.
</event>
<event>
 7    1  0.2490895E-015  0.9000823E+02  0.7816164E-02  0.1186338E+00
        -11   -1    0    0    0    0  0.00000000000E+00  0.00000000000E+00  0.45593999997E+02  0.45594000000E+02  0.51100000000E-03 0. -1.
         11   -1    0    0    0    0 -0.00000000000E+00 -0.00000000000E+00 -0.45593999997E+02  0.45594000000E+02  0.51100000000E-03 0.  1.
    9900012    2    1    2    0    0  0.97732442758E+00  0.24634583466E+00 -0.61320429839E+00  0.90008225098E+02  0.90000492868E+02 0.  0.
         12    1    1    2    0    0 -0.97732442758E+00 -0.24634583466E+00  0.61320429839E+00  0.11797749016E+01  0.00000000000E+00 0. -1.
         11    1    3    3    0    0  0.27024503837E+02  0.13996380346E+02  0.27444523170E+02  0.40980779919E+02  0.51100000000E-03 0. -1.
        -11    1    3    3    0    0 -0.10628044529E+02  0.48135764469E+01  0.45141176103E+00  0.11676027644E+02  0.51100000000E-03 0.  1.
        -12    1    3    3    0    0 -0.15419134881E+02 -0.18563610958E+02 -0.28509139230E+02  0.37351417535E+02  0.00000000000E+00 0.  1.
</event>
<event>
 7    1  0.2490895E-015  0.9000773E+02  0.7816164E-02  0.1186339E+00
        -11   -1    0    0    0    0  0.00000000000E+00  0.00000000000E+00  0.45593999997E+02  0.45594000000E+02  0.51100000000E-03 0.  1.
         11   -1    0    0    0    0 -0.00000000000E+00 -0.00000000000E+00 -0.45593999997E+02  0.45594000000E+02  0.51100000000E-03 0. -1.
    9900012    2    1    2    0    0  0.10525087191E+01 -0.82313306675E-01  0.52772481960E+00  0.90007727333E+02  0.89999988533E+02 0.  0.
         12    1    1    2    0    0 -0.10525087191E+01  0.82313306675E-01 -0.52772481960E+00  0.11802726674E+01  0.00000000000E+00 0. -1.
         11    1    3    3    0    0  0.11051830671E+02 -0.67206934661E+01 -0.90122463419E+01  0.15764874444E+02  0.51100000000E-03 0. -1.
        -11    1    3    3    0    0 -0.43352321417E+01  0.61556903624E+01 -0.31715831841E+02  0.32597250669E+02  0.51100000000E-03 0.  1.
         12    1    3    3    0    0 -0.56640898097E+01  0.48268979707E+00  0.41255803003E+02  0.41645602219E+02  0.00000000000E+00 0. -1.
</event>
<event>
 7    1  0.2490895E-015  0.9000771E+02  0.7816164E-02  0.1186339E+00
        -11   -1    0    0    0    0  0.00000000000E+00  0.00000000000E+00  0.45593999997E+02  0.45594000000E+02  0.51100000000E-03 0.  1.
         11   -1    0    0    0    0 -0.00000000000E+00 -0.00000000000E+00 -0.45593999997E+02  0.45594000000E+02  0.51100000000E-03 0. -1.
    9900012    2    1    2    0    0 -0.47665982119E+00  0.75917896406E+00  0.76780194831E+00  0.90007713121E+02  0.89999974134E+02 0.  0.
         12    1    1    2    0    0  0.47665982119E+00 -0.75917896406E+00 -0.76780194831E+00  0.11802868789E+01  0.00000000000E+00 0. -1.
         11    1    3    3    0    0  0.28315040683E+02 -0.19082238225E+01  0.21778062763E+01  0.28462706960E+02  0.51100000000E-03 0. -1.
        -11    1    3    3    0    0  0.56809958887E+01 -0.26022118190E+01 -0.20748352048E+02  0.21668856306E+02  0.51100000000E-03 0.  1.
        -12    1    3    3    0    0 -0.34472696393E+02  0.52696146056E+01  0.19338347720E+02  0.39876149855E+02  0.00000000000E+00 0.  1.
</event>
<event>
 7    1  0.2490895E-015  0.9000779E+02  0.7816164E-02  0.1186339E+00
        -11   -1    0    0    0    0  0.00000000000E+00  0.00000000000E+00  0.45593999997E+02  0.45594000000E+02  0.51100000000E-03 0. -1.
         11   -1    0    0    0    0 -0.00000000000E+00 -0.00000000000E+00 -0.45593999997E+02  0.45594000000E+02  0.51100000000E-03 0.  1.
    9900012    2    1    2    0    0 -0.95090471755E+00  0.66940503225E+00  0.20143164338E+00  0.90007789177E+02  0.90000051194E+02 0.  0.
         12    1    1    2    0    0  0.95090471755E+00 -0.66940503225E+00 -0.20143164338E+00  0.11802108227E+01  0.00000000000E+00 0. -1.
         11    1    3    3    0    0  0.36733684393E+02 -0.11630341361E+02  0.12167586021E+02  0.40406417301E+02  0.51100000000E-03 0. -1.
        -11    1    3    3    0    0 -0.23799006885E+01  0.93043242829E+01 -0.10369792506E+02  0.14133894528E+02  0.51100000000E-03 0.  1.
        -12    1    3    3    0    0 -0.35304688422E+02  0.29954221106E+01 -0.15963618717E+01  0.35467477348E+02  0.00000000000E+00 0.  1.
</event>
<event>
 7    1  0.2599546E-015  0.9000765E+02  0.7816164E-02  0.1186339E+00
        -11   -1    0    0    0    0  0.00000000000E+00  0.00000000000E+00  0.45593999997E+02  0.45594000000E+02  0.51100000000E-03 0.  1.
         11   -1    0    0    0    0 -0.00000000000E+00 -0.00000000000E+00 -0.45593999997E+02  0.45594000000E+02  0.51100000000E-03 0. -1.
    9900012    2    1    2    0    0 -0.10647873288E+01  0.43157111430E+00  0.27056576642E+00  0.90007647715E+02  0.89999907865E+02 0.  0.
         12    1    1    2    0    0  0.10647873288E+01 -0.43157111430E+00 -0.27056576642E+00  0.11803522848E+01  0.00000000000E+00 0. -1.
         11    1    3    3    0    0 -0.33218876686E+02 -0.44750001248E+01  0.15836144698E+02  0.37071591192E+02  0.51100000000E-03 0. -1.
        -11    1    3    3    0    0 -0.88497974180E+01  0.19187879849E+01 -0.23604552520E+00  0.90584976360E+01  0.51100000000E-03 0.  1.
        -12    1    3    3    0    0  0.41003886775E+02  0.29877832542E+01 -0.15329533406E+02  0.43877558887E+02  0.00000000000E+00 0.  1.
</event>
<event>
 8    1  0.2490895E-015  0.9000772E+02  0.7816164E-02  0.1186339E+00
        -11   -1    0    0    0    0  0.00000000000E+00  0.00000000000E+00  0.45593999997E+02  0.45594000000E+02  0.51100000000E-03 0. -1.
         11   -1    0    0    0    0 -0.00000000000E+00 -0.00000000000E+00 -0.45593999997E+02  0.45594000000E+02  0.51100000000E-03 0.  1.
    9900012    2    1    2    0    0 -0.57054199287E+00  0.27472045509E+00 -0.99602268460E+00  0.90007724319E+02  0.89999985480E+02 0.  0.
         23    2    3    3    0    0 -0.12603636314E+02  0.18297569983E+02 -0.64331255037E+01  0.67665375493E+02  0.63589033813E+02 0.  0.
         12    1    1    2    0    0  0.57054199287E+00 -0.27472045509E+00  0.99602268460E+00  0.11802756806E+01  0.00000000000E+00 0. -1.
         11    1    4    4    0    0 -0.26241331629E+02  0.69435671069E+01 -0.28493505643E+02  0.39353531912E+02  0.51100000000E-03 0.  1.
        -11    1    4    4    0    0  0.13637695316E+02  0.11354002876E+02  0.22060380139E+02  0.28311843581E+02  0.51100000000E-03 0. -1.
        -12    1    3    3    0    0  0.12033094321E+02 -0.18022849527E+02  0.54371028191E+01  0.22342348827E+02  0.00000000000E+00 0.  1.
</event>
<event>
 7    1  0.2490895E-015  0.9000750E+02  0.7816164E-02  0.1186340E+00
        -11   -1    0    0    0    0  0.00000000000E+00  0.00000000000E+00  0.45593999997E+02  0.45594000000E+02  0.51100000000E-03 0. -1.
         11   -1    0    0    0    0 -0.00000000000E+00 -0.00000000000E+00 -0.45593999997E+02  0.45594000000E+02  0.51100000000E-03 0.  1.
    9900012    2    1    2    0    0  0.84318209805E-01  0.11772201223E+01  0.24902009108E-01  0.90007501424E+02  0.89999759643E+02 0.  0.
         12    1    1    2    0    0 -0.84318209805E-01 -0.11772201223E+01 -0.24902009108E-01  0.11804985756E+01  0.00000000000E+00 0. -1.
         11    1    3    3    0    0 -0.91391982614E+01  0.78387447761E+00 -0.38029266068E+00  0.91806332476E+01  0.51100000000E-03 0. -1.
        -11    1    3    3    0    0 -0.82031170983E+01  0.19142430187E+02 -0.32829105705E+02  0.38877679268E+02  0.51100000000E-03 0.  1.
         12    1    3    3    0    0  0.17426633570E+02 -0.18749084543E+02  0.33234300374E+02  0.41949188909E+02  0.00000000000E+00 0. -1.
</event>
<event>
 7    1  0.2490895E-015  0.9000775E+02  0.7816164E-02  0.1186339E+00
        -11   -1    0    0    0    0  0.00000000000E+00  0.00000000000E+00  0.45593999997E+02  0.45594000000E+02  0.51100000000E-03 0.  1.
         11   -1    0    0    0    0 -0.00000000000E+00 -0.00000000000E+00 -0.45593999997E+02  0.45594000000E+02  0.51100000000E-03 0. -1.
    9900012    2    1    2    0    0 -0.99142227498E+00 -0.31618188410E+00  0.55686507401E+00  0.90007750949E+02  0.90000012462E+02 0.  0.
         12    1    1    2    0    0  0.99142227498E+00  0.31618188410E+00 -0.55686507401E+00  0.11802490508E+01  0.00000000000E+00 0. -1.
         11    1    3    3    0    0 -0.34748765542E+01 -0.29685102557E+02 -0.28223887590E+02  0.41108003015E+02  0.51100000000E-03 0. -1.
        -11    1    3    3    0    0  0.11789754674E+02  0.44495683340E+01  0.63842536273E+01  0.14126417390E+02  0.51100000000E-03 0.  1.
        -12    1    3    3    0    0 -0.93063003949E+01  0.24919352339E+02  0.22396499037E+02  0.34773330545E+02  0.00000000000E+00 0.  1.
</event>
<event>
 7    1  0.2490895E-015  0.9000776E+02  0.7816164E-02  0.1186339E+00
        -11   -1    0    0    0    0  0.00000000000E+00  0.00000000000E+00  0.45593999997E+02  0.45594000000E+02  0.51100000000E-03 0. -1.
         11   -1    0    0    0    0 -0.00000000000E+00 -0.00000000000E+00 -0.45593999997E+02  0.45594000000E+02  0.51100000000E-03 0.  1.
    9900012    2    1    2    0    0 -0.96236182976E+00  0.60270040358E+00 -0.32184511325E+00  0.90007757506E+02  0.90000019105E+02 0.  0.
         12    1    1    2    0    0  0.96236182976E+00 -0.60270040358E+00  0.32184511325E+00  0.11802424941E+01  0.00000000000E+00 0. -1.
         11    1    3    3    0    0 -0.32881707714E+01  0.37630427549E+02  0.44583961087E+01  0.38036015047E+02  0.51100000000E-03 0. -1.
        -11    1    3    3    0    0  0.63236460828E+01  0.43643323364E+01  0.51094391448E+01  0.92272566431E+01  0.51100000000E-03 0.  1.
        -12    1    3    3    0    0 -0.39978371411E+01 -0.41392059481E+02 -0.98896803668E+01  0.42744485816E+02  0.00000000000E+00 0.  1.
</event>
<event>
 7    1  0.2490895E-015  0.9000705E+02  0.7816164E-02  0.1186340E+00
        -11   -1    0    0    0    0  0.00000000000E+00  0.00000000000E+00  0.45593999997E+02  0.45594000000E+02  0.51100000000E-03 0. -1.
         11   -1    0    0    0    0 -0.00000000000E+00 -0.00000000000E+00 -0.45593999997E+02  0.45594000000E+02  0.51100000000E-03 0.  1.
    9900012    2    1    2    0    0 -0.62789533828E+00 -0.63934117877E+00 -0.76918274997E+00  0.90007046232E+02  0.89999298440E+02 0.  0.
         12    1    1    2    0    0  0.62789533828E+00  0.63934117877E+00  0.76918274997E+00  0.11809537677E+01  0.00000000000E+00 0. -1.
         11    1    3    3    0    0  0.62574881404E+01  0.70745571069E+01  0.32759828046E+01  0.99968784970E+01  0.51100000000E-03 0. -1.
        -11    1    3    3    0    0  0.16832295951E+02  0.29170652068E+02 -0.11379179043E+02  0.35549104701E+02  0.51100000000E-03 0.  1.
         12    1    3    3    0    0 -0.23717679429E+02 -0.36884550354E+02  0.73340134882E+01  0.44461063035E+02  0.00000000000E+00 0. -1.
</event>
<event>
 7    1  0.2490895E-015  0.9000781E+02  0.7816164E-02  0.1186339E+00
        -11   -1    0    0    0    0  0.00000000000E+00  0.00000000000E+00  0.45593999997E+02  0.45594000000E+02  0.51100000000E-03 0. -1.
         11   -1    0    0    0    0 -0.00000000000E+00 -0.00000000000E+00 -0.45593999997E+02  0.45594000000E+02  0.51100000000E-03 0.  1.
    9900012    2    1    2    0    0 -0.28183953208E+00  0.10448512688E+01  0.47084092058E+00  0.90007814054E+02  0.90000076399E+02 0.  0.
         12    1    1    2    0    0  0.28183953208E+00 -0.10448512688E+01 -0.47084092058E+00  0.11801859465E+01  0.00000000000E+00 0. -1.
         11    1    3    3    0    0  0.36943901342E+01  0.75658662495E+01 -0.48988895943E+01  0.97411482941E+01  0.51100000000E-03 0. -1.
        -11    1    3    3    0    0 -0.99838368803E+00  0.93584475090E+01 -0.35285366492E+02  0.36518959439E+02  0.51100000000E-03 0.  1.
         12    1    3    3    0    0 -0.29778459782E+01 -0.15879462490E+02  0.40655097007E+02  0.43747706320E+02  0.00000000000E+00 0. -1.
</event>
<event>
 7    1  0.2490895E-015  0.9000772E+02  0.7816164E-02  0.1186339E+00
        -11   -1    0    0    0    0  0.00000000000E+00  0.00000000000E+00  0.45593999997E+02  0.45594000000E+02  0.51100000000E-03 0. -1.
         11   -1    0    0    0    0 -0.00000000000E+00 -0.00000000000E+00 -0.45593999997E+02  0.45594000000E+02  0.51100000000E-03 0.  1.
    9900012    2    1    2    0    0 -0.97186713698E+00  0.66286991309E+00 -0.95599704440E-01  0.90007719712E+02  0.89999980813E+02 0.  0.
         12    1    1    2    0    0  0.97186713698E+00 -0.66286991309E+00  0.95599704440E-01  0.11802802875E+01  0.00000000000E+00 0. -1.
         11    1    3    3    0    0 -0.89151171821E+01  0.30896466868E+01 -0.14061174603E+01  0.95395176814E+01  0.51100000000E-03 0. -1.
        -11    1    3    3    0    0  0.29437272017E+02  0.29561062372E+02  0.35198597120E+01  0.41866440081E+02  0.51100000000E-03 0.  1.
         12    1    3    3    0    0 -0.21494021972E+02 -0.31987839146E+02 -0.22093419561E+01  0.38601761950E+02  0.00000000000E+00 0. -1.
</event>
<event>
 7    1  0.2490895E-015  0.9000776E+02  0.7816164E-02  0.1186339E+00
        -11   -1    0    0    0    0  0.00000000000E+00  0.00000000000E+00  0.45593999997E+02  0.45594000000E+02  0.51100000000E-03 0.  1.
         11   -1    0    0    0    0 -0.00000000000E+00 -0.00000000000E+00 -0.45593999997E+02  0.45594000000E+02  0.51100000000E-03 0. -1.
    9900012    2    1    2    0    0  0.15420031497E+00  0.76015068657E+00  0.88958986947E+00  0.90007755560E+02  0.90000017133E+02 0.  0.
         12    1    1    2    0    0 -0.15420031497E+00 -0.76015068657E+00 -0.88958986947E+00  0.11802444405E+01  0.00000000000E+00 0. -1.
         11    1    3    3    0    0 -0.37116879087E+01 -0.82042959161E+01  0.22782526954E+01  0.92885700846E+01  0.51100000000E-03 0. -1.
        -11    1    3    3    0    0 -0.84650562052E+01 -0.82803884834E+01  0.35912541074E+02  0.37814449839E+02  0.51100000000E-03 0.  1.
         12    1    3    3    0    0  0.12330944429E+02  0.17244835086E+02 -0.37301203899E+02  0.42904735636E+02  0.00000000000E+00 0. -1.
</event>
<event>
 7    1  0.2490895E-015  0.9000777E+02  0.7816164E-02  0.1186339E+00
        -11   -1    0    0    0    0  0.00000000000E+00  0.00000000000E+00  0.45593999997E+02  0.45594000000E+02  0.51100000000E-03 0. -1.
         11   -1    0    0    0    0 -0.00000000000E+00 -0.00000000000E+00 -0.45593999997E+02  0.45594000000E+02  0.51100000000E-03 0.  1.
    9900012    2    1    2    0    0 -0.75801961676E+00  0.51150730172E+00 -0.74612966346E+00  0.90007769966E+02  0.90000031729E+02 0.  0.
         12    1    1    2    0    0  0.75801961676E+00 -0.51150730172E+00  0.74612966346E+00  0.11802300343E+01  0.00000000000E+00 0. -1.
         11    1    3    3    0    0  0.14139348223E+02 -0.27419429244E+02 -0.19071524340E+02  0.36269399073E+02  0.51100000000E-03 0. -1.
        -11    1    3    3    0    0  0.36953026611E+01 -0.84724964975E+01  0.60925948270E+01  0.11070599381E+02  0.51100000000E-03 0.  1.
        -12    1    3    3    0    0 -0.18592670501E+02  0.36403433043E+02  0.12232799849E+02  0.42667771512E+02  0.00000000000E+00 0.  1.
</event>
<event>
 7    1  0.2490895E-015  0.9000777E+02  0.7816164E-02  0.1186339E+00
        -11   -1    0    0    0    0  0.00000000000E+00  0.00000000000E+00  0.45593999997E+02  0.45594000000E+02  0.51100000000E-03 0.  1.
         11   -1    0    0    0    0 -0.00000000000E+00 -0.00000000000E+00 -0.45593999997E+02  0.45594000000E+02  0.51100000000E-03 0. -1.
    9900012    2    1    2    0    0 -0.93220744887E+00  0.70757541994E+00  0.15257155624E+00  0.90007766217E+02  0.90000027931E+02 0.  0.
         12    1    1    2    0    0  0.93220744887E+00 -0.70757541994E+00 -0.15257155624E+00  0.11802337829E+01  0.00000000000E+00 0. -1.
         11    1    3    3    0    0 -0.54067070144E+01  0.23925455500E+01 -0.61078618871E+01  0.85007489105E+01  0.51100000000E-03 0. -1.
        -11    1    3    3    0    0 -0.19166241400E+02 -0.23143318126E+02 -0.23278479275E+02  0.38011124436E+02  0.51100000000E-03 0.  1.
         12    1    3    3    0    0  0.23640740965E+02  0.21458347996E+02  0.29538912718E+02  0.43495892871E+02  0.00000000000E+00 0. -1.
</event>
<event>
 7    1  0.2490895E-015  0.9000781E+02  0.7816164E-02  0.1186339E+00
        -11   -1    0    0    0    0  0.00000000000E+00  0.00000000000E+00  0.45593999997E+02  0.45594000000E+02  0.51100000000E-03 0.  1.
         11   -1    0    0    0    0 -0.00000000000E+00 -0.00000000000E+00 -0.45593999997E+02  0.45594000000E+02  0.51100000000E-03 0. -1.
    9900012    2    1    2    0    0 -0.96410253529E+00 -0.68047078126E+00  0.18009812188E-01  0.90007805721E+02  0.90000067957E+02 0.  0.
         12    1    1    2    0    0  0.96410253529E+00  0.68047078126E+00 -0.18009812188E-01  0.11801942789E+01  0.00000000000E+00 0. -1.
         11    1    3    3    0    0  0.45339166639E+01  0.94417841434E+01  0.17634813704E+01  0.10621372554E+02  0.51100000000E-03 0. -1.
        -11    1    3    3    0    0  0.23919009719E+02 -0.44931070888E+01 -0.29713048919E+02  0.38407972005E+02  0.51100000000E-03 0.  1.
         12    1    3    3    0    0 -0.29417028918E+02 -0.56291478359E+01  0.27967577361E+02  0.40978461162E+02  0.00000000000E+00 0. -1.
</event>
<event>
 7    1  0.2490895E-015  0.9000772E+02  0.7816164E-02  0.1186339E+00
        -11   -1    0    0    0    0  0.00000000000E+00  0.00000000000E+00  0.45593999997E+02  0.45594000000E+02  0.51100000000E-03 0. -1.
         11   -1    0    0    0    0 -0.00000000000E+00 -0.00000000000E+00 -0.45593999997E+02  0.45594000000E+02  0.51100000000E-03 0.  1.
    9900012    2    1    2    0    0  0.10421925849E+00 -0.55051310639E+00 -0.10388143287E+01  0.90007719718E+02  0.89999980818E+02 0.  0.
         12    1    1    2    0    0 -0.10421925849E+00  0.55051310639E+00  0.10388143287E+01  0.11802802818E+01  0.00000000000E+00 0. -1.
         11    1    3    3    0    0 -0.15475276821E+02  0.32888001219E+02  0.12410753899E+02  0.38407442371E+02  0.51100000000E-03 0. -1.
        -11    1    3    3    0    0  0.23508958625E+01  0.14516846620E+01  0.80671471109E+01  0.85271896006E+01  0.51100000000E-03 0.  1.
        -12    1    3    3    0    0  0.13228600217E+02 -0.34890198987E+02 -0.21516715338E+02  0.43073087747E+02  0.00000000000E+00 0.  1.
</event>
<event>
 7    1  0.2490895E-015  0.9000775E+02  0.7816164E-02  0.1186339E+00
        -11   -1    0    0    0    0  0.00000000000E+00  0.00000000000E+00  0.45593999997E+02  0.45594000000E+02  0.51100000000E-03 0.  1.
         11   -1    0    0    0    0 -0.00000000000E+00 -0.00000000000E+00 -0.45593999997E+02  0.45594000000E+02  0.51100000000E-03 0. -1.
    9900012    2    1    2    0    0 -0.70990755190E+00 -0.63181736018E+00  0.69988508111E+00  0.90007745351E+02  0.90000006790E+02 0.  0.
         12    1    1    2    0    0  0.70990755190E+00  0.63181736018E+00 -0.69988508111E+00  0.11802546486E+01  0.00000000000E+00 0. -1.
         11    1    3    3    0    0 -0.15522486334E+01  0.10455489777E+02  0.40165441417E+01  0.11307491738E+02  0.51100000000E-03 0. -1.
        -11    1    3    3    0    0  0.23223691043E+02  0.18176480500E+02  0.19509834300E+02  0.35360400220E+02  0.51100000000E-03 0.  1.
         12    1    3    3    0    0 -0.22381349961E+02 -0.29263787638E+02 -0.22826493361E+02  0.43339853393E+02  0.00000000000E+00 0. -1.
</event>
<event>
 7    1  0.2490895E-015  0.9000773E+02  0.7816164E-02  0.1186339E+00
        -11   -1    0    0    0    0  0.00000000000E+00  0.00000000000E+00  0.45593999997E+02  0.45594000000E+02  0.51100000000E-03 0.  1.
         11   -1    0    0    0    0 -0.00000000000E+00 -0.00000000000E+00 -0.45593999997E+02  0.45594000000E+02  0.51100000000E-03 0. -1.
    9900012    2    1    2    0    0 -0.95467436207E+00 -0.34029059326E+00 -0.60484045269E+00  0.90007731895E+02  0.89999993156E+02 0.  0.
         12    1    1    2    0    0  0.95467436207E+00  0.34029059326E+00  0.60484045269E+00  0.11802681046E+01  0.00000000000E+00 0. -1.
         11    1    3    3    0    0 -0.19650490643E+01  0.79011711141E+01 -0.65998482889E+01  0.10480835868E+02  0.51100000000E-03 0. -1.
        -11    1    3    3    0    0  0.33148878761E+01 -0.32261768295E+02 -0.24495625642E+02  0.40642906527E+02  0.51100000000E-03 0.  1.
         12    1    3    3    0    0 -0.23045131739E+01  0.24020306588E+02  0.30490633478E+02  0.38883989500E+02  0.00000000000E+00 0. -1.
</event>
<event>
 7    1  0.2490895E-015  0.9000769E+02  0.7816164E-02  0.1186339E+00
        -11   -1    0    0    0    0  0.00000000000E+00  0.00000000000E+00  0.45593999997E+02  0.45594000000E+02  0.51100000000E-03 0.  1.
         11   -1    0    0    0    0 -0.00000000000E+00 -0.00000000000E+00 -0.45593999997E+02  0.45594000000E+02  0.51100000000E-03 0. -1.
    9900012    2    1    2    0    0  0.50421697002E+00 -0.72471776011E+00  0.78337556786E+00  0.90007691623E+02  0.89999952352E+02 0.  0.
         12    1    1    2    0    0 -0.50421697002E+00  0.72471776011E+00 -0.78337556786E+00  0.11803083771E+01  0.00000000000E+00 0. -1.
         11    1    3    3    0    0 -0.27292936793E+02  0.16222036591E+02 -0.85158919191E+00  0.31761361343E+02  0.51100000000E-03 0. -1.
        -11    1    3    3    0    0 -0.74096786639E+01  0.66148596246E+01 -0.10223748049E+02  0.14254288134E+02  0.51100000000E-03 0.  1.
        -12    1    3    3    0    0  0.35206832427E+02 -0.23561613976E+02  0.11858712809E+02  0.43992042146E+02  0.00000000000E+00 0.  1.
</event>
<event>
 7    1  0.2490895E-015  0.9000777E+02  0.7816164E-02  0.1186339E+00
        -11   -1    0    0    0    0  0.00000000000E+00  0.00000000000E+00  0.45593999997E+02  0.45594000000E+02  0.51100000000E-03 0.  1.
         11   -1    0    0    0    0 -0.00000000000E+00 -0.00000000000E+00 -0.45593999997E+02  0.45594000000E+02  0.51100000000E-03 0. -1.
    9900012    2    1    2    0    0  0.12286924619E+00 -0.76973490499E+00  0.88619928866E+00  0.90007772117E+02  0.90000033909E+02 0.  0.
         12    1    1    2    0    0 -0.12286924619E+00  0.76973490499E+00 -0.88619928866E+00  0.11802278826E+01  0.00000000000E+00 0. -1.
         11    1    3    3    0    0 -0.67180187473E+01 -0.31853347612E+01 -0.68626081277E+00  0.74665311621E+01  0.51100000000E-03 0. -1.
        -11    1    3    3    0    0  0.40467940013E+00 -0.29469710311E+02  0.27983282787E+02  0.40641010163E+02  0.51100000000E-03 0.  1.
         12    1    3    3    0    0  0.64362085934E+01  0.31885310167E+02 -0.26410822686E+02  0.41900230793E+02  0.00000000000E+00 0. -1.
</event>
<event>
 7    1  0.2490895E-015  0.9000872E+02  0.7816164E-02  0.1186337E+00
        -11   -1    0    0    0    0  0.00000000000E+00  0.00000000000E+00  0.45593999997E+02  0.45594000000E+02  0.51100000000E-03 0.  1.
         11   -1    0    0    0    0 -0.00000000000E+00 -0.00000000000E+00 -0.45593999997E+02  0.45594000000E+02  0.51100000000E-03 0. -1.
    9900012    2    1    2    0    0  0.85904586874E+00 -0.71547351474E+00  0.37527221765E+00  0.90008724209E+02  0.90000998563E+02 0.  0.
         12    1    1    2    0    0 -0.85904586874E+00  0.71547351474E+00 -0.37527221765E+00  0.11792757914E+01  0.00000000000E+00 0. -1.
         11    1    3    3    0    0  0.69823584516E+01  0.43760134927E+01 -0.48549735130E+01  0.95641827516E+01  0.51100000000E-03 0. -1.
        -11    1    3    3    0    0  0.33771425756E+02 -0.90365515218E+01  0.16704554925E+02  0.38745459301E+02  0.51100000000E-03 0.  1.
         12    1    3    3    0    0 -0.39894738338E+02  0.39450645144E+01 -0.11474309195E+02  0.41699082155E+02  0.00000000000E+00 0. -1.
</event>
<event>
 7    1  0.2490895E-015  0.9000775E+02  0.7816164E-02  0.1186339E+00
        -11   -1    0    0    0    0  0.00000000000E+00  0.00000000000E+00  0.45593999997E+02  0.45594000000E+02  0.51100000000E-03 0. -1.
         11   -1    0    0    0    0 -0.00000000000E+00 -0.00000000000E+00 -0.45593999997E+02  0.45594000000E+02  0.51100000000E-03 0.  1.
    9900012    2    1    2    0    0  0.74450456388E+00  0.76369020117E+00 -0.50545598737E+00  0.90007747686E+02  0.90000009156E+02 0.  0.
         12    1    1    2    0    0 -0.74450456388E+00 -0.76369020117E+00  0.50545598737E+00  0.11802523138E+01  0.00000000000E+00 0. -1.
         11    1    3    3    0    0  0.15297984264E+01 -0.82890313690E+01  0.66681579055E+01  0.10747681349E+02  0.51100000000E-03 0. -1.
        -11    1    3    3    0    0  0.13948012254E+01 -0.30845432072E+02 -0.20587368349E+02  0.37110994138E+02  0.51100000000E-03 0.  1.
         12    1    3    3    0    0 -0.21800950879E+01  0.39898153642E+02  0.13413754456E+02  0.42149072199E+02  0.00000000000E+00 0. -1.
</event>
<event>
 7    1  0.2490895E-015  0.9000778E+02  0.7816164E-02  0.1186339E+00
        -11   -1    0    0    0    0  0.00000000000E+00  0.00000000000E+00  0.45593999997E+02  0.45594000000E+02  0.51100000000E-03 0.  1.
         11   -1    0    0    0    0 -0.00000000000E+00 -0.00000000000E+00 -0.45593999997E+02  0.45594000000E+02  0.51100000000E-03 0. -1.
    9900012    2    1    2    0    0 -0.32295295128E+00  0.48464951698E+00  0.10265135779E+01  0.90007782271E+02  0.90000044197E+02 0.  0.
         12    1    1    2    0    0  0.32295295128E+00 -0.48464951698E+00 -0.10265135779E+01  0.11802177293E+01  0.00000000000E+00 0. -1.
         11    1    3    3    0    0  0.32547898730E-01 -0.34800243510E+01  0.97138208461E+01  0.10318427426E+02  0.51100000000E-03 0. -1.
        -11    1    3    3    0    0  0.12508659129E+02 -0.17780281889E+02  0.27811003875E+02  0.35299531358E+02  0.51100000000E-03 0.  1.
         12    1    3    3    0    0 -0.12864159979E+02  0.21744955757E+02 -0.36498311144E+02  0.44389823487E+02  0.00000000000E+00 0. -1.
</event>
<event>
 7    1  0.2490895E-015  0.9000809E+02  0.7816164E-02  0.1186338E+00
        -11   -1    0    0    0    0  0.00000000000E+00  0.00000000000E+00  0.45593999997E+02  0.45594000000E+02  0.51100000000E-03 0.  1.
         11   -1    0    0    0    0 -0.00000000000E+00 -0.00000000000E+00 -0.45593999997E+02  0.45594000000E+02  0.51100000000E-03 0. -1.
    9900012    2    1    2    0    0  0.10233194866E+01 -0.19576445989E+00 -0.55378731852E+00  0.90008090304E+02  0.90000356296E+02 0.  0.
         12    1    1    2    0    0 -0.10233194866E+01  0.19576445989E+00  0.55378731852E+00  0.11799096955E+01  0.00000000000E+00 0. -1.
         11    1    3    3    0    0  0.78311726592E+01  0.82794574272E+00  0.23416661187E+01  0.82156046548E+01  0.51100000000E-03 0. -1.
        -11    1    3    3    0    0 -0.20964638163E+02  0.24319826538E+02  0.25637396944E+02  0.41088272518E+02  0.51100000000E-03 0.  1.
         12    1    3    3    0    0  0.14156784990E+02 -0.25343536741E+02 -0.28532850381E+02  0.40704213132E+02  0.00000000000E+00 0. -1.
</event>
<event>
 7    1  0.2490895E-015  0.9000777E+02  0.7816164E-02  0.1186339E+00
        -11   -1    0    0    0    0  0.00000000000E+00  0.00000000000E+00  0.45593999997E+02  0.45594000000E+02  0.51100000000E-03 0. -1.
         11   -1    0    0    0    0 -0.00000000000E+00 -0.00000000000E+00 -0.45593999997E+02  0.45594000000E+02  0.51100000000E-03 0.  1.
    9900012    2    1    2    0    0  0.11063704849E+01 -0.39302308175E+00  0.12008329538E+00  0.90007770026E+02  0.90000031791E+02 0.  0.
         12    1    1    2    0    0 -0.11063704849E+01  0.39302308175E+00 -0.12008329538E+00  0.11802299736E+01  0.00000000000E+00 0. -1.
         11    1    3    3    0    0  0.17676063753E+02  0.98336189835E+01  0.29735816985E+02  0.35963343896E+02  0.51100000000E-03 0. -1.
        -11    1    3    3    0    0  0.61864225525E+01 -0.47635090932E+01  0.70677190286E+01  0.10531642579E+02  0.51100000000E-03 0.  1.
        -12    1    3    3    0    0 -0.22756115820E+02 -0.54631329721E+01 -0.36683452719E+02  0.43512783552E+02  0.00000000000E+00 0.  1.
</event>
<event>
 7    1  0.2490895E-015  0.9000777E+02  0.7816164E-02  0.1186339E+00
        -11   -1    0    0    0    0  0.00000000000E+00  0.00000000000E+00  0.45593999997E+02  0.45594000000E+02  0.51100000000E-03 0.  1.
         11   -1    0    0    0    0 -0.00000000000E+00 -0.00000000000E+00 -0.45593999997E+02  0.45594000000E+02  0.51100000000E-03 0. -1.
    9900012    2    1    2    0    0 -0.19227652626E+00  0.10528520825E+01 -0.49747269189E+00  0.90007768307E+02  0.90000030049E+02 0.  0.
         12    1    1    2    0    0  0.19227652626E+00 -0.10528520825E+01  0.49747269189E+00  0.11802316930E+01  0.00000000000E+00 0. -1.
         11    1    3    3    0    0 -0.15564119590E+01  0.78111804866E+01  0.21656548137E+01  0.82539093654E+01  0.51100000000E-03 0. -1.
        -11    1    3    3    0    0 -0.46725492820E+01 -0.34845139759E+02  0.23992978108E+02  0.42563828310E+02  0.51100000000E-03 0.  1.
         12    1    3    3    0    0  0.60366847147E+01  0.28086811355E+02 -0.26656105614E+02  0.39190030632E+02  0.00000000000E+00 0. -1.
</event>
<event>
 7    1  0.2490895E-015  0.9000779E+02  0.7816164E-02  0.1186339E+00
        -11   -1    0    0    0    0  0.00000000000E+00  0.00000000000E+00  0.45593999997E+02  0.45594000000E+02  0.51100000000E-03 0.  1.
         11   -1    0    0    0    0 -0.00000000000E+00 -0.00000000000E+00 -0.45593999997E+02  0.45594000000E+02  0.51100000000E-03 0. -1.
    9900012    2    1    2    0    0  0.42546498164E+00  0.81671694118E+00  0.73814368962E+00  0.90007786833E+02  0.90000048819E+02 0.  0.
         12    1    1    2    0    0 -0.42546498164E+00 -0.81671694118E+00 -0.73814368962E+00  0.11802131668E+01  0.00000000000E+00 0. -1.
         11    1    3    3    0    0  0.63263519207E+01 -0.90030619499E+01 -0.30428840803E+01  0.11416522977E+02  0.51100000000E-03 0. -1.
        -11    1    3    3    0    0  0.26679993873E+02 -0.16265035264E+02  0.15996958930E+02  0.35103790970E+02  0.51100000000E-03 0.  1.
         12    1    3    3    0    0 -0.32580880812E+02  0.26084814155E+02 -0.12215931160E+02  0.43487472887E+02  0.00000000000E+00 0. -1.
</event>
<event>
 7    1  0.3502169E-015  0.9000779E+02  0.7816164E-02  0.1186339E+00
        -11   -1    0    0    0    0  0.00000000000E+00  0.00000000000E+00  0.45593999997E+02  0.45594000000E+02  0.51100000000E-03 0. -1.
         11   -1    0    0    0    0 -0.00000000000E+00 -0.00000000000E+00 -0.45593999997E+02  0.45594000000E+02  0.51100000000E-03 0.  1.
    9900012    2    1    2    0    0  0.22243105746E+00  0.65315001588E+00 -0.95750931766E+00  0.90007786201E+02  0.90000048179E+02 0.  0.
         12    1    1    2    0    0 -0.22243105746E+00 -0.65315001588E+00  0.95750931766E+00  0.11802137993E+01  0.00000000000E+00 0. -1.
         11    1    3    3    0    0 -0.32232926250E+02 -0.19942740454E+01  0.21704358832E+02  0.38910382370E+02  0.51100000000E-03 0. -1.
        -11    1    3    3    0    0  0.75196725609E+00 -0.96416071702E+01  0.92565164309E+00  0.97150849097E+01  0.51100000000E-03 0.  1.
        -12    1    3    3    0    0  0.31703390051E+02  0.12289031231E+02 -0.23587519792E+02  0.41382318921E+02  0.00000000000E+00 0.  1.
</event>
<event>
 7    1  0.2490895E-015  0.9000775E+02  0.7816164E-02  0.1186339E+00
        -11   -1    0    0    0    0  0.00000000000E+00  0.00000000000E+00  0.45593999997E+02  0.45594000000E+02  0.51100000000E-03 0. -1.
         11   -1    0    0    0    0 -0.00000000000E+00 -0.00000000000E+00 -0.45593999997E+02  0.45594000000E+02  0.51100000000E-03 0.  1.
    9900012    2    1    2    0    0  0.76508735787E+00 -0.47797318517E+00 -0.76103343641E+00  0.90007750483E+02  0.90000011989E+02 0.  0.
         12    1    1    2    0    0 -0.76508735787E+00  0.47797318517E+00  0.76103343641E+00  0.11802495169E+01  0.00000000000E+00 0. -1.
         11    1    3    3    0    0  0.41383202598E+02 -0.68014486798E+01  0.27330818484E+01  0.42027358923E+02  0.51100000000E-03 0. -1.
        -11    1    3    3    0    0 -0.67855437127E+01 -0.13521736945E+01  0.87819649997E+01  0.11180111211E+02  0.51100000000E-03 0.  1.
        -12    1    3    3    0    0 -0.33832571527E+02  0.76756491892E+01 -0.12276080285E+02  0.36800280349E+02  0.00000000000E+00 0.  1.
</event>
<event>
 7    1  0.2490895E-015  0.9000786E+02  0.7816164E-02  0.1186339E+00
        -11   -1    0    0    0    0  0.00000000000E+00  0.00000000000E+00  0.45593999997E+02  0.45594000000E+02  0.51100000000E-03 0. -1.
         11   -1    0    0    0    0 -0.00000000000E+00 -0.00000000000E+00 -0.45593999997E+02  0.45594000000E+02  0.51100000000E-03 0.  1.
    9900012    2    1    2    0    0 -0.61527278509E-01  0.11530579347E+01  0.24373082804E+00  0.90007858939E+02  0.90000121877E+02 0.  0.
         12    1    1    2    0    0  0.61527278509E-01 -0.11530579347E+01 -0.24373082804E+00  0.11801410608E+01  0.00000000000E+00 0. -1.
         11    1    3    3    0    0 -0.84917500919E+01  0.62362931904E+00 -0.31480534842E+01  0.90779388713E+01  0.51100000000E-03 0. -1.
        -11    1    3    3    0    0 -0.58103658458E+01 -0.13457124093E+01 -0.37301904732E+02  0.37775698406E+02  0.51100000000E-03 0.  1.
         12    1    3    3    0    0  0.14240588659E+02  0.18751410250E+01  0.40693689044E+02  0.43154221662E+02  0.00000000000E+00 0. -1.
</event>
<event>
 7    1  0.2490895E-015  0.9000753E+02  0.7816164E-02  0.1186339E+00
        -11   -1    0    0    0    0  0.00000000000E+00  0.00000000000E+00  0.45593999997E+02  0.45594000000E+02  0.51100000000E-03 0.  1.
         11   -1    0    0    0    0 -0.00000000000E+00 -0.00000000000E+00 -0.45593999997E+02  0.45594000000E+02  0.51100000000E-03 0. -1.
    9900012    2    1    2    0    0  0.34124480917E+00 -0.12540011861E+00  0.11230971788E+01  0.90007525315E+02  0.89999783849E+02 0.  0.
         12    1    1    2    0    0 -0.34124480917E+00  0.12540011861E+00 -0.11230971788E+01  0.11804746853E+01  0.00000000000E+00 0. -1.
         11    1    3    3    0    0 -0.23477192457E+01  0.51908765045E+01  0.64800573634E+01  0.86283328769E+01  0.51100000000E-03 0. -1.
        -11    1    3    3    0    0  0.18996737751E+02  0.33788681188E+02 -0.42570175487E+01  0.38995810292E+02  0.51100000000E-03 0.  1.
         12    1    3    3    0    0 -0.16307773696E+02 -0.39104957811E+02 -0.10999426358E+01  0.42383382146E+02  0.00000000000E+00 0. -1.
</event>
<event>
 7    1  0.2490895E-015  0.9000768E+02  0.7816164E-02  0.1186339E+00
        -11   -1    0    0    0    0  0.00000000000E+00  0.00000000000E+00  0.45593999997E+02  0.45594000000E+02  0.51100000000E-03 0.  1.
         11   -1    0    0    0    0 -0.00000000000E+00 -0.00000000000E+00 -0.45593999997E+02  0.45594000000E+02  0.51100000000E-03 0. -1.
    9900012    2    1    2    0    0  0.50463536415E-01 -0.88658287269E+00  0.77754627702E+00  0.90007680564E+02  0.89999941147E+02 0.  0.
         12    1    1    2    0    0 -0.50463536415E-01  0.88658287269E+00 -0.77754627702E+00  0.11803194362E+01  0.00000000000E+00 0. -1.
         11    1    3    3    0    0  0.83036345165E+01 -0.31436585196E+01  0.34742049378E+01  0.95343083274E+01  0.51100000000E-03 0. -1.
        -11    1    3    3    0    0  0.14207316549E+02 -0.33168241543E+02 -0.10982480228E+02  0.37717303228E+02  0.51100000000E-03 0.  1.
         12    1    3    3    0    0 -0.22460487529E+02  0.35425317190E+02  0.82858215675E+01  0.42756069009E+02  0.00000000000E+00 0. -1.
</event>
<event>
 7    1  0.2490895E-015  0.9000767E+02  0.7816164E-02  0.1186339E+00
        -11   -1    0    0    0    0  0.00000000000E+00  0.00000000000E+00  0.45593999997E+02  0.45594000000E+02  0.51100000000E-03 0. -1.
         11   -1    0    0    0    0 -0.00000000000E+00 -0.00000000000E+00 -0.45593999997E+02  0.45594000000E+02  0.51100000000E-03 0.  1.
    9900012    2    1    2    0    0  0.22894923974E+00 -0.10546763466E+01  0.47792128576E+00  0.90007674322E+02  0.89999934823E+02 0.  0.
         12    1    1    2    0    0 -0.22894923974E+00  0.10546763466E+01 -0.47792128576E+00  0.11803256779E+01  0.00000000000E+00 0. -1.
         11    1    3    3    0    0 -0.73767772331E+00 -0.16323806268E+01 -0.91288429029E+01  0.93029354475E+01  0.51100000000E-03 0. -1.
        -11    1    3    3    0    0  0.46876680512E+01 -0.61266009708E+00 -0.35306638504E+02  0.35621739245E+02  0.51100000000E-03 0.  1.
         12    1    3    3    0    0 -0.37210410881E+01  0.11903643772E+01  0.44913402693E+02  0.45082999629E+02  0.00000000000E+00 0. -1.
</event>
<event>
 7    1  0.2490895E-015  0.9000771E+02  0.7816164E-02  0.1186339E+00
        -11   -1    0    0    0    0  0.00000000000E+00  0.00000000000E+00  0.45593999997E+02  0.45594000000E+02  0.51100000000E-03 0.  1.
         11   -1    0    0    0    0 -0.00000000000E+00 -0.00000000000E+00 -0.45593999997E+02  0.45594000000E+02  0.51100000000E-03 0. -1.
    9900012    2    1    2    0    0 -0.73432974357E-01  0.11749029215E+01 -0.85400009040E-01  0.90007710867E+02  0.89999971850E+02 0.  0.
         12    1    1    2    0    0  0.73432974357E-01 -0.11749029215E+01  0.85400009040E-01  0.11802891333E+01  0.00000000000E+00 0. -1.
         11    1    3    3    0    0  0.11934432143E+01 -0.94496756213E+01  0.44823222257E+01  0.10526722607E+02  0.51100000000E-03 0. -1.
        -11    1    3    3    0    0  0.27282579668E+02  0.99343191915E+00  0.25180222340E+02  0.37139866151E+02  0.51100000000E-03 0.  1.
         12    1    3    3    0    0 -0.28549455857E+02  0.96311466237E+01 -0.29747944575E+02  0.42341122109E+02  0.00000000000E+00 0. -1.
</event>
<event>
 7    1  0.2490895E-015  0.9000803E+02  0.7816164E-02  0.1186338E+00
        -11   -1    0    0    0    0  0.00000000000E+00  0.00000000000E+00  0.45593999997E+02  0.45594000000E+02  0.51100000000E-03 0.  1.
         11   -1    0    0    0    0 -0.00000000000E+00 -0.00000000000E+00 -0.45593999997E+02  0.45594000000E+02  0.51100000000E-03 0. -1.
    9900012    2    1    2    0    0 -0.92585260595E+00 -0.43522402136E+00  0.58796718002E+00  0.90008030339E+02  0.90000295539E+02 0.  0.
         12    1    1    2    0    0  0.92585260595E+00  0.43522402136E+00 -0.58796718002E+00  0.11799696613E+01  0.00000000000E+00 0. -1.
         11    1    3    3    0    0 -0.23325414496E+01 -0.82189136944E+01  0.34437234255E+01  0.92114343738E+01  0.51100000000E-03 0. -1.
        -11    1    3    3    0    0  0.34311882764E+02  0.24989034060E+02  0.53085257003E+01  0.42777769548E+02  0.51100000000E-03 0.  1.
         12    1    3    3    0    0 -0.32905193921E+02 -0.17205344387E+02 -0.81642819458E+01  0.38018826417E+02  0.00000000000E+00 0. -1.
</event>
<event>
 7    1  0.2490895E-015  0.9000752E+02  0.7816164E-02  0.1186339E+00
        -11   -1    0    0    0    0  0.00000000000E+00  0.00000000000E+00  0.45593999997E+02  0.45594000000E+02  0.51100000000E-03 0.  1.
         11   -1    0    0    0    0 -0.00000000000E+00 -0.00000000000E+00 -0.45593999997E+02  0.45594000000E+02  0.51100000000E-03 0. -1.
    9900012    2    1    2    0    0 -0.46287149441E+00  0.47768877358E-01  0.10848951637E+01  0.90007521537E+02  0.89999780021E+02 0.  0.
         12    1    1    2    0    0  0.46287149441E+00 -0.47768877358E-01 -0.10848951637E+01  0.11804784632E+01  0.00000000000E+00 0. -1.
         11    1    3    3    0    0 -0.20219437228E+02  0.13272543362E+02 -0.28852328890E+02  0.37648943302E+02  0.51100000000E-03 0. -1.
        -11    1    3    3    0    0 -0.99427894403E+01 -0.14782317966E+01  0.27641671765E+01  0.10425202710E+02  0.51100000000E-03 0.  1.
        -12    1    3    3    0    0  0.29699355174E+02 -0.11746542688E+02  0.27173056877E+02  0.41933375525E+02  0.00000000000E+00 0.  1.
</event>
<event>
 7    1  0.2490895E-015  0.9000780E+02  0.7816164E-02  0.1186339E+00
        -11   -1    0    0    0    0  0.00000000000E+00  0.00000000000E+00  0.45593999997E+02  0.45594000000E+02  0.51100000000E-03 0. -1.
         11   -1    0    0    0    0 -0.00000000000E+00 -0.00000000000E+00 -0.45593999997E+02  0.45594000000E+02  0.51100000000E-03 0.  1.
    9900012    2    1    2    0    0  0.57544261755E+00 -0.10277492143E+01 -0.73907020537E-01  0.90007803024E+02  0.90000065224E+02 0.  0.
         12    1    1    2    0    0 -0.57544261755E+00  0.10277492143E+01  0.73907020537E-01  0.11801969756E+01  0.00000000000E+00 0. -1.
         11    1    3    3    0    0  0.18976747187E+02 -0.23751737784E+02 -0.24714098182E+02  0.39179696665E+02  0.51100000000E-03 0. -1.
        -11    1    3    3    0    0 -0.71333742805E+01  0.28589862977E+01 -0.79338237230E+01  0.11045559760E+02  0.51100000000E-03 0.  1.
        -12    1    3    3    0    0 -0.11267930289E+02  0.19865002272E+02  0.32574014884E+02  0.39782546600E+02  0.00000000000E+00 0.  1.
</event>
<event>
 7    1  0.2490895E-015  0.9000667E+02  0.7816164E-02  0.1186341E+00
        -11   -1    0    0    0    0  0.00000000000E+00  0.00000000000E+00  0.45593999997E+02  0.45594000000E+02  0.51100000000E-03 0.  1.
         11   -1    0    0    0    0 -0.00000000000E+00 -0.00000000000E+00 -0.45593999997E+02  0.45594000000E+02  0.51100000000E-03 0. -1.
    9900012    2    1    2    0    0 -0.85778325242E+00  0.26033168603E-01  0.81182840350E+00  0.90006672276E+02  0.89998919544E+02 0.  0.
         12    1    1    2    0    0  0.85778325242E+00 -0.26033168603E-01 -0.81182840350E+00  0.11813277237E+01  0.00000000000E+00 0. -1.
         11    1    3    3    0    0  0.40485016762E+01 -0.40046428135E+01 -0.35993062560E+02  0.36440747558E+02  0.51100000000E-03 0. -1.
        -11    1    3    3    0    0  0.55257720340E+00 -0.42764818422E+01 -0.72326262917E+01  0.84204822813E+01  0.51100000000E-03 0.  1.
        -12    1    3    3    0    0 -0.54588621320E+01  0.83071578243E+01  0.44037517255E+02  0.45145442437E+02  0.00000000000E+00 0.  1.
</event>
<event>
 7    1  0.2490895E-015  0.9000772E+02  0.7816164E-02  0.1186339E+00
        -11   -1    0    0    0    0  0.00000000000E+00  0.00000000000E+00  0.45593999997E+02  0.45594000000E+02  0.51100000000E-03 0. -1.
         11   -1    0    0    0    0 -0.00000000000E+00 -0.00000000000E+00 -0.45593999997E+02  0.45594000000E+02  0.51100000000E-03 0.  1.
    9900012    2    1    2    0    0 -0.10125988724E+01 -0.15783721371E+00 -0.58549338211E+00  0.90007715474E+02  0.89999976518E+02 0.  0.
         12    1    1    2    0    0  0.10125988724E+01  0.15783721371E+00  0.58549338211E+00  0.11802845263E+01  0.00000000000E+00 0. -1.
         11    1    3    3    0    0 -0.29176885046E+01 -0.21745531449E+02  0.95007303576E+00  0.21960958159E+02  0.51100000000E-03 0. -1.
        -11    1    3    3    0    0 -0.16358157544E+02 -0.12186214344E+02 -0.17098699038E+02  0.26616886507E+02  0.51100000000E-03 0.  1.
         12    1    3    3    0    0  0.18263247176E+02  0.33773908580E+02  0.15563132620E+02  0.41429870808E+02  0.00000000000E+00 0. -1.
</event>
<event>
 7    1  0.2490895E-015  0.9000779E+02  0.7816164E-02  0.1186339E+00
        -11   -1    0    0    0    0  0.00000000000E+00  0.00000000000E+00  0.45593999997E+02  0.45594000000E+02  0.51100000000E-03 0.  1.
         11   -1    0    0    0    0 -0.00000000000E+00 -0.00000000000E+00 -0.45593999997E+02  0.45594000000E+02  0.51100000000E-03 0. -1.
    9900012    2    1    2    0    0  0.47772726740E+00 -0.91418325810E+00  0.57353404742E+00  0.90007789987E+02  0.90000052015E+02 0.  0.
         12    1    1    2    0    0 -0.47772726740E+00  0.91418325810E+00 -0.57353404742E+00  0.11802100131E+01  0.00000000000E+00 0. -1.
         11    1    3    3    0    0  0.17387104965E+02  0.32454811777E+02 -0.17402192906E+01  0.36859932040E+02  0.51100000000E-03 0. -1.
        -11    1    3    3    0    0 -0.63589926308E+00  0.45806050131E+01  0.10118395900E+02  0.11125117798E+02  0.51100000000E-03 0.  1.
        -12    1    3    3    0    0 -0.16273478435E+02 -0.37949600048E+02 -0.78046425621E+01  0.42022740150E+02  0.00000000000E+00 0.  1.
</event>
<event>
 7    1  0.2490895E-015  0.9000773E+02  0.7816164E-02  0.1186339E+00
        -11   -1    0    0    0    0  0.00000000000E+00  0.00000000000E+00  0.45593999997E+02  0.45594000000E+02  0.51100000000E-03 0. -1.
         11   -1    0    0    0    0 -0.00000000000E+00 -0.00000000000E+00 -0.45593999997E+02  0.45594000000E+02  0.51100000000E-03 0.  1.
    9900012    2    1    2    0    0  0.44697058846E+00 -0.36018271710E+00 -0.10312733593E+01  0.90007729252E+02  0.89999990478E+02 0.  0.
         12    1    1    2    0    0 -0.44697058846E+00  0.36018271710E+00  0.10312733593E+01  0.11802707479E+01  0.00000000000E+00 0. -1.
         11    1    3    3    0    0  0.43308099022E+01  0.20903469149E+01 -0.89612684568E+01  0.10170044112E+02  0.51100000000E-03 0. -1.
        -11    1    3    3    0    0 -0.17379290795E+02 -0.34939503112E+02 -0.10095928000E+02  0.40308018913E+02  0.51100000000E-03 0.  1.
         12    1    3    3    0    0  0.13495451481E+02  0.32488973480E+02  0.18025923098E+02  0.39529666227E+02  0.00000000000E+00 0. -1.
</event>
<event>
 7    1  0.2490895E-015  0.9000774E+02  0.7816164E-02  0.1186339E+00
        -11   -1    0    0    0    0  0.00000000000E+00  0.00000000000E+00  0.45593999997E+02  0.45594000000E+02  0.51100000000E-03 0.  1.
         11   -1    0    0    0    0 -0.00000000000E+00 -0.00000000000E+00 -0.45593999997E+02  0.45594000000E+02  0.51100000000E-03 0. -1.
    9900012    2    1    2    0    0  0.48313229992E+00  0.10292596351E+01  0.31658347347E+00  0.90007738456E+02  0.89999999804E+02 0.  0.
         12    1    1    2    0    0 -0.48313229992E+00 -0.10292596351E+01 -0.31658347347E+00  0.11802615436E+01  0.00000000000E+00 0. -1.
         11    1    3    3    0    0 -0.19654401825E+01  0.99278366824E+01  0.29055170596E+01  0.10529336444E+02  0.51100000000E-03 0. -1.
        -11    1    3    3    0    0 -0.22361000994E+02 -0.58177656990E+01  0.30338856686E+02  0.38135377125E+02  0.51100000000E-03 0.  1.
         12    1    3    3    0    0  0.24809573477E+02 -0.30808113484E+01 -0.32927790272E+02  0.41343024888E+02  0.00000000000E+00 0. -1.
</event>
<event>
 7    1  0.2490895E-015  0.9000768E+02  0.7816164E-02  0.1186339E+00
        -11   -1    0    0    0    0  0.00000000000E+00  0.00000000000E+00  0.45593999997E+02  0.45594000000E+02  0.51100000000E-03 0. -1.
         11   -1    0    0    0    0 -0.00000000000E+00 -0.00000000000E+00 -0.45593999997E+02  0.45594000000E+02  0.51100000000E-03 0.  1.
    9900012    2    1    2    0    0  0.23071077853E+00 -0.11565328562E+01 -0.48500012048E-01  0.90007683109E+02  0.89999943726E+02 0.  0.
         12    1    1    2    0    0 -0.23071077853E+00  0.11565328562E+01  0.48500012048E-01  0.11803168905E+01  0.00000000000E+00 0. -1.
         11    1    3    3    0    0  0.31350759052E+01  0.12043336507E+02  0.84594419126E+01  0.15047684635E+02  0.51100000000E-03 0. -1.
        -11    1    3    3    0    0  0.14507954885E+02 -0.66008201252E+01  0.28995847574E+02  0.33087924657E+02  0.51100000000E-03 0.  1.
        -12    1    3    3    0    0 -0.17412320011E+02 -0.65990492378E+01 -0.37503789499E+02  0.41872073818E+02  0.00000000000E+00 0.  1.
</event>
<event>
 7    1  0.2490895E-015  0.9000774E+02  0.7816164E-02  0.1186339E+00
        -11   -1    0    0    0    0  0.00000000000E+00  0.00000000000E+00  0.45593999997E+02  0.45594000000E+02  0.51100000000E-03 0.  1.
         11   -1    0    0    0    0 -0.00000000000E+00 -0.00000000000E+00 -0.45593999997E+02  0.45594000000E+02  0.51100000000E-03 0. -1.
    9900012    2    1    2    0    0  0.35143809894E+00 -0.17363526360E+00  0.11132582615E+01  0.90007744986E+02  0.90000006419E+02 0.  0.
         12    1    1    2    0    0 -0.35143809894E+00  0.17363526360E+00 -0.11132582615E+01  0.11802550143E+01  0.00000000000E+00 0. -1.
         11    1    3    3    0    0 -0.13361181300E+02  0.25281024830E+02 -0.20236704629E+02  0.35031066166E+02  0.51100000000E-03 0. -1.
        -11    1    3    3    0    0 -0.95005107112E+01  0.52101976824E+01 -0.30398256624E+00  0.10839661864E+02  0.51100000000E-03 0.  1.
        -12    1    3    3    0    0  0.23213130110E+02 -0.30664857776E+02  0.21653945457E+02  0.44137016956E+02  0.00000000000E+00 0.  1.
</event>
<event>
 7    1  0.2710503E-015  0.9000779E+02  0.7816164E-02  0.1186339E+00
        -11   -1    0    0    0    0  0.00000000000E+00  0.00000000000E+00  0.45593999997E+02  0.45594000000E+02  0.51100000000E-03 0.  1.
         11   -1    0    0    0    0 -0.00000000000E+00 -0.00000000000E+00 -0.45593999997E+02  0.45594000000E+02  0.51100000000E-03 0. -1.
    9900012    2    1    2    0    0  0.98642996391E+00  0.46639241780E+00  0.44980010894E+00  0.90007794044E+02  0.90000056125E+02 0.  0.
         12    1    1    2    0    0 -0.98642996391E+00 -0.46639241780E+00 -0.44980010894E+00  0.11802059562E+01  0.00000000000E+00 0. -1.
         11    1    3    3    0    0  0.63860597591E+01  0.19202128776E+02 -0.30093876415E+02  0.36264926675E+02  0.51100000000E-03 0. -1.
        -11    1    3    3    0    0  0.59705187931E+01  0.69065075052E+01 -0.33705100617E+01  0.97317664849E+01  0.51100000000E-03 0.  1.
        -12    1    3    3    0    0 -0.11370148588E+02 -0.25642243864E+02  0.33914186585E+02  0.44011100884E+02  0.00000000000E+00 0.  1.
</event>
<event>
 7    1  0.2490895E-015  0.9000772E+02  0.7816164E-02  0.1186339E+00
        -11   -1    0    0    0    0  0.00000000000E+00  0.00000000000E+00  0.45593999997E+02  0.45594000000E+02  0.51100000000E-03 0.  1.
         11   -1    0    0    0    0 -0.00000000000E+00 -0.00000000000E+00 -0.45593999997E+02  0.45594000000E+02  0.51100000000E-03 0. -1.
    9900012    2    1    2    0    0 -0.10189139292E+01  0.10580337278E+00 -0.58624405972E+00  0.90007719505E+02  0.89999980603E+02 0.  0.
         12    1    1    2    0    0  0.10189139292E+01 -0.10580337278E+00  0.58624405972E+00  0.11802804947E+01  0.00000000000E+00 0. -1.
         11    1    3    3    0    0 -0.45818521784E+01  0.68347010536E+01 -0.64782930808E+00  0.82538591550E+01  0.51100000000E-03 0. -1.
        -11    1    3    3    0    0  0.18696394529E+02  0.32500884484E+02  0.94576882346E+01  0.38669245242E+02  0.51100000000E-03 0.  1.
         12    1    3    3    0    0 -0.15133456280E+02 -0.39229782165E+02 -0.93961029863E+01  0.43084615108E+02  0.00000000000E+00 0. -1.
</event>
<event>
 7    1  0.2490895E-015  0.9000774E+02  0.7816164E-02  0.1186339E+00
        -11   -1    0    0    0    0  0.00000000000E+00  0.00000000000E+00  0.45593999997E+02  0.45594000000E+02  0.51100000000E-03 0.  1.
         11   -1    0    0    0    0 -0.00000000000E+00 -0.00000000000E+00 -0.45593999997E+02  0.45594000000E+02  0.51100000000E-03 0. -1.
    9900012    2    1    2    0    0  0.10528898205E+01  0.17557290442E+00 -0.50360400761E+00  0.90007737396E+02  0.89999998729E+02 0.  0.
         12    1    1    2    0    0 -0.10528898205E+01 -0.17557290442E+00  0.50360400761E+00  0.11802626044E+01  0.00000000000E+00 0. -1.
         11    1    3    3    0    0  0.41580935281E+01 -0.83638782589E+01 -0.19915770235E+01  0.95504230597E+01  0.51100000000E-03 0. -1.
        -11    1    3    3    0    0 -0.33667609093E+02 -0.33267284617E+01  0.23300438276E+02  0.41079014696E+02  0.51100000000E-03 0.  1.
         12    1    3    3    0    0  0.30562405385E+02  0.11866179625E+02 -0.21812465260E+02  0.39378299640E+02  0.00000000000E+00 0. -1.
</event>
<event>
 7    1  0.2490895E-015  0.9000775E+02  0.7816164E-02  0.1186339E+00
        -11   -1    0    0    0    0  0.00000000000E+00  0.00000000000E+00  0.45593999997E+02  0.45594000000E+02  0.51100000000E-03 0. -1.
         11   -1    0    0    0    0 -0.00000000000E+00 -0.00000000000E+00 -0.45593999997E+02  0.45594000000E+02  0.51100000000E-03 0.  1.
    9900012    2    1    2    0    0 -0.35680381571E+00 -0.54869880074E+00 -0.98214141727E+00  0.90007753797E+02  0.90000015347E+02 0.  0.
         12    1    1    2    0    0  0.35680381571E+00  0.54869880074E+00  0.98214141727E+00  0.11802462033E+01  0.00000000000E+00 0. -1.
         11    1    3    3    0    0 -0.16633288391E+02  0.69169901012E+01  0.35059013743E+02  0.39416309818E+02  0.51100000000E-03 0. -1.
        -11    1    3    3    0    0  0.43924493723E+01  0.60030990476E+01  0.26803338853E+01  0.79066427554E+01  0.51100000000E-03 0.  1.
        -12    1    3    3    0    0  0.11884035203E+02 -0.13468787950E+02 -0.38721489046E+02  0.42684801223E+02  0.00000000000E+00 0.  1.
</event>
<event>
 7    1  0.2490895E-015  0.9000772E+02  0.7816164E-02  0.1186339E+00
        -11   -1    0    0    0    0  0.00000000000E+00  0.00000000000E+00  0.45593999997E+02  0.45594000000E+02  0.51100000000E-03 0.  1.
         11   -1    0    0    0    0 -0.00000000000E+00 -0.00000000000E+00 -0.45593999997E+02  0.45594000000E+02  0.51100000000E-03 0. -1.
    9900012    2    1    2    0    0  0.90310678555E+00  0.38035029035E+00  0.65786317757E+00  0.90007723689E+02  0.89999984842E+02 0.  0.
         12    1    1    2    0    0 -0.90310678555E+00 -0.38035029035E+00 -0.65786317757E+00  0.11802763108E+01  0.00000000000E+00 0. -1.
         11    1    3    3    0    0 -0.37616526733E+00  0.77478477821E+01  0.25596128947E+01  0.81683697269E+01  0.51100000000E-03 0. -1.
        -11    1    3    3    0    0  0.22990285327E+02  0.25325807390E+02 -0.18890661048E+02  0.39074375420E+02  0.51100000000E-03 0.  1.
         12    1    3    3    0    0 -0.21711013274E+02 -0.32693304882E+02  0.16988911331E+02  0.42764978542E+02  0.00000000000E+00 0. -1.
</event>
<event>
 7    1  0.2490895E-015  0.9000774E+02  0.7816164E-02  0.1186339E+00
        -11   -1    0    0    0    0  0.00000000000E+00  0.00000000000E+00  0.45593999997E+02  0.45594000000E+02  0.51100000000E-03 0.  1.
         11   -1    0    0    0    0 -0.00000000000E+00 -0.00000000000E+00 -0.45593999997E+02  0.45594000000E+02  0.51100000000E-03 0. -1.
    9900012    2    1    2    0    0 -0.93479333828E+00 -0.32598075499E-01  0.71979470678E+00  0.90007743401E+02  0.90000004814E+02 0.  0.
         12    1    1    2    0    0  0.93479333828E+00  0.32598075499E-01 -0.71979470678E+00  0.11802565991E+01  0.00000000000E+00 0. -1.
         11    1    3    3    0    0 -0.33142766577E+02  0.67976937988E+01 -0.10432947726E+02  0.35404773913E+02  0.51100000000E-03 0. -1.
        -11    1    3    3    0    0 -0.29353191041E+01  0.97822829598E+01 -0.62923271695E+01  0.11995938463E+02  0.51100000000E-03 0.  1.
        -12    1    3    3    0    0  0.35143292343E+02 -0.16612574834E+02  0.17445069602E+02  0.42607031024E+02  0.00000000000E+00 0.  1.
</event>
<event>
 7    1  0.2490895E-015  0.9000765E+02  0.7816164E-02  0.1186339E+00
        -11   -1    0    0    0    0  0.00000000000E+00  0.00000000000E+00  0.45593999997E+02  0.45594000000E+02  0.51100000000E-03 0.  1.
         11   -1    0    0    0    0 -0.00000000000E+00 -0.00000000000E+00 -0.45593999997E+02  0.45594000000E+02  0.51100000000E-03 0. -1.
    9900012    2    1    2    0    0  0.70574477650E+00 -0.62043351039E+00  0.71429998831E+00  0.90007645009E+02  0.89999905124E+02 0.  0.
         12    1    1    2    0    0 -0.70574477650E+00  0.62043351039E+00 -0.71429998831E+00  0.11803549905E+01  0.00000000000E+00 0. -1.
         11    1    3    3    0    0  0.19410620066E+02 -0.15700289058E+02 -0.28412281717E+02  0.37822334678E+02  0.51100000000E-03 0. -1.
        -11    1    3    3    0    0 -0.38606119762E+01 -0.21948000847E+01 -0.76974530117E+01  0.88866335229E+01  0.51100000000E-03 0.  1.
        -12    1    3    3    0    0 -0.14844263314E+02  0.17274655632E+02  0.36824034717E+02  0.43298676809E+02  0.00000000000E+00 0.  1.
</event>
<event>
 7    1  0.2490895E-015  0.9000771E+02  0.7816164E-02  0.1186339E+00
        -11   -1    0    0    0    0  0.00000000000E+00  0.00000000000E+00  0.45593999997E+02  0.45594000000E+02  0.51100000000E-03 0.  1.
         11   -1    0    0    0    0 -0.00000000000E+00 -0.00000000000E+00 -0.45593999997E+02  0.45594000000E+02  0.51100000000E-03 0. -1.
    9900012    2    1    2    0    0  0.11280495824E+01  0.34522435363E+00  0.37620696600E-01  0.90007707226E+02  0.89999968162E+02 0.  0.
         12    1    1    2    0    0 -0.11280495824E+01 -0.34522435363E+00 -0.37620696600E-01  0.11802927736E+01  0.00000000000E+00 0. -1.
         11    1    3    3    0    0  0.30093748368E+02  0.21998999597E+02 -0.17591968050E+02  0.41219740589E+02  0.51100000000E-03 0. -1.
        -11    1    3    3    0    0 -0.32938756474E+01  0.65410295505E+01  0.35695736265E+01  0.81471799107E+01  0.51100000000E-03 0.  1.
        -12    1    3    3    0    0 -0.25671823138E+02 -0.28194804794E+02  0.14060015120E+02  0.40640786727E+02  0.00000000000E+00 0.  1.
</event>
<event>
 7    1  0.2490895E-015  0.9000796E+02  0.7816164E-02  0.1186339E+00
        -11   -1    0    0    0    0  0.00000000000E+00  0.00000000000E+00  0.45593999997E+02  0.45594000000E+02  0.51100000000E-03 0. -1.
         11   -1    0    0    0    0 -0.00000000000E+00 -0.00000000000E+00 -0.45593999997E+02  0.45594000000E+02  0.51100000000E-03 0.  1.
    9900012    2    1    2    0    0 -0.41008390664E+00 -0.50078037658E+00 -0.98668184911E+00  0.90007961497E+02  0.90000225789E+02 0.  0.
         12    1    1    2    0    0  0.41008390664E+00  0.50078037658E+00  0.98668184911E+00  0.11800385025E+01  0.00000000000E+00 0. -1.
         11    1    3    3    0    0 -0.26277444079E+01  0.10036438640E+02  0.87179787844E+00  0.10411300257E+02  0.51100000000E-03 0. -1.
        -11    1    3    3    0    0 -0.20381043711E+02 -0.33897548023E+02 -0.17825471922E+02  0.43384077197E+02  0.51100000000E-03 0.  1.
         12    1    3    3    0    0  0.22598704212E+02  0.23360329006E+02  0.15966992195E+02  0.36212584043E+02  0.00000000000E+00 0. -1.
</event>
<event>
 7    1  0.2490895E-015  0.9000778E+02  0.7816164E-02  0.1186339E+00
        -11   -1    0    0    0    0  0.00000000000E+00  0.00000000000E+00  0.45593999997E+02  0.45594000000E+02  0.51100000000E-03 0.  1.
         11   -1    0    0    0    0 -0.00000000000E+00 -0.00000000000E+00 -0.45593999997E+02  0.45594000000E+02  0.51100000000E-03 0. -1.
    9900012    2    1    2    0    0 -0.44191685567E+00 -0.61441306909E+00  0.90561251365E+00  0.90007776313E+02  0.90000038160E+02 0.  0.
         12    1    1    2    0    0  0.44191685567E+00  0.61441306909E+00 -0.90561251365E+00  0.11802236871E+01  0.00000000000E+00 0. -1.
         11    1    3    3    0    0  0.84337870032E+01  0.27204344322E+02  0.20762975272E+02  0.35246365140E+02  0.51100000000E-03 0. -1.
        -11    1    3    3    0    0 -0.49539917586E+01  0.10385208963E+02  0.44287324526E-01  0.11506370460E+02  0.51100000000E-03 0.  1.
        -12    1    3    3    0    0 -0.39217121002E+01 -0.38203966354E+02 -0.19901650083E+02  0.43255040712E+02  0.00000000000E+00 0.  1.
</event>
<event>
 7    1  0.2490895E-015  0.9000777E+02  0.7816164E-02  0.1186339E+00
        -11   -1    0    0    0    0  0.00000000000E+00  0.00000000000E+00  0.45593999997E+02  0.45594000000E+02  0.51100000000E-03 0. -1.
         11   -1    0    0    0    0 -0.00000000000E+00 -0.00000000000E+00 -0.45593999997E+02  0.45594000000E+02  0.51100000000E-03 0.  1.
    9900012    2    1    2    0    0 -0.52090835462E+00 -0.85774540302E+00 -0.62119279387E+00  0.90007765626E+02  0.90000027332E+02 0.  0.
         12    1    1    2    0    0  0.52090835462E+00  0.85774540302E+00  0.62119279387E+00  0.11802343740E+01  0.00000000000E+00 0. -1.
         11    1    3    3    0    0 -0.93462755073E+01  0.47576444884E+01  0.15107740756E+01  0.10595776777E+02  0.51100000000E-03 0. -1.
        -11    1    3    3    0    0 -0.14761034048E+02  0.15211886602E+02 -0.30435770511E+02  0.37089429046E+02  0.51100000000E-03 0.  1.
         12    1    3    3    0    0  0.23586401200E+02 -0.20827276493E+02  0.28303803641E+02  0.42322559803E+02  0.00000000000E+00 0. -1.
</event>
<event>
 7    1  0.2490895E-015  0.9000775E+02  0.7816164E-02  0.1186339E+00
        -11   -1    0    0    0    0  0.00000000000E+00  0.00000000000E+00  0.45593999997E+02  0.45594000000E+02  0.51100000000E-03 0.  1.
         11   -1    0    0    0    0 -0.00000000000E+00 -0.00000000000E+00 -0.45593999997E+02  0.45594000000E+02  0.51100000000E-03 0. -1.
    9900012    2    1    2    0    0 -0.72154879719E+00  0.47482368713E+00  0.80430287613E+00  0.90007748621E+02  0.90000010103E+02 0.  0.
         12    1    1    2    0    0  0.72154879719E+00 -0.47482368713E+00 -0.80430287613E+00  0.11802513788E+01  0.00000000000E+00 0. -1.
         11    1    3    3    0    0  0.26212876873E+02 -0.20098077665E+02 -0.10623732091E+02  0.34697425316E+02  0.51100000000E-03 0. -1.
        -11    1    3    3    0    0  0.82716072266E+01 -0.12512510984E+01 -0.60786814825E+01  0.10340961476E+02  0.51100000000E-03 0.  1.
        -12    1    3    3    0    0 -0.35206032896E+02  0.21824152450E+02  0.17506716450E+02  0.44969361829E+02  0.00000000000E+00 0.  1.
</event>
<event>
 7    1  0.2490895E-015  0.9000768E+02  0.7816164E-02  0.1186339E+00
        -11   -1    0    0    0    0  0.00000000000E+00  0.00000000000E+00  0.45593999997E+02  0.45594000000E+02  0.51100000000E-03 0.  1.
         11   -1    0    0    0    0 -0.00000000000E+00 -0.00000000000E+00 -0.45593999997E+02  0.45594000000E+02  0.51100000000E-03 0. -1.
    9900012    2    1    2    0    0  0.18315381315E+00  0.14554411644E+00  0.11569048137E+01  0.90007679214E+02  0.89999939780E+02 0.  0.
         12    1    1    2    0    0 -0.18315381315E+00 -0.14554411644E+00 -0.11569048137E+01  0.11803207856E+01  0.00000000000E+00 0. -1.
         11    1    3    3    0    0 -0.42366693392E+01 -0.70613292373E+01  0.36634088632E+01  0.90128964516E+01  0.51100000000E-03 0. -1.
        -11    1    3    3    0    0 -0.17362706257E+02  0.30324955645E+02  0.21634173390E+02  0.41098709979E+02  0.51100000000E-03 0.  1.
         12    1    3    3    0    0  0.21782529409E+02 -0.23118082291E+02 -0.24140677440E+02  0.39896072783E+02  0.00000000000E+00 0. -1.
</event>
<event>
 7    1  0.2490895E-015  0.9000775E+02  0.7816164E-02  0.1186339E+00
        -11   -1    0    0    0    0  0.00000000000E+00  0.00000000000E+00  0.45593999997E+02  0.45594000000E+02  0.51100000000E-03 0. -1.
         11   -1    0    0    0    0 -0.00000000000E+00 -0.00000000000E+00 -0.45593999997E+02  0.45594000000E+02  0.51100000000E-03 0.  1.
    9900012    2    1    2    0    0 -0.81593179895E+00 -0.59711457751E+00 -0.60884310780E+00  0.90007754073E+02  0.90000015626E+02 0.  0.
         12    1    1    2    0    0  0.81593179895E+00  0.59711457751E+00  0.60884310780E+00  0.11802459274E+01  0.00000000000E+00 0. -1.
         11    1    3    3    0    0 -0.65870823062E+01  0.61841992499E+01 -0.12240406729E+01  0.91176888246E+01  0.51100000000E-03 0. -1.
        -11    1    3    3    0    0 -0.18534609636E+02  0.29069433403E+02 -0.10745945203E+02  0.36111480879E+02  0.51100000000E-03 0.  1.
         12    1    3    3    0    0  0.24305760143E+02 -0.35850747230E+02  0.11361142768E+02  0.44778584369E+02  0.00000000000E+00 0. -1.
</event>
<event>
 7    1  0.2490895E-015  0.9000774E+02  0.7816164E-02  0.1186339E+00
        -11   -1    0    0    0    0  0.00000000000E+00  0.00000000000E+00  0.45593999997E+02  0.45594000000E+02  0.51100000000E-03 0. -1.
         11   -1    0    0    0    0 -0.00000000000E+00 -0.00000000000E+00 -0.45593999997E+02  0.45594000000E+02  0.51100000000E-03 0.  1.
    9900012    2    1    2    0    0  0.10960145908E+01  0.95414994937E-01 -0.42737833811E+00  0.90007743990E+02  0.90000005411E+02 0.  0.
         12    1    1    2    0    0 -0.10960145908E+01 -0.95414994937E-01  0.42737833811E+00  0.11802560097E+01  0.00000000000E+00 0. -1.
         11    1    3    3    0    0 -0.65110928231E+01  0.89034673484E+01 -0.74953819591E+01  0.13335921849E+02  0.51100000000E-03 0. -1.
        -11    1    3    3    0    0  0.83217513588E+01  0.15931512007E+02 -0.28287173555E+02  0.33514605898E+02  0.51100000000E-03 0.  1.
         12    1    3    3    0    0 -0.71464394493E+00 -0.24739564361E+02  0.35355177176E+02  0.43157216244E+02  0.00000000000E+00 0. -1.
</event>
<event>
 7    1  0.2490895E-015  0.9000790E+02  0.7816164E-02  0.1186339E+00
        -11   -1    0    0    0    0  0.00000000000E+00  0.00000000000E+00  0.45593999997E+02  0.45594000000E+02  0.51100000000E-03 0. -1.
         11   -1    0    0    0    0 -0.00000000000E+00 -0.00000000000E+00 -0.45593999997E+02  0.45594000000E+02  0.51100000000E-03 0.  1.
    9900012    2    1    2    0    0  0.31283587693E+00  0.70662378780E+00 -0.89188408020E+00  0.90007898023E+02  0.90000161477E+02 0.  0.
         12    1    1    2    0    0 -0.31283587693E+00 -0.70662378780E+00  0.89188408020E+00  0.11801019769E+01  0.00000000000E+00 0. -1.
         11    1    3    3    0    0  0.34778571995E+02  0.13365486093E+02  0.21603176971E+02  0.43068347356E+02  0.51100000000E-03 0. -1.
        -11    1    3    3    0    0 -0.77943964533E+01  0.37335092894E+01 -0.45705151432E+00  0.86545135064E+01  0.51100000000E-03 0.  1.
        -12    1    3    3    0    0 -0.26671339665E+02 -0.16392371595E+02 -0.22038009536E+02  0.38285037160E+02  0.00000000000E+00 0.  1.
</event>
<event>
 7    1  0.2490895E-015  0.9000748E+02  0.7816164E-02  0.1186340E+00
        -11   -1    0    0    0    0  0.00000000000E+00  0.00000000000E+00  0.45593999997E+02  0.45594000000E+02  0.51100000000E-03 0. -1.
         11   -1    0    0    0    0 -0.00000000000E+00 -0.00000000000E+00 -0.45593999997E+02  0.45594000000E+02  0.51100000000E-03 0.  1.
    9900012    2    1    2    0    0  0.63459993731E+00 -0.48181375191E+00 -0.87107721483E+00  0.90007475927E+02  0.89999733809E+02 0.  0.
         12    1    1    2    0    0 -0.63459993731E+00  0.48181375191E+00  0.87107721483E+00  0.11805240727E+01  0.00000000000E+00 0. -1.
         11    1    3    3    0    0 -0.26048243180E+01 -0.44767780702E+01  0.99548416145E+01  0.11221654221E+02  0.51100000000E-03 0. -1.
        -11    1    3    3    0    0 -0.20479134811E+02  0.29903603059E+02  0.10448203260E+02  0.37719827547E+02  0.51100000000E-03 0.  1.
         12    1    3    3    0    0  0.23718559067E+02 -0.25908638741E+02 -0.21274122090E+02  0.41065994159E+02  0.00000000000E+00 0. -1.
</event>
<event>
 7    1  0.2490895E-015  0.9000770E+02  0.7816164E-02  0.1186339E+00
        -11   -1    0    0    0    0  0.00000000000E+00  0.00000000000E+00  0.45593999997E+02  0.45594000000E+02  0.51100000000E-03 0.  1.
         11   -1    0    0    0    0 -0.00000000000E+00 -0.00000000000E+00 -0.45593999997E+02  0.45594000000E+02  0.51100000000E-03 0. -1.
    9900012    2    1    2    0    0 -0.11881821158E+00 -0.48984515065E+00  0.10672642386E+01  0.90007695381E+02  0.89999956160E+02 0.  0.
         12    1    1    2    0    0  0.11881821158E+00  0.48984515065E+00 -0.10672642386E+01  0.11803046192E+01  0.00000000000E+00 0. -1.
         11    1    3    3    0    0 -0.16240292679E+01 -0.68468386508E+01  0.36695710612E+01  0.79361465843E+01  0.51100000000E-03 0. -1.
        -11    1    3    3    0    0  0.18621205273E+02 -0.33516343589E+02  0.22594412638E+01  0.38408327853E+02  0.51100000000E-03 0.  1.
         12    1    3    3    0    0 -0.17115994217E+02  0.39873337089E+02 -0.48617480864E+01  0.43663220943E+02  0.00000000000E+00 0. -1.
</event>
<event>
 7    1  0.2490895E-015  0.9000790E+02  0.7816164E-02  0.1186339E+00
        -11   -1    0    0    0    0  0.00000000000E+00  0.00000000000E+00  0.45593999997E+02  0.45594000000E+02  0.51100000000E-03 0.  1.
         11   -1    0    0    0    0 -0.00000000000E+00 -0.00000000000E+00 -0.45593999997E+02  0.45594000000E+02  0.51100000000E-03 0. -1.
    9900012    2    1    2    0    0 -0.27652413574E+00 -0.15312680935E+00  0.11369777943E+01  0.90007901732E+02  0.90000165235E+02 0.  0.
         12    1    1    2    0    0  0.27652413574E+00  0.15312680935E+00 -0.11369777943E+01  0.11800982680E+01  0.00000000000E+00 0. -1.
         11    1    3    3    0    0 -0.66299236549E+01 -0.12076592303E+02  0.87108539153E+01  0.16299660902E+02  0.51100000000E-03 0. -1.
        -11    1    3    3    0    0 -0.11704747808E+02  0.12655815927E+02  0.28529896168E+02  0.33333553270E+02  0.51100000000E-03 0.  1.
         12    1    3    3    0    0  0.18058147327E+02 -0.73235043274E+00 -0.36103772289E+02  0.40374687560E+02  0.00000000000E+00 0. -1.
</event>
<event>
 7    1  0.3763316E-015  0.9000778E+02  0.7816164E-02  0.1186339E+00
        -11   -1    0    0    0    0  0.00000000000E+00  0.00000000000E+00  0.45593999997E+02  0.45594000000E+02  0.51100000000E-03 0. -1.
         11   -1    0    0    0    0 -0.00000000000E+00 -0.00000000000E+00 -0.45593999997E+02  0.45594000000E+02  0.51100000000E-03 0.  1.
    9900012    2    1    2    0    0 -0.83219144145E+00 -0.47746835084E+00 -0.68731155413E+00  0.90007781464E+02  0.90000043379E+02 0.  0.
         12    1    1    2    0    0  0.83219144145E+00  0.47746835084E+00  0.68731155413E+00  0.11802185364E+01  0.00000000000E+00 0. -1.
         11    1    3    3    0    0  0.71268973305E+01  0.33306663815E+00  0.38422018922E+02  0.39078832342E+02  0.51100000000E-03 0. -1.
        -11    1    3    3    0    0  0.39584533501E+01 -0.79635694847E+01  0.54438337903E+00  0.89097780773E+01  0.51100000000E-03 0.  1.
        -12    1    3    3    0    0 -0.11917542122E+02  0.71530344957E+01 -0.39653713855E+02  0.42019171044E+02  0.00000000000E+00 0.  1.
</event>
<event>
 7    1  0.2490895E-015  0.9000771E+02  0.7816164E-02  0.1186339E+00
        -11   -1    0    0    0    0  0.00000000000E+00  0.00000000000E+00  0.45593999997E+02  0.45594000000E+02  0.51100000000E-03 0.  1.
         11   -1    0    0    0    0 -0.00000000000E+00 -0.00000000000E+00 -0.45593999997E+02  0.45594000000E+02  0.51100000000E-03 0. -1.
    9900012    2    1    2    0    0 -0.51069761406E+00  0.10633028707E+01 -0.40847723780E-01  0.90007706145E+02  0.89999967066E+02 0.  0.
         12    1    1    2    0    0  0.51069761406E+00 -0.10633028707E+01  0.40847723780E-01  0.11802938551E+01  0.00000000000E+00 0. -1.
         11    1    3    3    0    0 -0.25994712734E+02 -0.21395375332E+02 -0.56116184978E+01  0.34131765822E+02  0.51100000000E-03 0. -1.
        -11    1    3    3    0    0 -0.11709287116E+02 -0.77762749059E+00  0.15482440570E+01  0.11836771908E+02  0.51100000000E-03 0.  1.
        -12    1    3    3    0    0  0.37193302236E+02  0.23236305693E+02  0.40225267171E+01  0.44039168415E+02  0.00000000000E+00 0.  1.
</event>
<event>
 7    1  0.2490895E-015  0.9000764E+02  0.7816164E-02  0.1186339E+00
        -11   -1    0    0    0    0  0.00000000000E+00  0.00000000000E+00  0.45593999997E+02  0.45594000000E+02  0.51100000000E-03 0. -1.
         11   -1    0    0    0    0 -0.00000000000E+00 -0.00000000000E+00 -0.45593999997E+02  0.45594000000E+02  0.51100000000E-03 0.  1.
    9900012    2    1    2    0    0 -0.11668642967E+01 -0.11807574356E+00 -0.13316049370E+00  0.90007641628E+02  0.89999901698E+02 0.  0.
         12    1    1    2    0    0  0.11668642967E+01  0.11807574356E+00  0.13316049370E+00  0.11803583716E+01  0.00000000000E+00 0. -1.
         11    1    3    3    0    0  0.70091890022E+01  0.57567828122E+01  0.32081508560E+01  0.96208893035E+01  0.51100000000E-03 0. -1.
        -11    1    3    3    0    0 -0.29868013698E+02  0.21233370684E+02  0.16729042323E+02  0.40284179651E+02  0.51100000000E-03 0.  1.
         12    1    3    3    0    0  0.21691960399E+02 -0.27108229240E+02 -0.20070353672E+02  0.40102572673E+02  0.00000000000E+00 0. -1.
</event>
<event>
 7    1  0.2490895E-015  0.9000778E+02  0.7816164E-02  0.1186339E+00
        -11   -1    0    0    0    0  0.00000000000E+00  0.00000000000E+00  0.45593999997E+02  0.45594000000E+02  0.51100000000E-03 0. -1.
         11   -1    0    0    0    0 -0.00000000000E+00 -0.00000000000E+00 -0.45593999997E+02  0.45594000000E+02  0.51100000000E-03 0.  1.
    9900012    2    1    2    0    0  0.80886063889E+00  0.53437237294E-01 -0.85778726711E+00  0.90007783890E+02  0.90000045837E+02 0.  0.
         12    1    1    2    0    0 -0.80886063889E+00 -0.53437237294E-01  0.85778726711E+00  0.11802161103E+01  0.00000000000E+00 0. -1.
         11    1    3    3    0    0 -0.41549398389E+00 -0.88419285290E+01 -0.48449205821E+01  0.10090866716E+02  0.51100000000E-03 0. -1.
        -11    1    3    3    0    0  0.38407688439E+02  0.53574135783E+01  0.14029329065E+02  0.41239234786E+02  0.51100000000E-03 0.  1.
         12    1    3    3    0    0 -0.37183333817E+02  0.35379521881E+01 -0.10042195750E+02  0.38677682388E+02  0.00000000000E+00 0. -1.
</event>
<event>
 7    1  0.2490895E-015  0.9000774E+02  0.7816164E-02  0.1186339E+00
        -11   -1    0    0    0    0  0.00000000000E+00  0.00000000000E+00  0.45593999997E+02  0.45594000000E+02  0.51100000000E-03 0.  1.
         11   -1    0    0    0    0 -0.00000000000E+00 -0.00000000000E+00 -0.45593999997E+02  0.45594000000E+02  0.51100000000E-03 0. -1.
    9900012    2    1    2    0    0  0.97155936616E+00  0.56538507179E+00 -0.35975249841E+00  0.90007741663E+02  0.90000003053E+02 0.  0.
         12    1    1    2    0    0 -0.97155936616E+00 -0.56538507179E+00  0.35975249841E+00  0.11802583368E+01  0.00000000000E+00 0. -1.
         11    1    3    3    0    0  0.23643615356E+02 -0.12080129599E+02 -0.26584866369E+02  0.37572665574E+02  0.51100000000E-03 0. -1.
        -11    1    3    3    0    0  0.25876657766E+01 -0.88871266734E+01 -0.12586777942E+01  0.93413759550E+01  0.51100000000E-03 0.  1.
        -12    1    3    3    0    0 -0.25259721766E+02  0.21532641345E+02  0.27483791665E+02  0.43093700134E+02  0.00000000000E+00 0.  1.
</event>
<event>
 7    1  0.2490895E-015  0.9000750E+02  0.7816164E-02  0.1186340E+00
        -11   -1    0    0    0    0  0.00000000000E+00  0.00000000000E+00  0.45593999997E+02  0.45594000000E+02  0.51100000000E-03 0.  1.
         11   -1    0    0    0    0 -0.00000000000E+00 -0.00000000000E+00 -0.45593999997E+02  0.45594000000E+02  0.51100000000E-03 0. -1.
    9900012    2    1    2    0    0 -0.98112103383E-01 -0.91280330481E+00  0.74211976241E+00  0.90007501122E+02  0.89999759337E+02 0.  0.
         12    1    1    2    0    0  0.98112103383E-01  0.91280330481E+00 -0.74211976241E+00  0.11804988775E+01  0.00000000000E+00 0. -1.
         11    1    3    3    0    0  0.49131659998E+01 -0.76938752845E+01 -0.21157116937E+01  0.93707605490E+01  0.51100000000E-03 0. -1.
        -11    1    3    3    0    0  0.32105865793E+02  0.10076034767E+02  0.20506022596E+02  0.39405710981E+02  0.51100000000E-03 0.  1.
         12    1    3    3    0    0 -0.37117143896E+02 -0.32949627876E+01 -0.17648191140E+02  0.41231029593E+02  0.00000000000E+00 0. -1.
</event>
<event>
 7    1  0.2490895E-015  0.9000756E+02  0.7816164E-02  0.1186339E+00
        -11   -1    0    0    0    0  0.00000000000E+00  0.00000000000E+00  0.45593999997E+02  0.45594000000E+02  0.51100000000E-03 0. -1.
         11   -1    0    0    0    0 -0.00000000000E+00 -0.00000000000E+00 -0.45593999997E+02  0.45594000000E+02  0.51100000000E-03 0.  1.
    9900012    2    1    2    0    0 -0.29179676697E+00 -0.11286293337E+01  0.18573614423E+00  0.90007556252E+02  0.89999815195E+02 0.  0.
         12    1    1    2    0    0  0.29179676697E+00  0.11286293337E+01 -0.18573614423E+00  0.11804437476E+01  0.00000000000E+00 0. -1.
         11    1    3    3    0    0  0.36493354516E+02  0.13621793840E+02  0.94231902997E+01  0.40076360949E+02  0.51100000000E-03 0. -1.
        -11    1    3    3    0    0 -0.45921719127E+01  0.81243393147E+01 -0.37578921516E+01  0.10060550972E+02  0.51100000000E-03 0.  1.
        -12    1    3    3    0    0 -0.32192979370E+02 -0.22874762488E+02 -0.54795620039E+01  0.39870644331E+02  0.00000000000E+00 0.  1.
</event>
<event>
 7    1  0.2490895E-015  0.9000777E+02  0.7816164E-02  0.1186339E+00
        -11   -1    0    0    0    0  0.00000000000E+00  0.00000000000E+00  0.45593999997E+02  0.45594000000E+02  0.51100000000E-03 0.  1.
         11   -1    0    0    0    0 -0.00000000000E+00 -0.00000000000E+00 -0.45593999997E+02  0.45594000000E+02  0.51100000000E-03 0. -1.
    9900012    2    1    2    0    0 -0.10277331037E+01 -0.41585543327E-01  0.57877177860E+00  0.90007770589E+02  0.90000032361E+02 0.  0.
         12    1    1    2    0    0  0.10277331037E+01  0.41585543327E-01 -0.57877177860E+00  0.11802294106E+01  0.00000000000E+00 0. -1.
         11    1    3    3    0    0 -0.13587821286E+01 -0.24545927449E+02 -0.24693311518E+02  0.34844059424E+02  0.51100000000E-03 0. -1.
        -11    1    3    3    0    0 -0.43979061922E+01 -0.20574386807E+01 -0.97871025235E+01  0.10925292164E+02  0.51100000000E-03 0.  1.
        -12    1    3    3    0    0  0.47289552171E+01  0.26561780587E+02  0.35059185820E+02  0.44238419001E+02  0.00000000000E+00 0.  1.
</event>
<event>
 7    1  0.2490895E-015  0.9000772E+02  0.7816164E-02  0.1186339E+00
        -11   -1    0    0    0    0  0.00000000000E+00  0.00000000000E+00  0.45593999997E+02  0.45594000000E+02  0.51100000000E-03 0. -1.
         11   -1    0    0    0    0 -0.00000000000E+00 -0.00000000000E+00 -0.45593999997E+02  0.45594000000E+02  0.51100000000E-03 0.  1.
    9900012    2    1    2    0    0 -0.52592373564E+00 -0.27148395639E+00 -0.10211593859E+01  0.90007717913E+02  0.89999978989E+02 0.  0.
         12    1    1    2    0    0  0.52592373564E+00  0.27148395639E+00  0.10211593859E+01  0.11802820874E+01  0.00000000000E+00 0. -1.
         11    1    3    3    0    0  0.13984589924E+02 -0.33049590065E+02 -0.56179616284E+01  0.36323623883E+02  0.51100000000E-03 0. -1.
        -11    1    3    3    0    0  0.63465887839E+01 -0.64561983104E+01  0.76823177742E+00  0.90858057507E+01  0.51100000000E-03 0.  1.
        -12    1    3    3    0    0 -0.20857102444E+02  0.39234304419E+02  0.38285704650E+01  0.44598288279E+02  0.00000000000E+00 0.  1.
</event>
<event>
 7    1  0.2490895E-015  0.9000770E+02  0.7816164E-02  0.1186339E+00
        -11   -1    0    0    0    0  0.00000000000E+00  0.00000000000E+00  0.45593999997E+02  0.45594000000E+02  0.51100000000E-03 0. -1.
         11   -1    0    0    0    0 -0.00000000000E+00 -0.00000000000E+00 -0.45593999997E+02  0.45594000000E+02  0.51100000000E-03 0.  1.
    9900012    2    1    2    0    0  0.71657176368E+00  0.93744868889E+00 -0.28710771711E-01  0.90007699426E+02  0.89999960258E+02 0.  0.
         12    1    1    2    0    0 -0.71657176368E+00 -0.93744868889E+00  0.28710771711E-01  0.11803005741E+01  0.00000000000E+00 0. -1.
         11    1    3    3    0    0 -0.94258342714E+00  0.85025165563E+01  0.37225397178E+01  0.93294455098E+01  0.51100000000E-03 0. -1.
        -11    1    3    3    0    0 -0.32786366520E+02  0.11330910573E+02  0.14200444592E+02  0.37483169434E+02  0.51100000000E-03 0.  1.
         12    1    3    3    0    0  0.34445521711E+02 -0.18895978440E+02 -0.17951695081E+02  0.43195084482E+02  0.00000000000E+00 0. -1.
</event>
<event>
 7    1  0.2490895E-015  0.9000771E+02  0.7816164E-02  0.1186339E+00
        -11   -1    0    0    0    0  0.00000000000E+00  0.00000000000E+00  0.45593999997E+02  0.45594000000E+02  0.51100000000E-03 0. -1.
         11   -1    0    0    0    0 -0.00000000000E+00 -0.00000000000E+00 -0.45593999997E+02  0.45594000000E+02  0.51100000000E-03 0.  1.
    9900012    2    1    2    0    0  0.71255540273E+00 -0.93408619646E+00 -0.11329606387E+00  0.90007708416E+02  0.89999969367E+02 0.  0.
         12    1    1    2    0    0 -0.71255540273E+00  0.93408619646E+00  0.11329606387E+00  0.11802915837E+01  0.00000000000E+00 0. -1.
         11    1    3    3    0    0 -0.33961056127E+01 -0.11058761458E+02 -0.74144697370E+00  0.11592216449E+02  0.51100000000E-03 0. -1.
        -11    1    3    3    0    0 -0.31196581106E+02  0.15419658589E+02 -0.16852700125E+02  0.38665308035E+02  0.51100000000E-03 0.  1.
         12    1    3    3    0    0  0.35305242122E+02 -0.52949833266E+01  0.17480851035E+02  0.39750183932E+02  0.00000000000E+00 0. -1.
</event>
<event>
 7    1  0.2490895E-015  0.9000773E+02  0.7816164E-02  0.1186339E+00
        -11   -1    0    0    0    0  0.00000000000E+00  0.00000000000E+00  0.45593999997E+02  0.45594000000E+02  0.51100000000E-03 0. -1.
         11   -1    0    0    0    0 -0.00000000000E+00 -0.00000000000E+00 -0.45593999997E+02  0.45594000000E+02  0.51100000000E-03 0.  1.
    9900012    2    1    2    0    0 -0.21413912983E+00 -0.10859726224E+01 -0.40969278581E+00  0.90007728725E+02  0.89999989944E+02 0.  0.
         12    1    1    2    0    0  0.21413912983E+00  0.10859726224E+01  0.40969278581E+00  0.11802712748E+01  0.00000000000E+00 0. -1.
         11    1    3    3    0    0  0.59313175900E+01 -0.78398909942E+01  0.62050448803E+00  0.98503525437E+01  0.51100000000E-03 0. -1.
        -11    1    3    3    0    0  0.18039015590E+02 -0.12087383776E+02 -0.30627601084E+02  0.37544119092E+02  0.51100000000E-03 0.  1.
         12    1    3    3    0    0 -0.24184472309E+02  0.18841302147E+02  0.29597403810E+02  0.42613257090E+02  0.00000000000E+00 0. -1.
</event>
<event>
 7    1  0.2490895E-015  0.9000778E+02  0.7816164E-02  0.1186339E+00
        -11   -1    0    0    0    0  0.00000000000E+00  0.00000000000E+00  0.45593999997E+02  0.45594000000E+02  0.51100000000E-03 0. -1.
         11   -1    0    0    0    0 -0.00000000000E+00 -0.00000000000E+00 -0.45593999997E+02  0.45594000000E+02  0.51100000000E-03 0.  1.
    9900012    2    1    2    0    0 -0.36956603255E+00  0.56873022796E+00 -0.96585508024E+00  0.90007784274E+02  0.90000046226E+02 0.  0.
         12    1    1    2    0    0  0.36956603255E+00 -0.56873022796E+00  0.96585508024E+00  0.11802157263E+01  0.00000000000E+00 0. -1.
         11    1    3    3    0    0 -0.43267387966E+00 -0.98230881700E+01 -0.21689171981E+01  0.10068985548E+02  0.51100000000E-03 0. -1.
        -11    1    3    3    0    0  0.45155601234E+01 -0.20117840074E+02 -0.29784674860E+02  0.36224917243E+02  0.51100000000E-03 0.  1.
         12    1    3    3    0    0 -0.44524522763E+01  0.30509658472E+02  0.30987736978E+02  0.43713881483E+02  0.00000000000E+00 0. -1.
</event>
<event>
 7    1  0.2490895E-015  0.9000802E+02  0.7816164E-02  0.1186338E+00
        -11   -1    0    0    0    0  0.00000000000E+00  0.00000000000E+00  0.45593999997E+02  0.45594000000E+02  0.51100000000E-03 0.  1.
         11   -1    0    0    0    0 -0.00000000000E+00 -0.00000000000E+00 -0.45593999997E+02  0.45594000000E+02  0.51100000000E-03 0. -1.
    9900012    2    1    2    0    0  0.58471342900E+00  0.61028105536E+00  0.82341881363E+00  0.90008020634E+02  0.90000285706E+02 0.  0.
         12    1    1    2    0    0 -0.58471342900E+00 -0.61028105536E+00 -0.82341881363E+00  0.11799793656E+01  0.00000000000E+00 0. -1.
         11    1    3    3    0    0 -0.12521761170E+02 -0.30540248446E+02 -0.13869201791E+02  0.35803017142E+02  0.51100000000E-03 0. -1.
        -11    1    3    3    0    0 -0.31784601075E+01 -0.83350762862E+01 -0.33414090033E+00  0.89267998608E+01  0.51100000000E-03 0.  1.
        -12    1    3    3    0    0  0.16284934707E+02  0.39485605787E+02  0.15026761505E+02  0.45278203631E+02  0.00000000000E+00 0.  1.
</event>
<event>
 7    1  0.2490895E-015  0.9000776E+02  0.7816164E-02  0.1186339E+00
        -11   -1    0    0    0    0  0.00000000000E+00  0.00000000000E+00  0.45593999997E+02  0.45594000000E+02  0.51100000000E-03 0.  1.
         11   -1    0    0    0    0 -0.00000000000E+00 -0.00000000000E+00 -0.45593999997E+02  0.45594000000E+02  0.51100000000E-03 0. -1.
    9900012    2    1    2    0    0 -0.74702628502E+00  0.83751672739E+00  0.36535347302E+00  0.90007760321E+02  0.90000021957E+02 0.  0.
         12    1    1    2    0    0  0.74702628502E+00 -0.83751672739E+00 -0.36535347302E+00  0.11802396788E+01  0.00000000000E+00 0. -1.
         11    1    3    3    0    0  0.56251251748E+01 -0.11629351849E+01 -0.80636770888E+01  0.99003706966E+01  0.51100000000E-03 0. -1.
        -11    1    3    3    0    0  0.29616858309E+02  0.10120292763E+02  0.24616276407E+02  0.39818835820E+02  0.51100000000E-03 0.  1.
         12    1    3    3    0    0 -0.35989009769E+02 -0.81198408503E+01 -0.16187245845E+02  0.40288553804E+02  0.00000000000E+00 0. -1.
</event>
<event>
 7    1  0.2490895E-015  0.9000776E+02  0.7816164E-02  0.1186339E+00
        -11   -1    0    0    0    0  0.00000000000E+00  0.00000000000E+00  0.45593999997E+02  0.45594000000E+02  0.51100000000E-03 0.  1.
         11   -1    0    0    0    0 -0.00000000000E+00 -0.00000000000E+00 -0.45593999997E+02  0.45594000000E+02  0.51100000000E-03 0. -1.
    9900012    2    1    2    0    0 -0.21601998508E+00 -0.11502250198E+01  0.15262349922E+00  0.90007755889E+02  0.90000017466E+02 0.  0.
         12    1    1    2    0    0  0.21601998508E+00  0.11502250198E+01 -0.15262349922E+00  0.11802441114E+01  0.00000000000E+00 0. -1.
         11    1    3    3    0    0 -0.55911425336E+01 -0.38054791544E+02 -0.13998870786E+02  0.40931606587E+02  0.51100000000E-03 0. -1.
        -11    1    3    3    0    0 -0.17032376969E+01 -0.35329900807E+01 -0.26341918793E+01  0.47246168819E+01  0.51100000000E-03 0.  1.
        -12    1    3    3    0    0  0.70783602454E+01  0.40437556605E+02  0.16785686165E+02  0.44351532419E+02  0.00000000000E+00 0.  1.
</event>
<event>
 7    1  0.2490895E-015  0.9000773E+02  0.7816164E-02  0.1186339E+00
        -11   -1    0    0    0    0  0.00000000000E+00  0.00000000000E+00  0.45593999997E+02  0.45594000000E+02  0.51100000000E-03 0.  1.
         11   -1    0    0    0    0 -0.00000000000E+00 -0.00000000000E+00 -0.45593999997E+02  0.45594000000E+02  0.51100000000E-03 0. -1.
    9900012    2    1    2    0    0 -0.72549794901E+00  0.34092216980E+00  0.86629693512E+00  0.90007726481E+02  0.89999987671E+02 0.  0.
         12    1    1    2    0    0  0.72549794901E+00 -0.34092216980E+00 -0.86629693512E+00  0.11802735190E+01  0.00000000000E+00 0. -1.
         11    1    3    3    0    0  0.92278838689E+01  0.30603560483E+02  0.22382751399E+02  0.39022036279E+02  0.51100000000E-03 0. -1.
        -11    1    3    3    0    0 -0.86987677697E+01  0.49681846586E+01 -0.69228526309E+00  0.10041448036E+02  0.51100000000E-03 0.  1.
        -12    1    3    3    0    0 -0.12546140482E+01 -0.35230822972E+02 -0.20824169200E+02  0.40944242166E+02  0.00000000000E+00 0.  1.
</event>
<event>
 7    1  0.3708333E-015  0.9000776E+02  0.7816164E-02  0.1186339E+00
        -11   -1    0    0    0    0  0.00000000000E+00  0.00000000000E+00  0.45593999997E+02  0.45594000000E+02  0.51100000000E-03 0.  1.
         11   -1    0    0    0    0 -0.00000000000E+00 -0.00000000000E+00 -0.45593999997E+02  0.45594000000E+02  0.51100000000E-03 0. -1.
    9900012    2    1    2    0    0  0.94679979640E+00 -0.43244651940E+00  0.55634847106E+00  0.90007761267E+02  0.90000022915E+02 0.  0.
         12    1    1    2    0    0 -0.94679979640E+00  0.43244651940E+00 -0.55634847106E+00  0.11802387334E+01  0.00000000000E+00 0. -1.
         11    1    3    3    0    0  0.51007751947E+01  0.16222778963E+02 -0.37976023465E+02  0.41609792397E+02  0.51100000000E-03 0. -1.
        -11    1    3    3    0    0  0.78069062618E+00  0.60232945175E+01  0.82390031606E+01  0.10235757326E+02  0.51100000000E-03 0.  1.
        -12    1    3    3    0    0 -0.49346660245E+01 -0.22678520000E+02  0.30293368775E+02  0.38162211544E+02  0.00000000000E+00 0.  1.
</event>
<event>
 7    1  0.2490895E-015  0.9000774E+02  0.7816164E-02  0.1186339E+00
        -11   -1    0    0    0    0  0.00000000000E+00  0.00000000000E+00  0.45593999997E+02  0.45594000000E+02  0.51100000000E-03 0.  1.
         11   -1    0    0    0    0 -0.00000000000E+00 -0.00000000000E+00 -0.45593999997E+02  0.45594000000E+02  0.51100000000E-03 0. -1.
    9900012    2    1    2    0    0 -0.46872262519E+00 -0.98744241965E+00  0.44528473053E+00  0.90007736503E+02  0.89999997825E+02 0.  0.
         12    1    1    2    0    0  0.46872262519E+00  0.98744241965E+00 -0.44528473053E+00  0.11802634972E+01  0.00000000000E+00 0. -1.
         11    1    3    3    0    0  0.55013967557E+01 -0.79235742728E+01 -0.63310439163E+01  0.11538219657E+02  0.51100000000E-03 0. -1.
        -11    1    3    3    0    0  0.12393735648E+02 -0.28280965309E+02 -0.13704821460E+02  0.33782241098E+02  0.51100000000E-03 0.  1.
         12    1    3    3    0    0 -0.18363855029E+02  0.35217097162E+02  0.20481150107E+02  0.44687275748E+02  0.00000000000E+00 0. -1.
</event>
<event>
 7    1  0.2490895E-015  0.9000780E+02  0.7816164E-02  0.1186339E+00
        -11   -1    0    0    0    0  0.00000000000E+00  0.00000000000E+00  0.45593999997E+02  0.45594000000E+02  0.51100000000E-03 0. -1.
         11   -1    0    0    0    0 -0.00000000000E+00 -0.00000000000E+00 -0.45593999997E+02  0.45594000000E+02  0.51100000000E-03 0.  1.
    9900012    2    1    2    0    0  0.61431427690E+00 -0.33957440133E+00 -0.94877273048E+00  0.90007804042E+02  0.90000066255E+02 0.  0.
         12    1    1    2    0    0 -0.61431427690E+00  0.33957440133E+00  0.94877273048E+00  0.11801959579E+01  0.00000000000E+00 0. -1.
         11    1    3    3    0    0 -0.34113145658E+01 -0.26691450413E+02 -0.25333328539E+02  0.36957382582E+02  0.51100000000E-03 0. -1.
        -11    1    3    3    0    0 -0.76185336815E+01 -0.46290576406E+01 -0.36919452100E+01  0.96488698712E+01  0.51100000000E-03 0.  1.
        -12    1    3    3    0    0  0.11644162524E+02  0.30980933652E+02  0.28076501018E+02  0.43401551589E+02  0.00000000000E+00 0.  1.
</event>
<event>
 7    1  0.2490895E-015  0.9000774E+02  0.7816164E-02  0.1186339E+00
        -11   -1    0    0    0    0  0.00000000000E+00  0.00000000000E+00  0.45593999997E+02  0.45594000000E+02  0.51100000000E-03 0.  1.
         11   -1    0    0    0    0 -0.00000000000E+00 -0.00000000000E+00 -0.45593999997E+02  0.45594000000E+02  0.51100000000E-03 0. -1.
    9900012    2    1    2    0    0  0.54152380368E+00  0.54636812633E+00  0.89511862408E+00  0.90007744303E+02  0.90000005728E+02 0.  0.
         12    1    1    2    0    0 -0.54152380368E+00 -0.54636812633E+00 -0.89511862408E+00  0.11802556971E+01  0.00000000000E+00 0. -1.
         11    1    3    3    0    0 -0.24017149234E+02  0.16275540389E+02 -0.33843245236E+01  0.29209079497E+02  0.51100000000E-03 0. -1.
        -11    1    3    3    0    0 -0.27756943276E+01  0.16620878229E+02 -0.47230088048E+01  0.17500425267E+02  0.51100000000E-03 0.  1.
        -12    1    3    3    0    0  0.27334367366E+02 -0.32350050491E+02  0.90024519524E+01  0.43298239539E+02  0.00000000000E+00 0.  1.
</event>
<event>
 7    1  0.2490895E-015  0.9000784E+02  0.7816164E-02  0.1186339E+00
        -11   -1    0    0    0    0  0.00000000000E+00  0.00000000000E+00  0.45593999997E+02  0.45594000000E+02  0.51100000000E-03 0. -1.
         11   -1    0    0    0    0 -0.00000000000E+00 -0.00000000000E+00 -0.45593999997E+02  0.45594000000E+02  0.51100000000E-03 0.  1.
    9900012    2    1    2    0    0  0.11558936054E+01  0.92494972560E-01  0.21940588404E+00  0.90007837177E+02  0.90000099828E+02 0.  0.
         12    1    1    2    0    0 -0.11558936054E+01 -0.92494972560E-01 -0.21940588404E+00  0.11801628231E+01  0.00000000000E+00 0. -1.
         11    1    3    3    0    0 -0.47761670505E+01  0.27776440591E+01  0.11501780672E+02  0.12760017128E+02  0.51100000000E-03 0. -1.
        -11    1    3    3    0    0 -0.17779148221E+02  0.29825913873E+02 -0.12729221165E+02  0.36982648926E+02  0.51100000000E-03 0.  1.
         12    1    3    3    0    0  0.23711208877E+02 -0.32511062960E+02  0.14468463768E+01  0.40265171124E+02  0.00000000000E+00 0. -1.
</event>
<event>
 7    1  0.2490895E-015  0.9000771E+02  0.7816164E-02  0.1186339E+00
        -11   -1    0    0    0    0  0.00000000000E+00  0.00000000000E+00  0.45593999997E+02  0.45594000000E+02  0.51100000000E-03 0.  1.
         11   -1    0    0    0    0 -0.00000000000E+00 -0.00000000000E+00 -0.45593999997E+02  0.45594000000E+02  0.51100000000E-03 0. -1.
    9900012    2    1    2    0    0  0.71810237831E+00  0.76967553425E+00  0.53385712193E+00  0.90007714068E+02  0.89999975094E+02 0.  0.
         12    1    1    2    0    0 -0.71810237831E+00 -0.76967553425E+00 -0.53385712193E+00  0.11802859316E+01  0.00000000000E+00 0. -1.
         11    1    3    3    0    0 -0.30446252629E+02  0.19060592332E+02 -0.16774304989E+01  0.35959619750E+02  0.51100000000E-03 0. -1.
        -11    1    3    3    0    0 -0.61414461778E+01  0.66778190084E+01 -0.40327451195E+00  0.90814788695E+01  0.51100000000E-03 0.  1.
        -12    1    3    3    0    0  0.37305801185E+02 -0.24968735806E+02  0.26145621328E+01  0.44966615449E+02  0.00000000000E+00 0.  1.
</event>
<event>
 7    1  0.2490895E-015  0.9000783E+02  0.7816164E-02  0.1186339E+00
        -11   -1    0    0    0    0  0.00000000000E+00  0.00000000000E+00  0.45593999997E+02  0.45594000000E+02  0.51100000000E-03 0.  1.
         11   -1    0    0    0    0 -0.00000000000E+00 -0.00000000000E+00 -0.45593999997E+02  0.45594000000E+02  0.51100000000E-03 0. -1.
    9900012    2    1    2    0    0  0.69691985611E-01  0.38598358366E+00  0.11130845079E+01  0.90007831613E+02  0.90000094190E+02 0.  0.
         12    1    1    2    0    0 -0.69691985611E-01 -0.38598358366E+00 -0.11130845079E+01  0.11801683869E+01  0.00000000000E+00 0. -1.
         11    1    3    3    0    0  0.22724225395E+02  0.33858148584E+02  0.24311320526E+01  0.40849419196E+02  0.51100000000E-03 0. -1.
        -11    1    3    3    0    0 -0.67280674238E+01  0.27816639515E+01 -0.57991592673E+01  0.93077813719E+01  0.51100000000E-03 0.  1.
        -12    1    3    3    0    0 -0.15926465985E+02 -0.36253828952E+02  0.44811117225E+01  0.39850631045E+02  0.00000000000E+00 0.  1.
</event>
<event>
 7    1  0.2490895E-015  0.9000775E+02  0.7816164E-02  0.1186339E+00
        -11   -1    0    0    0    0  0.00000000000E+00  0.00000000000E+00  0.45593999997E+02  0.45594000000E+02  0.51100000000E-03 0. -1.
         11   -1    0    0    0    0 -0.00000000000E+00 -0.00000000000E+00 -0.45593999997E+02  0.45594000000E+02  0.51100000000E-03 0.  1.
    9900012    2    1    2    0    0 -0.14297341774E+00 -0.99860457685E+00 -0.61264470623E+00  0.90007751706E+02  0.90000013229E+02 0.  0.
         12    1    1    2    0    0  0.14297341774E+00  0.99860457685E+00  0.61264470623E+00  0.11802482939E+01  0.00000000000E+00 0. -1.
         11    1    3    3    0    0  0.35730773750E+02  0.19726311095E+02  0.17983893796E+01  0.40854005272E+02  0.51100000000E-03 0. -1.
        -11    1    3    3    0    0 -0.98943620421E+01  0.55205862952E+01 -0.44395759120E+01  0.12169022467E+02  0.51100000000E-03 0.  1.
        -12    1    3    3    0    0 -0.25979385125E+02 -0.26245501967E+02  0.20285418261E+01  0.36984723967E+02  0.00000000000E+00 0.  1.
</event>
<event>
 7    1  0.2490895E-015  0.9000763E+02  0.7816164E-02  0.1186339E+00
        -11   -1    0    0    0    0  0.00000000000E+00  0.00000000000E+00  0.45593999997E+02  0.45594000000E+02  0.51100000000E-03 0. -1.
         11   -1    0    0    0    0 -0.00000000000E+00 -0.00000000000E+00 -0.45593999997E+02  0.45594000000E+02  0.51100000000E-03 0.  1.
    9900012    2    1    2    0    0 -0.63450813789E+00  0.84737781021E+00 -0.52212244228E+00  0.90007634982E+02  0.89999894964E+02 0.  0.
         12    1    1    2    0    0  0.63450813789E+00 -0.84737781021E+00  0.52212244228E+00  0.11803650177E+01  0.00000000000E+00 0. -1.
         11    1    3    3    0    0 -0.35388442625E+02 -0.14710618101E+02  0.92050031645E+00  0.38335251107E+02  0.51100000000E-03 0. -1.
        -11    1    3    3    0    0 -0.55802250947E+01  0.66659462116E+01  0.47526312335E+01  0.99076361917E+01  0.51100000000E-03 0.  1.
        -12    1    3    3    0    0  0.40334159582E+02  0.88920496997E+01 -0.61952539923E+01  0.41764747684E+02  0.00000000000E+00 0.  1.
</event>
<event>
 7    1  0.2490895E-015  0.9000752E+02  0.7816164E-02  0.1186339E+00
        -11   -1    0    0    0    0  0.00000000000E+00  0.00000000000E+00  0.45593999997E+02  0.45594000000E+02  0.51100000000E-03 0. -1.
         11   -1    0    0    0    0 -0.00000000000E+00 -0.00000000000E+00 -0.45593999997E+02  0.45594000000E+02  0.51100000000E-03 0.  1.
    9900012    2    1    2    0    0 -0.43544777036E-01  0.53048804667E+00 -0.10536656799E+01  0.90007523367E+02  0.89999781876E+02 0.  0.
         12    1    1    2    0    0  0.43544777036E-01 -0.53048804667E+00  0.10536656799E+01  0.11804766326E+01  0.00000000000E+00 0. -1.
         11    1    3    3    0    0 -0.81014650645E+01  0.54554472115E+01 -0.27596575127E+00  0.97709670875E+01  0.51100000000E-03 0. -1.
        -11    1    3    3    0    0 -0.15211579717E+01 -0.10392623316E+02 -0.39033773329E+02  0.40422221630E+02  0.51100000000E-03 0.  1.
         12    1    3    3    0    0  0.95790782591E+01  0.54676641512E+01  0.38256073400E+02  0.39814334650E+02  0.00000000000E+00 0. -1.
</event>
<event>
 7    1  0.2490895E-015  0.9000777E+02  0.7816164E-02  0.1186339E+00
        -11   -1    0    0    0    0  0.00000000000E+00  0.00000000000E+00  0.45593999997E+02  0.45594000000E+02  0.51100000000E-03 0. -1.
         11   -1    0    0    0    0 -0.00000000000E+00 -0.00000000000E+00 -0.45593999997E+02  0.45594000000E+02  0.51100000000E-03 0.  1.
    9900012    2    1    2    0    0  0.54953424430E+00 -0.90859150668E+00  0.51519357466E+00  0.90007766620E+02  0.90000028339E+02 0.  0.
         12    1    1    2    0    0 -0.54953424430E+00  0.90859150668E+00 -0.51519357466E+00  0.11802333799E+01  0.00000000000E+00 0. -1.
         11    1    3    3    0    0 -0.19231874347E+02  0.14606496000E+02  0.28501567486E+02  0.37357115329E+02  0.51100000000E-03 0. -1.
        -11    1    3    3    0    0 -0.10118355651E+02  0.91037217709E+00 -0.38636917521E+01  0.10869131189E+02  0.51100000000E-03 0.  1.
        -12    1    3    3    0    0  0.29899764242E+02 -0.16425459683E+02 -0.24122682159E+02  0.41781520103E+02  0.00000000000E+00 0.  1.
</event>
<event>
 7    1  0.2490895E-015  0.9000781E+02  0.7816164E-02  0.1186339E+00
        -11   -1    0    0    0    0  0.00000000000E+00  0.00000000000E+00  0.45593999997E+02  0.45594000000E+02  0.51100000000E-03 0.  1.
         11   -1    0    0    0    0 -0.00000000000E+00 -0.00000000000E+00 -0.45593999997E+02  0.45594000000E+02  0.51100000000E-03 0. -1.
    9900012    2    1    2    0    0 -0.66808287304E+00 -0.58952098049E+00  0.77393684852E+00  0.90007810203E+02  0.90000072498E+02 0.  0.
         12    1    1    2    0    0  0.66808287304E+00  0.58952098049E+00 -0.77393684852E+00  0.11801897971E+01  0.00000000000E+00 0. -1.
         11    1    3    3    0    0  0.89701168704E+01 -0.19086594169E+02 -0.36207225927E+02  0.41901363740E+02  0.51100000000E-03 0. -1.
        -11    1    3    3    0    0  0.48737698252E+01  0.88838006687E+01  0.41574966601E+01  0.10952640110E+02  0.51100000000E-03 0.  1.
        -12    1    3    3    0    0 -0.14511969569E+02  0.96132725203E+01  0.32823666115E+02  0.37153806354E+02  0.00000000000E+00 0.  1.
</event>
<event>
 7    1  0.2798163E-015  0.9000754E+02  0.7816164E-02  0.1186339E+00
        -11   -1    0    0    0    0  0.00000000000E+00  0.00000000000E+00  0.45593999997E+02  0.45594000000E+02  0.51100000000E-03 0. -1.
         11   -1    0    0    0    0 -0.00000000000E+00 -0.00000000000E+00 -0.45593999997E+02  0.45594000000E+02  0.51100000000E-03 0.  1.
    9900012    2    1    2    0    0  0.29499951340E+00 -0.99211549120E+00 -0.56758954028E+00  0.90007544263E+02  0.89999803047E+02 0.  0.
         12    1    1    2    0    0 -0.29499951340E+00  0.99211549120E+00  0.56758954028E+00  0.11804557370E+01  0.00000000000E+00 0. -1.
         11    1    3    3    0    0  0.16682711784E+02  0.14653901831E+02  0.31860418191E+02  0.38834726198E+02  0.51100000000E-03 0. -1.
        -11    1    3    3    0    0 -0.55216898759E+01 -0.37613900588E+01  0.63293965113E+01  0.92031719923E+01  0.51100000000E-03 0.  1.
        -12    1    3    3    0    0 -0.10866022395E+02 -0.11884627263E+02 -0.38757404242E+02  0.41969646073E+02  0.00000000000E+00 0.  1.
</event>
<event>
 7    1  0.2490895E-015  0.9000767E+02  0.7816164E-02  0.1186339E+00
        -11   -1    0    0    0    0  0.00000000000E+00  0.00000000000E+00  0.45593999997E+02  0.45594000000E+02  0.51100000000E-03 0.  1.
         11   -1    0    0    0    0 -0.00000000000E+00 -0.00000000000E+00 -0.45593999997E+02  0.45594000000E+02  0.51100000000E-03 0. -1.
    9900012    2    1    2    0    0  0.11364670926E+01  0.15979570997E+00  0.27585928975E+00  0.90007665103E+02  0.89999925482E+02 0.  0.
         12    1    1    2    0    0 -0.11364670926E+01 -0.15979570997E+00 -0.27585928975E+00  0.11803348971E+01  0.00000000000E+00 0. -1.
         11    1    3    3    0    0  0.30401918980E+02 -0.54717034010E+01 -0.22720813845E+02  0.38346467866E+02  0.51100000000E-03 0. -1.
        -11    1    3    3    0    0 -0.34697256793E+01 -0.71816937908E+01 -0.66075268946E+01  0.10357370995E+02  0.51100000000E-03 0.  1.
        -12    1    3    3    0    0 -0.25795726208E+02  0.12813192902E+02  0.29604200029E+02  0.41303826243E+02  0.00000000000E+00 0.  1.
</event>
<event>
 7    1  0.2490895E-015  0.9000777E+02  0.7816164E-02  0.1186339E+00
        -11   -1    0    0    0    0  0.00000000000E+00  0.00000000000E+00  0.45593999997E+02  0.45594000000E+02  0.51100000000E-03 0.  1.
         11   -1    0    0    0    0 -0.00000000000E+00 -0.00000000000E+00 -0.45593999997E+02  0.45594000000E+02  0.51100000000E-03 0. -1.
    9900012    2    1    2    0    0  0.44741495814E+00  0.13534466209E+00  0.10837144256E+01  0.90007773209E+02  0.90000035015E+02 0.  0.
         12    1    1    2    0    0 -0.44741495814E+00 -0.13534466209E+00 -0.10837144256E+01  0.11802267912E+01  0.00000000000E+00 0. -1.
         11    1    3    3    0    0  0.82368523888E+01  0.19373867230E+01  0.44659459247E+01  0.95678564921E+01  0.51100000000E-03 0. -1.
        -11    1    3    3    0    0 -0.11834097020E+02 -0.28140016777E+02 -0.29982555291E+02  0.42788550086E+02  0.51100000000E-03 0.  1.
         12    1    3    3    0    0  0.40446595889E+01  0.26337974716E+02  0.26600323791E+02  0.37651366630E+02  0.00000000000E+00 0. -1.
</event>
<event>
 7    1  0.2490895E-015  0.9000775E+02  0.7816164E-02  0.1186339E+00
        -11   -1    0    0    0    0  0.00000000000E+00  0.00000000000E+00  0.45593999997E+02  0.45594000000E+02  0.51100000000E-03 0. -1.
         11   -1    0    0    0    0 -0.00000000000E+00 -0.00000000000E+00 -0.45593999997E+02  0.45594000000E+02  0.51100000000E-03 0.  1.
    9900012    2    1    2    0    0  0.25040991760E+00 -0.28520244545E+00 -0.11175612594E+01  0.90007750564E+02  0.90000012072E+02 0.  0.
         12    1    1    2    0    0 -0.25040991760E+00  0.28520244545E+00  0.11175612594E+01  0.11802494356E+01  0.00000000000E+00 0. -1.
         11    1    3    3    0    0 -0.27146512382E+01  0.98476728244E+01 -0.63140924644E+00  0.10234484320E+02  0.51100000000E-03 0. -1.
        -11    1    3    3    0    0 -0.18753902084E+02  0.19277330321E+02 -0.24213110262E+02  0.36188382341E+02  0.51100000000E-03 0.  1.
         12    1    3    3    0    0  0.21718963239E+02 -0.29410205591E+02  0.23726958249E+02  0.43584883903E+02  0.00000000000E+00 0. -1.
</event>
<event>
 7    1  0.2490895E-015  0.9000756E+02  0.7816164E-02  0.1186339E+00
        -11   -1    0    0    0    0  0.00000000000E+00  0.00000000000E+00  0.45593999997E+02  0.45594000000E+02  0.51100000000E-03 0.  1.
         11   -1    0    0    0    0 -0.00000000000E+00 -0.00000000000E+00 -0.45593999997E+02  0.45594000000E+02  0.51100000000E-03 0. -1.
    9900012    2    1    2    0    0 -0.11469535804E+00 -0.10122413725E+01  0.59635622954E+00  0.90007564329E+02  0.89999823378E+02 0.  0.
         12    1    1    2    0    0  0.11469535804E+00  0.10122413725E+01 -0.59635622954E+00  0.11804356712E+01  0.00000000000E+00 0. -1.
         11    1    3    3    0    0  0.43970980734E+01  0.74779448910E+01  0.80067979239E+00  0.87117862492E+01  0.51100000000E-03 0. -1.
        -11    1    3    3    0    0  0.35587658267E+02  0.55511096754E+01 -0.10619818656E+02  0.37550989176E+02  0.51100000000E-03 0.  1.
         12    1    3    3    0    0 -0.40099451699E+02 -0.14041295939E+02  0.10415495093E+02  0.43744788903E+02  0.00000000000E+00 0. -1.
</event>
<event>
 7    1  0.2490895E-015  0.9000738E+02  0.7816164E-02  0.1186340E+00
        -11   -1    0    0    0    0  0.00000000000E+00  0.00000000000E+00  0.45593999997E+02  0.45594000000E+02  0.51100000000E-03 0. -1.
         11   -1    0    0    0    0 -0.00000000000E+00 -0.00000000000E+00 -0.45593999997E+02  0.45594000000E+02  0.51100000000E-03 0.  1.
    9900012    2    1    2    0    0  0.68599546076E+00  0.43466230950E+00 -0.85693720317E+00  0.90007380474E+02  0.89999637095E+02 0.  0.
         12    1    1    2    0    0 -0.68599546076E+00 -0.43466230950E+00  0.85693720317E+00  0.11806195262E+01  0.00000000000E+00 0. -1.
         11    1    3    3    0    0 -0.34574613742E+02  0.24211436806E+02  0.40274851038E+01  0.42400686600E+02  0.51100000000E-03 0. -1.
        -11    1    3    3    0    0  0.12257371093E+02 -0.88667928908E+00 -0.85173184725E+01  0.14952393136E+02  0.51100000000E-03 0.  1.
        -12    1    3    3    0    0  0.23003238110E+02 -0.22890095208E+02  0.36328961655E+01  0.32654300738E+02  0.00000000000E+00 0.  1.
</event>
<event>
 7    1  0.2490895E-015  0.9000845E+02  0.7816164E-02  0.1186338E+00
        -11   -1    0    0    0    0  0.00000000000E+00  0.00000000000E+00  0.45593999997E+02  0.45594000000E+02  0.51100000000E-03 0.  1.
         11   -1    0    0    0    0 -0.00000000000E+00 -0.00000000000E+00 -0.45593999997E+02  0.45594000000E+02  0.51100000000E-03 0. -1.
    9900012    2    1    2    0    0 -0.11676535510E+01 -0.15351354005E+00  0.66014994983E-01  0.90008449576E+02  0.90000720308E+02 0.  0.
         12    1    1    2    0    0  0.11676535510E+01  0.15351354005E+00 -0.66014994983E-01  0.11795504236E+01  0.00000000000E+00 0. -1.
         11    1    3    3    0    0  0.25664660649E+02  0.31168924088E+02 -0.85607253737E+01  0.41273025746E+02  0.51100000000E-03 0. -1.
        -11    1    3    3    0    0  0.36109301567E+01 -0.71047195189E+01 -0.23616609643E+01  0.83122378942E+01  0.51100000000E-03 0.  1.
        -12    1    3    3    0    0 -0.30443244356E+02 -0.24217718110E+02  0.10988401333E+02  0.40423185936E+02  0.00000000000E+00 0.  1.
</event>
<event>
 7    1  0.2490895E-015  0.9000783E+02  0.7816164E-02  0.1186339E+00
        -11   -1    0    0    0    0  0.00000000000E+00  0.00000000000E+00  0.45593999997E+02  0.45594000000E+02  0.51100000000E-03 0.  1.
         11   -1    0    0    0    0 -0.00000000000E+00 -0.00000000000E+00 -0.45593999997E+02  0.45594000000E+02  0.51100000000E-03 0. -1.
    9900012    2    1    2    0    0 -0.18341089021E+00 -0.11639533797E+01 -0.66139111501E-01  0.90007829925E+02  0.90000092480E+02 0.  0.
         12    1    1    2    0    0  0.18341089021E+00  0.11639533797E+01  0.66139111501E-01  0.11801700754E+01  0.00000000000E+00 0. -1.
         11    1    3    3    0    0  0.29964934077E+01  0.47118951402E+01  0.61709836113E+01  0.83223775176E+01  0.51100000000E-03 0. -1.
        -11    1    3    3    0    0  0.60251629064E+01  0.32595562537E+02  0.15451880250E+02  0.36572310409E+02  0.51100000000E-03 0.  1.
         12    1    3    3    0    0 -0.92050672043E+01 -0.38471411057E+02 -0.21689002972E+02  0.45113141998E+02  0.00000000000E+00 0. -1.
</event>
<event>
 7    1  0.2490895E-015  0.9000773E+02  0.7816164E-02  0.1186339E+00
        -11   -1    0    0    0    0  0.00000000000E+00  0.00000000000E+00  0.45593999997E+02  0.45594000000E+02  0.51100000000E-03 0. -1.
         11   -1    0    0    0    0 -0.00000000000E+00 -0.00000000000E+00 -0.45593999997E+02  0.45594000000E+02  0.51100000000E-03 0.  1.
    9900012    2    1    2    0    0 -0.63676328986E+00 -0.92687867756E+00 -0.35841499661E+00  0.90007731861E+02  0.89999993122E+02 0.  0.
         12    1    1    2    0    0  0.63676328986E+00  0.92687867756E+00  0.35841499661E+00  0.11802681390E+01  0.00000000000E+00 0. -1.
         11    1    3    3    0    0 -0.52941496300E+01 -0.10828926619E+01  0.77832897378E+01  0.94752454441E+01  0.51100000000E-03 0. -1.
        -11    1    3    3    0    0 -0.27686092142E+02  0.22990973412E+02  0.94506979965E+01  0.37207798233E+02  0.51100000000E-03 0.  1.
         12    1    3    3    0    0  0.32343478482E+02 -0.22834959427E+02 -0.17592402731E+02  0.43324688184E+02  0.00000000000E+00 0. -1.
</event>
<event>
 7    1  0.2490895E-015  0.9000767E+02  0.7816164E-02  0.1186339E+00
        -11   -1    0    0    0    0  0.00000000000E+00  0.00000000000E+00  0.45593999997E+02  0.45594000000E+02  0.51100000000E-03 0. -1.
         11   -1    0    0    0    0 -0.00000000000E+00 -0.00000000000E+00 -0.45593999997E+02  0.45594000000E+02  0.51100000000E-03 0.  1.
    9900012    2    1    2    0    0  0.85065405382E+00  0.19646683080E+00 -0.79432922579E+00  0.90007673582E+02  0.89999934073E+02 0.  0.
         12    1    1    2    0    0 -0.85065405382E+00 -0.19646683080E+00  0.79432922579E+00  0.11803264183E+01  0.00000000000E+00 0. -1.
         11    1    3    3    0    0  0.43126650280E+01  0.83285569328E+01 -0.29720554536E+01  0.98385493904E+01  0.51100000000E-03 0. -1.
        -11    1    3    3    0    0  0.15889631907E+02  0.14186323080E+02 -0.29803446372E+02  0.36633012169E+02  0.51100000000E-03 0.  1.
         12    1    3    3    0    0 -0.19351642881E+02 -0.22318413182E+02  0.31981172600E+02  0.43536112022E+02  0.00000000000E+00 0. -1.
</event>
<event>
 7    1  0.2490895E-015  0.9000783E+02  0.7816164E-02  0.1186339E+00
        -11   -1    0    0    0    0  0.00000000000E+00  0.00000000000E+00  0.45593999997E+02  0.45594000000E+02  0.51100000000E-03 0. -1.
         11   -1    0    0    0    0 -0.00000000000E+00 -0.00000000000E+00 -0.45593999997E+02  0.45594000000E+02  0.51100000000E-03 0.  1.
    9900012    2    1    2    0    0 -0.97774320980E+00 -0.28604440598E+00 -0.59580967125E+00  0.90007833761E+02  0.90000096367E+02 0.  0.
         12    1    1    2    0    0  0.97774320980E+00  0.28604440598E+00  0.59580967125E+00  0.11801662387E+01  0.00000000000E+00 0. -1.
         11    1    3    3    0    0  0.18593493125E+02 -0.32685993338E+02 -0.64928094110E+01  0.38160827053E+02  0.51100000000E-03 0. -1.
        -11    1    3    3    0    0 -0.39318071724E+01  0.11140854297E+02  0.19005933613E+02  0.22378633892E+02  0.51100000000E-03 0.  1.
        -12    1    3    3    0    0 -0.15639429162E+02  0.21259094634E+02 -0.13108933873E+02  0.29468372817E+02  0.00000000000E+00 0.  1.
</event>
<event>
 7    1  0.2490895E-015  0.9000786E+02  0.7816164E-02  0.1186339E+00
        -11   -1    0    0    0    0  0.00000000000E+00  0.00000000000E+00  0.45593999997E+02  0.45594000000E+02  0.51100000000E-03 0.  1.
         11   -1    0    0    0    0 -0.00000000000E+00 -0.00000000000E+00 -0.45593999997E+02  0.45594000000E+02  0.51100000000E-03 0. -1.
    9900012    2    1    2    0    0  0.28418038704E+00  0.11339700276E+01 -0.16153276440E+00  0.90007856216E+02  0.90000119118E+02 0.  0.
         12    1    1    2    0    0 -0.28418038704E+00 -0.11339700276E+01  0.16153276440E+00  0.11801437835E+01  0.00000000000E+00 0. -1.
         11    1    3    3    0    0  0.39691992982E+02  0.15474830228E+02 -0.65375174680E+01  0.43100624269E+02  0.51100000000E-03 0. -1.
        -11    1    3    3    0    0 -0.51595385389E+01 -0.99867026345E+01 -0.19124081078E+01  0.11402296807E+02  0.51100000000E-03 0.  1.
        -12    1    3    3    0    0 -0.34248274056E+02 -0.43541575659E+01  0.82883928113E+01  0.35504935140E+02  0.00000000000E+00 0.  1.
</event>
<event>
 7    1  0.2490895E-015  0.9000770E+02  0.7816164E-02  0.1186339E+00
        -11   -1    0    0    0    0  0.00000000000E+00  0.00000000000E+00  0.45593999997E+02  0.45594000000E+02  0.51100000000E-03 0.  1.
         11   -1    0    0    0    0 -0.00000000000E+00 -0.00000000000E+00 -0.45593999997E+02  0.45594000000E+02  0.51100000000E-03 0. -1.
    9900012    2    1    2    0    0 -0.19570777831E+00 -0.10466774104E+01  0.50919734657E+00  0.90007696194E+02  0.89999956984E+02 0.  0.
         12    1    1    2    0    0  0.19570777831E+00  0.10466774104E+01 -0.50919734657E+00  0.11803038056E+01  0.00000000000E+00 0. -1.
         11    1    3    3    0    0  0.50531068999E+01  0.29700940908E+01  0.77394127682E+01  0.97084426407E+01  0.51100000000E-03 0. -1.
        -11    1    3    3    0    0 -0.21126987739E+02  0.32697245826E+02  0.28975649326E+01  0.39036590250E+02  0.51100000000E-03 0.  1.
         12    1    3    3    0    0  0.15878173061E+02 -0.36714017327E+02 -0.10127780354E+02  0.41262663304E+02  0.00000000000E+00 0. -1.
</event>
<event>
 7    1  0.2490895E-015  0.9000770E+02  0.7816164E-02  0.1186339E+00
        -11   -1    0    0    0    0  0.00000000000E+00  0.00000000000E+00  0.45593999997E+02  0.45594000000E+02  0.51100000000E-03 0. -1.
         11   -1    0    0    0    0 -0.00000000000E+00 -0.00000000000E+00 -0.45593999997E+02  0.45594000000E+02  0.51100000000E-03 0.  1.
    9900012    2    1    2    0    0  0.48085581420E+00 -0.10485865264E+01  0.24970162699E+00  0.90007700496E+02  0.89999961342E+02 0.  0.
         12    1    1    2    0    0 -0.48085581420E+00  0.10485865264E+01 -0.24970162699E+00  0.11802995043E+01  0.00000000000E+00 0. -1.
         11    1    3    3    0    0  0.76560305894E+01  0.12574428403E+02 -0.15647478947E+01  0.14804711759E+02  0.51100000000E-03 0. -1.
        -11    1    3    3    0    0  0.32650982092E+02 -0.10054367467E+02 -0.53504758041E+01  0.34580406711E+02  0.51100000000E-03 0.  1.
         12    1    3    3    0    0 -0.39826156867E+02 -0.35686474623E+01  0.71649253259E+01  0.40622582026E+02  0.00000000000E+00 0. -1.
</event>
<event>
 7    1  0.2490895E-015  0.9000835E+02  0.7816164E-02  0.1186338E+00
        -11   -1    0    0    0    0  0.00000000000E+00  0.00000000000E+00  0.45593999997E+02  0.45594000000E+02  0.51100000000E-03 0.  1.
         11   -1    0    0    0    0 -0.00000000000E+00 -0.00000000000E+00 -0.45593999997E+02  0.45594000000E+02  0.51100000000E-03 0. -1.
    9900012    2    1    2    0    0 -0.24631747573E-01  0.74837950127E+00  0.91153210305E+00  0.90008352012E+02  0.90000621456E+02 0.  0.
         12    1    1    2    0    0  0.24631747572E-01 -0.74837950127E+00 -0.91153210305E+00  0.11796479881E+01  0.00000000000E+00 0. -1.
         11    1    3    3    0    0 -0.26808223046E+02 -0.79741318528E+01  0.25532984161E+02  0.37870844751E+02  0.51100000000E-03 0. -1.
        -11    1    3    3    0    0 -0.41459777945E+01  0.79906097297E+01  0.41280673934E+01  0.99035305013E+01  0.51100000000E-03 0.  1.
        -12    1    3    3    0    0  0.30929569093E+02  0.73190162429E+00 -0.28749519452E+02  0.42233976760E+02  0.00000000000E+00 0.  1.
</event>
<event>
 7    1  0.2490895E-015  0.9000769E+02  0.7816164E-02  0.1186339E+00
        -11   -1    0    0    0    0  0.00000000000E+00  0.00000000000E+00  0.45593999997E+02  0.45594000000E+02  0.51100000000E-03 0.  1.
         11   -1    0    0    0    0 -0.00000000000E+00 -0.00000000000E+00 -0.45593999997E+02  0.45594000000E+02  0.51100000000E-03 0. -1.
    9900012    2    1    2    0    0 -0.57777202706E-01  0.10419565845E+01 -0.55147790232E+00  0.90007686649E+02  0.89999947313E+02 0.  0.
         12    1    1    2    0    0  0.57777202706E-01 -0.10419565845E+01  0.55147790232E+00  0.11803133507E+01  0.00000000000E+00 0. -1.
         11    1    3    3    0    0  0.19257786095E+02  0.39529901313E+02 -0.34286885074E+01  0.44104776706E+02  0.51100000000E-03 0. -1.
        -11    1    3    3    0    0 -0.75496406282E+01 -0.80844316212E+01 -0.53393217431E+01  0.12282648948E+02  0.51100000000E-03 0.  1.
        -12    1    3    3    0    0 -0.11765922669E+02 -0.30403513108E+02  0.82165323482E+01  0.33620260995E+02  0.00000000000E+00 0.  1.
</event>
<event>
 7    1  0.2490895E-015  0.9000778E+02  0.7816164E-02  0.1186339E+00
        -11   -1    0    0    0    0  0.00000000000E+00  0.00000000000E+00  0.45593999997E+02  0.45594000000E+02  0.51100000000E-03 0. -1.
         11   -1    0    0    0    0 -0.00000000000E+00 -0.00000000000E+00 -0.45593999997E+02  0.45594000000E+02  0.51100000000E-03 0.  1.
    9900012    2    1    2    0    0  0.14460992052E+00 -0.34889737406E+00 -0.11181575023E+01  0.90007780695E+02  0.90000042601E+02 0.  0.
         12    1    1    2    0    0 -0.14460992052E+00  0.34889737406E+00  0.11181575023E+01  0.11802193045E+01  0.00000000000E+00 0. -1.
         11    1    3    3    0    0  0.33154876010E+02 -0.21809928947E+01  0.51549728606E+01  0.33624043164E+02  0.51100000000E-03 0. -1.
        -11    1    3    3    0    0  0.10309047747E+02  0.28356240234E+01 -0.74588998908E+01  0.13036579954E+02  0.51100000000E-03 0.  1.
        -12    1    3    3    0    0 -0.43319313836E+02 -0.10035285027E+01  0.11857695279E+01  0.43347157578E+02  0.00000000000E+00 0.  1.
</event>
<event>
 7    1  0.2490895E-015  0.9000794E+02  0.7816164E-02  0.1186339E+00
        -11   -1    0    0    0    0  0.00000000000E+00  0.00000000000E+00  0.45593999997E+02  0.45594000000E+02  0.51100000000E-03 0.  1.
         11   -1    0    0    0    0 -0.00000000000E+00 -0.00000000000E+00 -0.45593999997E+02  0.45594000000E+02  0.51100000000E-03 0. -1.
    9900012    2    1    2    0    0 -0.21045913505E+00 -0.80340226843E+00  0.83832684632E+00  0.90007940614E+02  0.90000204630E+02 0.  0.
         12    1    1    2    0    0  0.21045913505E+00  0.80340226843E+00 -0.83832684632E+00  0.11800593857E+01  0.00000000000E+00 0. -1.
         11    1    3    3    0    0  0.15317604236E+02 -0.26924156657E+02 -0.19458555502E+02  0.36581068789E+02  0.51100000000E-03 0. -1.
        -11    1    3    3    0    0  0.56676782150E+01 -0.28674989014E+01 -0.61400964602E+01  0.88343596882E+01  0.51100000000E-03 0.  1.
        -12    1    3    3    0    0 -0.21195741586E+02  0.28988253290E+02  0.26436978808E+02  0.44592512137E+02  0.00000000000E+00 0.  1.
</event>
<event>
 7    1  0.2490895E-015  0.9000780E+02  0.7816164E-02  0.1186339E+00
        -11   -1    0    0    0    0  0.00000000000E+00  0.00000000000E+00  0.45593999997E+02  0.45594000000E+02  0.51100000000E-03 0.  1.
         11   -1    0    0    0    0 -0.00000000000E+00 -0.00000000000E+00 -0.45593999997E+02  0.45594000000E+02  0.51100000000E-03 0. -1.
    9900012    2    1    2    0    0  0.89371680245E+00 -0.23326075085E+00 -0.73466850302E+00  0.90007797428E+02  0.90000059554E+02 0.  0.
         12    1    1    2    0    0 -0.89371680245E+00  0.23326075085E+00  0.73466850302E+00  0.11802025717E+01  0.00000000000E+00 0. -1.
         11    1    3    3    0    0 -0.92923335202E+01 -0.20867732980E+01  0.23670363758E+01  0.98135083693E+01  0.51100000000E-03 0. -1.
        -11    1    3    3    0    0 -0.19806735314E+02 -0.15115907738E+02  0.25321508749E+02  0.35524304864E+02  0.51100000000E-03 0.  1.
         12    1    3    3    0    0  0.29992785636E+02  0.16969420285E+02 -0.28423213628E+02  0.44669984195E+02  0.00000000000E+00 0. -1.
</event>
<event>
 7    1  0.2490895E-015  0.9000765E+02  0.7816164E-02  0.1186339E+00
        -11   -1    0    0    0    0  0.00000000000E+00  0.00000000000E+00  0.45593999997E+02  0.45594000000E+02  0.51100000000E-03 0.  1.
         11   -1    0    0    0    0 -0.00000000000E+00 -0.00000000000E+00 -0.45593999997E+02  0.45594000000E+02  0.51100000000E-03 0. -1.
    9900012    2    1    2    0    0 -0.74154249059E+00 -0.83603132073E+00 -0.37999361074E+00  0.90007648875E+02  0.89999909040E+02 0.  0.
         12    1    1    2    0    0  0.74154249059E+00  0.83603132073E+00  0.37999361074E+00  0.11803511252E+01  0.00000000000E+00 0. -1.
         11    1    3    3    0    0 -0.67808421272E+01  0.17681588408E+01  0.41383624175E+01  0.81383198144E+01  0.51100000000E-03 0. -1.
        -11    1    3    3    0    0  0.30638198598E+02 -0.77034878615E+01  0.27004431622E+02  0.41560585488E+02  0.51100000000E-03 0.  1.
         12    1    3    3    0    0 -0.24598898961E+02  0.50992976999E+01 -0.31522787651E+02  0.40308743573E+02  0.00000000000E+00 0. -1.
</event>
<event>
 7    1  0.2490895E-015  0.9000771E+02  0.7816164E-02  0.1186339E+00
        -11   -1    0    0    0    0  0.00000000000E+00  0.00000000000E+00  0.45593999997E+02  0.45594000000E+02  0.51100000000E-03 0. -1.
         11   -1    0    0    0    0 -0.00000000000E+00 -0.00000000000E+00 -0.45593999997E+02  0.45594000000E+02  0.51100000000E-03 0.  1.
    9900012    2    1    2    0    0 -0.36224214007E+00 -0.41958579514E+00 -0.10420273414E+01  0.90007706567E+02  0.89999967494E+02 0.  0.
         12    1    1    2    0    0  0.36224214007E+00  0.41958579514E+00  0.10420273414E+01  0.11802934329E+01  0.00000000000E+00 0. -1.
         11    1    3    3    0    0  0.10419912125E+02  0.36953586662E+02 -0.11564365879E+02  0.40098337800E+02  0.51100000000E-03 0. -1.
        -11    1    3    3    0    0 -0.97189459817E+01 -0.92952413555E+00 -0.41499245071E+01  0.10608666259E+02  0.51100000000E-03 0.  1.
        -12    1    3    3    0    0 -0.10632082832E+01 -0.36443648321E+02  0.14672263045E+02  0.39300702509E+02  0.00000000000E+00 0.  1.
</event>
<event>
 7    1  0.2490895E-015  0.9000777E+02  0.7816164E-02  0.1186339E+00
        -11   -1    0    0    0    0  0.00000000000E+00  0.00000000000E+00  0.45593999997E+02  0.45594000000E+02  0.51100000000E-03 0.  1.
         11   -1    0    0    0    0 -0.00000000000E+00 -0.00000000000E+00 -0.45593999997E+02  0.45594000000E+02  0.51100000000E-03 0. -1.
    9900012    2    1    2    0    0  0.30723043915E-01 -0.38178249219E+00  0.11163500669E+01  0.90007771527E+02  0.90000033311E+02 0.  0.
         12    1    1    2    0    0 -0.30723043915E-01  0.38178249219E+00 -0.11163500669E+01  0.11802284731E+01  0.00000000000E+00 0. -1.
         11    1    3    3    0    0 -0.36974076287E+02  0.81234971333E+01 -0.96775141670E+01  0.39073364376E+02  0.51100000000E-03 0. -1.
        -11    1    3    3    0    0 -0.39285026012E+01  0.14311995630E+01  0.76215211585E+01  0.86930460661E+01  0.51100000000E-03 0.  1.
        -12    1    3    3    0    0  0.40933301932E+02 -0.99364791884E+01  0.31723430755E+01  0.42241361085E+02  0.00000000000E+00 0.  1.
</event>
<event>
 7    1  0.2490895E-015  0.9000774E+02  0.7816164E-02  0.1186339E+00
        -11   -1    0    0    0    0  0.00000000000E+00  0.00000000000E+00  0.45593999997E+02  0.45594000000E+02  0.51100000000E-03 0. -1.
         11   -1    0    0    0    0 -0.00000000000E+00 -0.00000000000E+00 -0.45593999997E+02  0.45594000000E+02  0.51100000000E-03 0.  1.
    9900012    2    1    2    0    0  0.14852992837E+00 -0.89148461918E+00 -0.75908238765E+00  0.90007740691E+02  0.90000002068E+02 0.  0.
         12    1    1    2    0    0 -0.14852992837E+00  0.89148461918E+00  0.75908238765E+00  0.11802593093E+01  0.00000000000E+00 0. -1.
         11    1    3    3    0    0  0.20538673266E+02 -0.16697342331E+02  0.24567189380E+02  0.36113503496E+02  0.51100000000E-03 0. -1.
        -11    1    3    3    0    0  0.66839837647E+01 -0.35660764911E+01  0.48226550016E+01  0.89805646834E+01  0.51100000000E-03 0.  1.
        -12    1    3    3    0    0 -0.27074127102E+02  0.19371934203E+02 -0.30148926769E+02  0.44913672511E+02  0.00000000000E+00 0.  1.
</event>
<event>
 8    1  0.2490895E-015  0.9000726E+02  0.7816164E-02  0.1186340E+00
        -11   -1    0    0    0    0  0.00000000000E+00  0.00000000000E+00  0.45593999997E+02  0.45594000000E+02  0.51100000000E-03 0. -1.
         11   -1    0    0    0    0 -0.00000000000E+00 -0.00000000000E+00 -0.45593999997E+02  0.45594000000E+02  0.51100000000E-03 0.  1.
    9900012    2    1    2    0    0 -0.98519084635E+00  0.62034059501E+00 -0.19677580989E+00  0.90007261173E+02  0.89999516219E+02 0.  0.
         23    2    3    3    0    0  0.14680162248E+02 -0.10989909307E+02 -0.18635204327E+02  0.63171150491E+02  0.57506853017E+02 0.  0.
         12    1    1    2    0    0  0.98519084635E+00 -0.62034059501E+00  0.19677580989E+00  0.11807388267E+01  0.00000000000E+00 0. -1.
         11    1    4    4    0    0  0.36087390039E+02 -0.12816948183E+02 -0.76959476773E+01  0.39061509078E+02  0.51100000000E-03 0. -1.
        -11    1    4    4    0    0 -0.21407227791E+02  0.18270388766E+01 -0.10939256650E+02  0.24109641413E+02  0.51100000000E-03 0.  1.
        -12    1    3    3    0    0 -0.15665353095E+02  0.11610249902E+02  0.18438428517E+02  0.26836110682E+02  0.00000000000E+00 0.  1.
</event>
<event>
 7    1  0.2490895E-015  0.9000770E+02  0.7816164E-02  0.1186339E+00
        -11   -1    0    0    0    0  0.00000000000E+00  0.00000000000E+00  0.45593999997E+02  0.45594000000E+02  0.51100000000E-03 0. -1.
         11   -1    0    0    0    0 -0.00000000000E+00 -0.00000000000E+00 -0.45593999997E+02  0.45594000000E+02  0.51100000000E-03 0.  1.
    9900012    2    1    2    0    0 -0.10934917417E+01  0.59854428117E-02 -0.44423242954E+00  0.90007702382E+02  0.89999963254E+02 0.  0.
         12    1    1    2    0    0  0.10934917417E+01 -0.59854428117E-02  0.44423242954E+00  0.11802976176E+01  0.00000000000E+00 0. -1.
         11    1    3    3    0    0 -0.10898175994E+02 -0.10610365518E+02  0.19223506642E+01  0.15331194629E+02  0.51100000000E-03 0. -1.
        -11    1    3    3    0    0 -0.82449757072E+01 -0.25179463971E+02 -0.17581079467E+02  0.31797474519E+02  0.51100000000E-03 0.  1.
         12    1    3    3    0    0  0.18049659959E+02  0.35795814931E+02  0.15214496373E+02  0.42879033235E+02  0.00000000000E+00 0. -1.
</event>
<event>
 7    1  0.2490895E-015  0.9000779E+02  0.7816164E-02  0.1186339E+00
        -11   -1    0    0    0    0  0.00000000000E+00  0.00000000000E+00  0.45593999997E+02  0.45594000000E+02  0.51100000000E-03 0. -1.
         11   -1    0    0    0    0 -0.00000000000E+00 -0.00000000000E+00 -0.45593999997E+02  0.45594000000E+02  0.51100000000E-03 0.  1.
    9900012    2    1    2    0    0  0.13656293755E+00 -0.11674470178E+01 -0.10636819139E+00  0.90007789778E+02  0.90000051803E+02 0.  0.
         12    1    1    2    0    0 -0.13656293755E+00  0.11674470178E+01  0.10636819139E+00  0.11802102217E+01  0.00000000000E+00 0. -1.
         11    1    3    3    0    0  0.32111861636E+01  0.14113722903E+01  0.80935620880E+01  0.88209656984E+01  0.51100000000E-03 0. -1.
        -11    1    3    3    0    0  0.35880883178E+02  0.43838819092E+01 -0.18054077366E+02  0.40405518287E+02  0.51100000000E-03 0.  1.
         12    1    3    3    0    0 -0.38955506404E+02 -0.69627012173E+01  0.98541470869E+01  0.40781305793E+02  0.00000000000E+00 0. -1.
</event>
<event>
 7    1  0.2490895E-015  0.9000743E+02  0.7816164E-02  0.1186340E+00
        -11   -1    0    0    0    0  0.00000000000E+00  0.00000000000E+00  0.45593999997E+02  0.45594000000E+02  0.51100000000E-03 0. -1.
         11   -1    0    0    0    0 -0.00000000000E+00 -0.00000000000E+00 -0.45593999997E+02  0.45594000000E+02  0.51100000000E-03 0.  1.
    9900012    2    1    2    0    0 -0.95155816457E+00 -0.64189524765E+00  0.27615944418E+00  0.90007425357E+02  0.89999682571E+02 0.  0.
         12    1    1    2    0    0  0.95155816457E+00  0.64189524765E+00 -0.27615944418E+00  0.11805746432E+01  0.00000000000E+00 0. -1.
         11    1    3    3    0    0  0.67548605619E+01 -0.41927933311E+01  0.36268750332E+01  0.87385284743E+01  0.51100000000E-03 0. -1.
        -11    1    3    3    0    0  0.23394981441E+02 -0.79253152343E+01  0.26807495304E+02  0.36452401607E+02  0.51100000000E-03 0.  1.
         12    1    3    3    0    0 -0.31101400168E+02  0.11476213318E+02 -0.30158210893E+02  0.44816495275E+02  0.00000000000E+00 0. -1.
</event>
<event>
 7    1  0.2490895E-015  0.9000767E+02  0.7816164E-02  0.1186339E+00
        -11   -1    0    0    0    0  0.00000000000E+00  0.00000000000E+00  0.45593999997E+02  0.45594000000E+02  0.51100000000E-03 0.  1.
         11   -1    0    0    0    0 -0.00000000000E+00 -0.00000000000E+00 -0.45593999997E+02  0.45594000000E+02  0.51100000000E-03 0. -1.
    9900012    2    1    2    0    0 -0.84982588020E+00  0.73368688850E+00  0.36423589080E+00  0.90007674510E+02  0.89999935014E+02 0.  0.
         12    1    1    2    0    0  0.84982588020E+00 -0.73368688850E+00 -0.36423589080E+00  0.11803254895E+01  0.00000000000E+00 0. -1.
         11    1    3    3    0    0  0.79189121217E+01  0.32853564062E+02 -0.10620434561E+02  0.35423995699E+02  0.51100000000E-03 0. -1.
        -11    1    3    3    0    0 -0.23420513976E+01  0.10288650843E+02  0.15427824932E+01  0.10664038588E+02  0.51100000000E-03 0.  1.
        -12    1    3    3    0    0 -0.64266866043E+01 -0.42408528016E+02  0.94418879589E+01  0.43919640224E+02  0.00000000000E+00 0.  1.
</event>
<event>
 7    1  0.2585283E-015  0.9000761E+02  0.7816164E-02  0.1186339E+00
        -11   -1    0    0    0    0  0.00000000000E+00  0.00000000000E+00  0.45593999997E+02  0.45594000000E+02  0.51100000000E-03 0. -1.
         11   -1    0    0    0    0 -0.00000000000E+00 -0.00000000000E+00 -0.45593999997E+02  0.45594000000E+02  0.51100000000E-03 0.  1.
    9900012    2    1    2    0    0  0.54308540265E+00 -0.10414392083E+01  0.11737774323E+00  0.90007612388E+02  0.89999872072E+02 0.  0.
         12    1    1    2    0    0 -0.54308540265E+00  0.10414392083E+01 -0.11737774323E+00  0.11803876117E+01  0.00000000000E+00 0. -1.
         11    1    3    3    0    0 -0.74577572749E+01 -0.27220126741E+02  0.27694166739E+02  0.39541374723E+02  0.51100000000E-03 0. -1.
        -11    1    3    3    0    0 -0.40793391310E+01  0.59865714250E+01  0.60406016367E+01  0.94323334105E+01  0.51100000000E-03 0.  1.
        -12    1    3    3    0    0  0.12080181809E+02  0.20192116107E+02 -0.33617390633E+02  0.41033904255E+02  0.00000000000E+00 0.  1.
</event>
<event>
 7    1  0.2490895E-015  0.9000777E+02  0.7816164E-02  0.1186339E+00
        -11   -1    0    0    0    0  0.00000000000E+00  0.00000000000E+00  0.45593999997E+02  0.45594000000E+02  0.51100000000E-03 0.  1.
         11   -1    0    0    0    0 -0.00000000000E+00 -0.00000000000E+00 -0.45593999997E+02  0.45594000000E+02  0.51100000000E-03 0. -1.
    9900012    2    1    2    0    0 -0.69607844570E+00  0.44037917705E+00  0.84526545861E+00  0.90007774294E+02  0.90000036114E+02 0.  0.
         12    1    1    2    0    0  0.69607844570E+00 -0.44037917705E+00 -0.84526545861E+00  0.11802257062E+01  0.00000000000E+00 0. -1.
         11    1    3    3    0    0  0.20612525442E+01  0.87338398633E+01 -0.17034317829E+01  0.91340243545E+01  0.51100000000E-03 0. -1.
        -11    1    3    3    0    0  0.38341758078E+02 -0.55640674550E+00 -0.39582720686E+01  0.38549551476E+02  0.51100000000E-03 0.  1.
         12    1    3    3    0    0 -0.41099089068E+02 -0.77370539408E+01  0.65069693101E+01  0.42324198463E+02  0.00000000000E+00 0. -1.
</event>
<event>
 7    1  0.2490895E-015  0.9000775E+02  0.7816164E-02  0.1186339E+00
        -11   -1    0    0    0    0  0.00000000000E+00  0.00000000000E+00  0.45593999997E+02  0.45594000000E+02  0.51100000000E-03 0.  1.
         11   -1    0    0    0    0 -0.00000000000E+00 -0.00000000000E+00 -0.45593999997E+02  0.45594000000E+02  0.51100000000E-03 0. -1.
    9900012    2    1    2    0    0  0.15058286508E+00 -0.11576028581E+01  0.17398494120E+00  0.90007749884E+02  0.90000011383E+02 0.  0.
         12    1    1    2    0    0 -0.15058286508E+00  0.11576028581E+01 -0.17398494120E+00  0.11802501159E+01  0.00000000000E+00 0. -1.
         11    1    3    3    0    0 -0.18438414107E+02  0.31117352395E+02 -0.11934431068E+02  0.38087995222E+02  0.51100000000E-03 0. -1.
        -11    1    3    3    0    0  0.50677223283E+01  0.25273549249E+01 -0.77750077049E+01  0.96187357582E+01  0.51100000000E-03 0.  1.
        -12    1    3    3    0    0  0.13521274644E+02 -0.34802310178E+02  0.19883423714E+02  0.42301018904E+02  0.00000000000E+00 0.  1.
</event>
<event>
 7    1  0.2490895E-015  0.9000770E+02  0.7816164E-02  0.1186339E+00
        -11   -1    0    0    0    0  0.00000000000E+00  0.00000000000E+00  0.45593999997E+02  0.45594000000E+02  0.51100000000E-03 0.  1.
         11   -1    0    0    0    0 -0.00000000000E+00 -0.00000000000E+00 -0.45593999997E+02  0.45594000000E+02  0.51100000000E-03 0. -1.
    9900012    2    1    2    0    0 -0.10139065833E+01 -0.66405967581E-01 -0.60058219053E+00  0.90007696954E+02  0.89999957754E+02 0.  0.
         12    1    1    2    0    0  0.10139065833E+01  0.66405967581E-01  0.60058219053E+00  0.11803030457E+01  0.00000000000E+00 0. -1.
         11    1    3    3    0    0 -0.95587579675E+01 -0.27824539049E+02  0.16819329424E+02  0.33889005145E+02  0.51100000000E-03 0. -1.
        -11    1    3    3    0    0 -0.95133667836E+01 -0.34999910436E+01  0.71907697999E+01  0.12428244262E+02  0.51100000000E-03 0.  1.
         12    1    3    3    0    0  0.18058218168E+02  0.31258124125E+02 -0.24610681415E+02  0.43690447547E+02  0.00000000000E+00 0. -1.
</event>
<event>
 7    1  0.2490895E-015  0.9000768E+02  0.7816164E-02  0.1186339E+00
        -11   -1    0    0    0    0  0.00000000000E+00  0.00000000000E+00  0.45593999997E+02  0.45594000000E+02  0.51100000000E-03 0.  1.
         11   -1    0    0    0    0 -0.00000000000E+00 -0.00000000000E+00 -0.45593999997E+02  0.45594000000E+02  0.51100000000E-03 0. -1.
    9900012    2    1    2    0    0 -0.91667371153E+00  0.21289385491E+00  0.71241922812E+00  0.90007679856E+02  0.89999940430E+02 0.  0.
         12    1    1    2    0    0  0.91667371153E+00 -0.21289385491E+00 -0.71241922812E+00  0.11803201445E+01  0.00000000000E+00 0. -1.
         11    1    3    3    0    0  0.18252193180E+01  0.75650982658E+01 -0.36865268706E+02  0.37677714559E+02  0.51100000000E-03 0. -1.
        -11    1    3    3    0    0 -0.38736406456E+01 -0.58972286082E+01 -0.56647217955E+01  0.90482854945E+01  0.51100000000E-03 0.  1.
        -12    1    3    3    0    0  0.11317476160E+01 -0.14549758026E+01  0.43242409730E+02  0.43281679802E+02  0.00000000000E+00 0.  1.
</event>
<event>
 7    1  0.2490895E-015  0.9000774E+02  0.7816164E-02  0.1186339E+00
        -11   -1    0    0    0    0  0.00000000000E+00  0.00000000000E+00  0.45593999997E+02  0.45594000000E+02  0.51100000000E-03 0. -1.
         11   -1    0    0    0    0 -0.00000000000E+00 -0.00000000000E+00 -0.45593999997E+02  0.45594000000E+02  0.51100000000E-03 0.  1.
    9900012    2    1    2    0    0  0.10653094982E+01  0.14390802951E+00 -0.48725863648E+00  0.90007739509E+02  0.90000000870E+02 0.  0.
         12    1    1    2    0    0 -0.10653094982E+01 -0.14390802951E+00  0.48725863648E+00  0.11802604911E+01  0.00000000000E+00 0. -1.
         11    1    3    3    0    0  0.86737873960E+00  0.61631410138E+00 -0.10097026334E+02  0.10152937013E+02  0.51100000000E-03 0. -1.
        -11    1    3    3    0    0  0.56849159041E+01 -0.99431574809E+01 -0.33486088712E+02  0.35390716113E+02  0.51100000000E-03 0.  1.
         12    1    3    3    0    0 -0.54869851454E+01  0.94707514090E+01  0.43095856409E+02  0.44464086383E+02  0.00000000000E+00 0. -1.
</event>
<event>
 7    1  0.2490895E-015  0.9000773E+02  0.7816164E-02  0.1186339E+00
        -11   -1    0    0    0    0  0.00000000000E+00  0.00000000000E+00  0.45593999997E+02  0.45594000000E+02  0.51100000000E-03 0. -1.
         11   -1    0    0    0    0 -0.00000000000E+00 -0.00000000000E+00 -0.45593999997E+02  0.45594000000E+02  0.51100000000E-03 0.  1.
    9900012    2    1    2    0    0 -0.31056518292E+00 -0.55258038554E+00 -0.99561369334E+00  0.90007727810E+02  0.89999989017E+02 0.  0.
         12    1    1    2    0    0  0.31056518292E+00  0.55258038554E+00  0.99561369334E+00  0.11802721897E+01  0.00000000000E+00 0. -1.
         11    1    3    3    0    0  0.34245131391E+02  0.10596265533E+02  0.94751549309E+01  0.37078139495E+02  0.51100000000E-03 0. -1.
        -11    1    3    3    0    0  0.55285496955E+01  0.34919988252E+00 -0.97603452185E+01  0.11222795612E+02  0.51100000000E-03 0.  1.
        -12    1    3    3    0    0 -0.40084246269E+02 -0.11498045801E+02 -0.71042340576E+00  0.41706792703E+02  0.00000000000E+00 0.  1.
</event>
<event>
 7    1  0.2490895E-015  0.9000772E+02  0.7816164E-02  0.1186339E+00
        -11   -1    0    0    0    0  0.00000000000E+00  0.00000000000E+00  0.45593999997E+02  0.45594000000E+02  0.51100000000E-03 0.  1.
         11   -1    0    0    0    0 -0.00000000000E+00 -0.00000000000E+00 -0.45593999997E+02  0.45594000000E+02  0.51100000000E-03 0. -1.
    9900012    2    1    2    0    0 -0.20505910806E-01  0.18469821471E+00  0.11655540346E+01  0.90007724553E+02  0.89999985717E+02 0.  0.
         12    1    1    2    0    0  0.20505910806E-01 -0.18469821471E+00 -0.11655540346E+01  0.11802754469E+01  0.00000000000E+00 0. -1.
         11    1    3    3    0    0  0.10482516336E+01  0.27474081440E+01 -0.84707153537E+01  0.89666103886E+01  0.51100000000E-03 0. -1.
        -11    1    3    3    0    0 -0.42244562725E+00  0.37776392642E+02  0.14371335443E+02  0.40419915685E+02  0.51100000000E-03 0.  1.
         12    1    3    3    0    0 -0.64631191713E+00 -0.40339102571E+02 -0.47350660548E+01  0.40621198479E+02  0.00000000000E+00 0. -1.
</event>
<event>
 7    1  0.2490895E-015  0.9000775E+02  0.7816164E-02  0.1186339E+00
        -11   -1    0    0    0    0  0.00000000000E+00  0.00000000000E+00  0.45593999997E+02  0.45594000000E+02  0.51100000000E-03 0. -1.
         11   -1    0    0    0    0 -0.00000000000E+00 -0.00000000000E+00 -0.45593999997E+02  0.45594000000E+02  0.51100000000E-03 0.  1.
    9900012    2    1    2    0    0  0.29132223650E+00  0.73094278209E+00 -0.87968625073E+00  0.90007748376E+02  0.90000009855E+02 0.  0.
         12    1    1    2    0    0 -0.29132223650E+00 -0.73094278209E+00  0.87968625073E+00  0.11802516240E+01  0.00000000000E+00 0. -1.
         11    1    3    3    0    0 -0.34482388940E+02 -0.16370663477E+02  0.13353027221E+02  0.40439301501E+02  0.51100000000E-03 0. -1.
        -11    1    3    3    0    0  0.17082333135E+01 -0.47952070424E+01 -0.79139676731E+01  0.94097266817E+01  0.51100000000E-03 0.  1.
        -12    1    3    3    0    0  0.33065477863E+02  0.21896813302E+02 -0.63187457984E+01  0.40158720193E+02  0.00000000000E+00 0.  1.
</event>
<event>
 7    1  0.2490895E-015  0.9000738E+02  0.7816164E-02  0.1186340E+00
        -11   -1    0    0    0    0  0.00000000000E+00  0.00000000000E+00  0.45593999997E+02  0.45594000000E+02  0.51100000000E-03 0.  1.
         11   -1    0    0    0    0 -0.00000000000E+00 -0.00000000000E+00 -0.45593999997E+02  0.45594000000E+02  0.51100000000E-03 0. -1.
    9900012    2    1    2    0    0 -0.77491784931E+00 -0.26107915215E+00  0.85159271571E+00  0.90007377219E+02  0.89999633798E+02 0.  0.
         12    1    1    2    0    0  0.77491784931E+00  0.26107915215E+00 -0.85159271571E+00  0.11806227807E+01  0.00000000000E+00 0. -1.
         11    1    3    3    0    0  0.12522905125E+02 -0.38882958811E+02  0.17220580175E+02  0.44331208200E+02  0.51100000000E-03 0. -1.
        -11    1    3    3    0    0 -0.38657308476E+01  0.84382510922E+01  0.14254126361E+01  0.93904077614E+01  0.51100000000E-03 0.  1.
        -12    1    3    3    0    0 -0.94320921271E+01  0.30183628566E+02 -0.17794400095E+02  0.36285761258E+02  0.00000000000E+00 0.  1.
</event>
<event>
 7    1  0.2490895E-015  0.9000780E+02  0.7816164E-02  0.1186339E+00
        -11   -1    0    0    0    0  0.00000000000E+00  0.00000000000E+00  0.45593999997E+02  0.45594000000E+02  0.51100000000E-03 0.  1.
         11   -1    0    0    0    0 -0.00000000000E+00 -0.00000000000E+00 -0.45593999997E+02  0.45594000000E+02  0.51100000000E-03 0. -1.
    9900012    2    1    2    0    0  0.37568897827E-01  0.11787812611E+01  0.43875877460E-01  0.90007804348E+02  0.90000066566E+02 0.  0.
         12    1    1    2    0    0 -0.37568897827E-01 -0.11787812611E+01 -0.43875877460E-01  0.11801956517E+01  0.00000000000E+00 0. -1.
         11    1    3    3    0    0  0.30534118990E+02  0.27750512015E+02 -0.62780434286E+01  0.41735322799E+02  0.51100000000E-03 0. -1.
        -11    1    3    3    0    0 -0.44427722206E+01  0.28552327608E+01  0.72364223068E+01  0.89585929244E+01  0.51100000000E-03 0.  1.
        -12    1    3    3    0    0 -0.26053777871E+02 -0.29426963515E+02 -0.91450300069E+00  0.39313888625E+02  0.00000000000E+00 0.  1.
</event>
<event>
 7    1  0.2490895E-015  0.9000750E+02  0.7816164E-02  0.1186340E+00
        -11   -1    0    0    0    0  0.00000000000E+00  0.00000000000E+00  0.45593999997E+02  0.45594000000E+02  0.51100000000E-03 0.  1.
         11   -1    0    0    0    0 -0.00000000000E+00 -0.00000000000E+00 -0.45593999997E+02  0.45594000000E+02  0.51100000000E-03 0. -1.
    9900012    2    1    2    0    0 -0.48207695332E+00  0.38684855623E+00  0.10057514164E+01  0.90007497604E+02  0.89999755772E+02 0.  0.
         12    1    1    2    0    0  0.48207695332E+00 -0.38684855623E+00 -0.10057514164E+01  0.11805023956E+01  0.00000000000E+00 0. -1.
         11    1    3    3    0    0 -0.64696305756E+01 -0.14868305719E+02 -0.62127885792E+01  0.17364370905E+02  0.51100000000E-03 0. -1.
        -11    1    3    3    0    0 -0.31011066922E+02  0.44845581579E+01  0.12526566577E+02  0.33744812994E+02  0.51100000000E-03 0.  1.
         12    1    3    3    0    0  0.36998620545E+02  0.10770596118E+02 -0.53080265811E+01  0.38898313705E+02  0.00000000000E+00 0. -1.
</event>
<event>
 7    1  0.2490895E-015  0.9000772E+02  0.7816164E-02  0.1186339E+00
        -11   -1    0    0    0    0  0.00000000000E+00  0.00000000000E+00  0.45593999997E+02  0.45594000000E+02  0.51100000000E-03 0. -1.
         11   -1    0    0    0    0 -0.00000000000E+00 -0.00000000000E+00 -0.45593999997E+02  0.45594000000E+02  0.51100000000E-03 0.  1.
    9900012    2    1    2    0    0 -0.77998180740E+00  0.61145019098E+00 -0.64095904208E+00  0.90007715522E+02  0.89999976567E+02 0.  0.
         12    1    1    2    0    0  0.77998180740E+00 -0.61145019098E+00  0.64095904208E+00  0.11802844782E+01  0.00000000000E+00 0. -1.
         11    1    3    3    0    0 -0.28936871520E+02 -0.10335588851E+02 -0.25727870189E+02  0.40076055632E+02  0.51100000000E-03 0. -1.
        -11    1    3    3    0    0 -0.58549110524E+01 -0.21917157335E+01  0.12658358919E+01  0.63785532885E+01  0.51100000000E-03 0.  1.
        -12    1    3    3    0    0  0.34011800765E+02  0.13138754776E+02  0.23821075255E+02  0.43553106602E+02  0.00000000000E+00 0.  1.
</event>
<event>
 7    1  0.2490895E-015  0.9000764E+02  0.7816164E-02  0.1186339E+00
        -11   -1    0    0    0    0  0.00000000000E+00  0.00000000000E+00  0.45593999997E+02  0.45594000000E+02  0.51100000000E-03 0. -1.
         11   -1    0    0    0    0 -0.00000000000E+00 -0.00000000000E+00 -0.45593999997E+02  0.45594000000E+02  0.51100000000E-03 0.  1.
    9900012    2    1    2    0    0  0.72499075591E-02 -0.22513851289E+00 -0.11586681036E+01  0.90007639172E+02  0.89999899209E+02 0.  0.
         12    1    1    2    0    0 -0.72499075591E-02  0.22513851289E+00  0.11586681036E+01  0.11803608285E+01  0.00000000000E+00 0. -1.
         11    1    3    3    0    0 -0.22942154991E+02 -0.33533655551E+02  0.66561880152E+01  0.41172240276E+02  0.51100000000E-03 0. -1.
        -11    1    3    3    0    0 -0.21981591200E+01  0.16785864237E+01 -0.79597437330E+01  0.84265696731E+01  0.51100000000E-03 0.  1.
        -12    1    3    3    0    0  0.25147564018E+02  0.31629930614E+02  0.14488761427E+00  0.40408829222E+02  0.00000000000E+00 0.  1.
</event>
<event>
 7    1  0.2490895E-015  0.9000770E+02  0.7816164E-02  0.1186339E+00
        -11   -1    0    0    0    0  0.00000000000E+00  0.00000000000E+00  0.45593999997E+02  0.45594000000E+02  0.51100000000E-03 0.  1.
         11   -1    0    0    0    0 -0.00000000000E+00 -0.00000000000E+00 -0.45593999997E+02  0.45594000000E+02  0.51100000000E-03 0. -1.
    9900012    2    1    2    0    0 -0.83985866105E+00  0.80849013002E+00 -0.18465514879E+00  0.90007696486E+02  0.89999957280E+02 0.  0.
         12    1    1    2    0    0  0.83985866105E+00 -0.80849013002E+00  0.18465514879E+00  0.11803035139E+01  0.00000000000E+00 0. -1.
         11    1    3    3    0    0 -0.68789624467E+01 -0.28476801308E+01 -0.36495294485E+01  0.82914698291E+01  0.51100000000E-03 0. -1.
        -11    1    3    3    0    0 -0.37169915596E+02 -0.51724117459E+01  0.86838265455E+00  0.37538121389E+02  0.51100000000E-03 0.  1.
         12    1    3    3    0    0  0.43209019382E+02  0.88285820068E+01  0.25964916451E+01  0.44178105268E+02  0.00000000000E+00 0. -1.
</event>
<event>
 7    1  0.2490895E-015  0.9000777E+02  0.7816164E-02  0.1186339E+00
        -11   -1    0    0    0    0  0.00000000000E+00  0.00000000000E+00  0.45593999997E+02  0.45594000000E+02  0.51100000000E-03 0.  1.
         11   -1    0    0    0    0 -0.00000000000E+00 -0.00000000000E+00 -0.45593999997E+02  0.45594000000E+02  0.51100000000E-03 0. -1.
    9900012    2    1    2    0    0 -0.80041203551E+00  0.70774442545E+00  0.50136985305E+00  0.90007774035E+02  0.90000035852E+02 0.  0.
         12    1    1    2    0    0  0.80041203551E+00 -0.70774442545E+00 -0.50136985305E+00  0.11802259648E+01  0.00000000000E+00 0. -1.
         11    1    3    3    0    0  0.22298459427E+01 -0.15549677132E+02 -0.31328685866E+02  0.35046415369E+02  0.51100000000E-03 0. -1.
        -11    1    3    3    0    0 -0.30693833480E+01 -0.30538867169E+01 -0.88932318557E+01  0.98912542843E+01  0.51100000000E-03 0.  1.
        -12    1    3    3    0    0  0.39125369717E-01  0.19311308275E+02  0.40723287575E+02  0.45070104382E+02  0.00000000000E+00 0.  1.
</event>
<event>
 7    1  0.2490895E-015  0.9000771E+02  0.7816164E-02  0.1186339E+00
        -11   -1    0    0    0    0  0.00000000000E+00  0.00000000000E+00  0.45593999997E+02  0.45594000000E+02  0.51100000000E-03 0. -1.
         11   -1    0    0    0    0 -0.00000000000E+00 -0.00000000000E+00 -0.45593999997E+02  0.45594000000E+02  0.51100000000E-03 0.  1.
    9900012    2    1    2    0    0  0.29439878352E+00 -0.74580927850E+00 -0.86613071689E+00  0.90007709975E+02  0.89999970947E+02 0.  0.
         12    1    1    2    0    0 -0.29439878352E+00  0.74580927850E+00  0.86613071689E+00  0.11802900247E+01  0.00000000000E+00 0. -1.
         11    1    3    3    0    0  0.80831888899E+01  0.23752668038E+01  0.57873318509E+01  0.10221205664E+02  0.51100000000E-03 0. -1.
        -11    1    3    3    0    0  0.62093645011E+01 -0.38304125115E+02  0.71998000060E+01  0.39466432937E+02  0.51100000000E-03 0.  1.
         12    1    3    3    0    0 -0.13998154607E+02  0.35183049033E+02 -0.13853262574E+02  0.40320071374E+02  0.00000000000E+00 0. -1.
</event>
<event>
 7    1  0.2490895E-015  0.9000745E+02  0.7816164E-02  0.1186340E+00
        -11   -1    0    0    0    0  0.00000000000E+00  0.00000000000E+00  0.45593999997E+02  0.45594000000E+02  0.51100000000E-03 0.  1.
         11   -1    0    0    0    0 -0.00000000000E+00 -0.00000000000E+00 -0.45593999997E+02  0.45594000000E+02  0.51100000000E-03 0. -1.
    9900012    2    1    2    0    0 -0.10167519774E+01  0.57635332138E+00  0.16654427161E+00  0.90007447278E+02  0.89999704782E+02 0.  0.
         12    1    1    2    0    0  0.10167519774E+01 -0.57635332138E+00 -0.16654427161E+00  0.11805527219E+01  0.00000000000E+00 0. -1.
         11    1    3    3    0    0 -0.99576327169E+01  0.33990227891E+01  0.53581756494E+01  0.11807533688E+02  0.51100000000E-03 0. -1.
        -11    1    3    3    0    0 -0.38605583078E+01  0.16834487687E+02  0.30756988766E+02  0.35274583546E+02  0.51100000000E-03 0.  1.
         12    1    3    3    0    0  0.12801439047E+02 -0.19657157155E+02 -0.35948620144E+02  0.42925330044E+02  0.00000000000E+00 0. -1.
</event>
<event>
 7    1  0.2490895E-015  0.9000766E+02  0.7816164E-02  0.1186339E+00
        -11   -1    0    0    0    0  0.00000000000E+00  0.00000000000E+00  0.45593999997E+02  0.45594000000E+02  0.51100000000E-03 0. -1.
         11   -1    0    0    0    0 -0.00000000000E+00 -0.00000000000E+00 -0.45593999997E+02  0.45594000000E+02  0.51100000000E-03 0.  1.
    9900012    2    1    2    0    0 -0.60592481147E+00  0.98203118606E+00  0.24836058163E+00  0.90007655514E+02  0.89999915767E+02 0.  0.
         12    1    1    2    0    0  0.60592481147E+00 -0.98203118606E+00 -0.24836058163E+00  0.11803444862E+01  0.00000000000E+00 0. -1.
         11    1    3    3    0    0 -0.38052882016E+01  0.85796612293E+01  0.13928328331E+01  0.94884555471E+01  0.51100000000E-03 0. -1.
        -11    1    3    3    0    0 -0.34950182203E+02 -0.10399503063E+02 -0.15553438155E+02  0.39643086896E+02  0.51100000000E-03 0.  1.
         12    1    3    3    0    0  0.38149545593E+02  0.28018730193E+01  0.14408965903E+02  0.40876113071E+02  0.00000000000E+00 0. -1.
</event>
<event>
 7    1  0.2490895E-015  0.9000774E+02  0.7816164E-02  0.1186339E+00
        -11   -1    0    0    0    0  0.00000000000E+00  0.00000000000E+00  0.45593999997E+02  0.45594000000E+02  0.51100000000E-03 0. -1.
         11   -1    0    0    0    0 -0.00000000000E+00 -0.00000000000E+00 -0.45593999997E+02  0.45594000000E+02  0.51100000000E-03 0.  1.
    9900012    2    1    2    0    0  0.10579106751E+01 -0.79394277089E-02 -0.52324256119E+00  0.90007736975E+02  0.89999998303E+02 0.  0.
         12    1    1    2    0    0 -0.10579106751E+01  0.79394277089E-02  0.52324256119E+00  0.11802630252E+01  0.00000000000E+00 0. -1.
         11    1    3    3    0    0 -0.14549656974E+02  0.83067426498E+01  0.33854701395E+02  0.37773473474E+02  0.51100000000E-03 0. -1.
        -11    1    3    3    0    0  0.61647140791E+01  0.95784495888E+01  0.10471264438E+01  0.11438831682E+02  0.51100000000E-03 0.  1.
        -12    1    3    3    0    0  0.94428535701E+01 -0.17893131666E+02 -0.35425070400E+02  0.40795431818E+02  0.00000000000E+00 0.  1.
</event>
<event>
 7    1  0.2490895E-015  0.9000772E+02  0.7816164E-02  0.1186339E+00
        -11   -1    0    0    0    0  0.00000000000E+00  0.00000000000E+00  0.45593999997E+02  0.45594000000E+02  0.51100000000E-03 0.  1.
         11   -1    0    0    0    0 -0.00000000000E+00 -0.00000000000E+00 -0.45593999997E+02  0.45594000000E+02  0.51100000000E-03 0. -1.
    9900012    2    1    2    0    0 -0.29376572440E+00 -0.88959593079E+00  0.71789347316E+00  0.90007724498E+02  0.89999985662E+02 0.  0.
         12    1    1    2    0    0  0.29376572440E+00  0.88959593079E+00 -0.71789347316E+00  0.11802755016E+01  0.00000000000E+00 0. -1.
         11    1    3    3    0    0  0.86259622984E+01  0.32614187004E+01  0.53138261243E+00  0.92372314713E+01  0.51100000000E-03 0. -1.
        -11    1    3    3    0    0  0.92567149863E+01  0.34732400265E+02  0.87686429364E+01  0.36998858086E+02  0.51100000000E-03 0.  1.
         12    1    3    3    0    0 -0.18176443009E+02 -0.38883414896E+02 -0.85821320756E+01  0.43771634941E+02  0.00000000000E+00 0. -1.
</event>
<event>
 7    1  0.2490895E-015  0.9000763E+02  0.7816164E-02  0.1186339E+00
        -11   -1    0    0    0    0  0.00000000000E+00  0.00000000000E+00  0.45593999997E+02  0.45594000000E+02  0.51100000000E-03 0. -1.
         11   -1    0    0    0    0 -0.00000000000E+00 -0.00000000000E+00 -0.45593999997E+02  0.45594000000E+02  0.51100000000E-03 0.  1.
    9900012    2    1    2    0    0  0.50474921016E+00  0.29208967511E-01 -0.10666009130E+01  0.90007634617E+02  0.89999894594E+02 0.  0.
         12    1    1    2    0    0 -0.50474921016E+00 -0.29208967511E-01  0.10666009130E+01  0.11803653827E+01  0.00000000000E+00 0. -1.
         11    1    3    3    0    0 -0.69561347942E+01  0.10729752167E+01  0.66470518625E+01  0.96810322701E+01  0.51100000000E-03 0. -1.
        -11    1    3    3    0    0  0.70550840260E+00 -0.25955058361E+02  0.26743446393E+02  0.37274317189E+02  0.51100000000E-03 0.  1.
         12    1    3    3    0    0  0.67553756018E+01  0.24911292112E+02 -0.34457099169E+02  0.43052285158E+02  0.00000000000E+00 0. -1.
</event>
<event>
 7    1  0.2490895E-015  0.9000776E+02  0.7816164E-02  0.1186339E+00
        -11   -1    0    0    0    0  0.00000000000E+00  0.00000000000E+00  0.45593999997E+02  0.45594000000E+02  0.51100000000E-03 0. -1.
         11   -1    0    0    0    0 -0.00000000000E+00 -0.00000000000E+00 -0.45593999997E+02  0.45594000000E+02  0.51100000000E-03 0.  1.
    9900012    2    1    2    0    0  0.96419397741E+00  0.68052073469E+00  0.13402702050E-01  0.90007763528E+02  0.90000025207E+02 0.  0.
         12    1    1    2    0    0 -0.96419397741E+00 -0.68052073469E+00 -0.13402702050E-01  0.11802364716E+01  0.00000000000E+00 0. -1.
         11    1    3    3    0    0 -0.47165409623E+01  0.14853126999E+01  0.93814877957E+01  0.10604915181E+02  0.51100000000E-03 0. -1.
        -11    1    3    3    0    0 -0.31926584725E+02  0.17018232394E+02 -0.10814301613E+02  0.37760775490E+02  0.51100000000E-03 0.  1.
         12    1    3    3    0    0  0.37607319664E+02 -0.17823024360E+02  0.14462165191E+01  0.41642072857E+02  0.00000000000E+00 0. -1.
</event>
<event>
 7    1  0.2490895E-015  0.9000769E+02  0.7816164E-02  0.1186339E+00
        -11   -1    0    0    0    0  0.00000000000E+00  0.00000000000E+00  0.45593999997E+02  0.45594000000E+02  0.51100000000E-03 0.  1.
         11   -1    0    0    0    0 -0.00000000000E+00 -0.00000000000E+00 -0.45593999997E+02  0.45594000000E+02  0.51100000000E-03 0. -1.
    9900012    2    1    2    0    0 -0.39165877894E-01  0.40522650626E+00  0.11078800838E+01  0.90007686157E+02  0.89999946814E+02 0.  0.
         12    1    1    2    0    0  0.39165877894E-01 -0.40522650626E+00 -0.11078800838E+01  0.11803138428E+01  0.00000000000E+00 0. -1.
         11    1    3    3    0    0  0.25887094467E+02 -0.93097025033E+01 -0.28455528289E+02  0.39579405139E+02  0.51100000000E-03 0. -1.
        -11    1    3    3    0    0  0.19589963203E+01  0.93663051567E+01 -0.29303183820E+00  0.95734636778E+01  0.51100000000E-03 0.  1.
        -12    1    3    3    0    0 -0.27885256665E+02  0.34862385287E+00  0.29856440211E+02  0.40854817341E+02  0.00000000000E+00 0.  1.
</event>
<event>
 7    1  0.2490895E-015  0.9000781E+02  0.7816164E-02  0.1186339E+00
        -11   -1    0    0    0    0  0.00000000000E+00  0.00000000000E+00  0.45593999997E+02  0.45594000000E+02  0.51100000000E-03 0. -1.
         11   -1    0    0    0    0 -0.00000000000E+00 -0.00000000000E+00 -0.45593999997E+02  0.45594000000E+02  0.51100000000E-03 0.  1.
    9900012    2    1    2    0    0 -0.44338910708E+00 -0.32966461813E+00 -0.10428672028E+01  0.90007811598E+02  0.90000073911E+02 0.  0.
         12    1    1    2    0    0  0.44338910708E+00  0.32966461813E+00  0.10428672028E+01  0.11801884017E+01  0.00000000000E+00 0. -1.
         11    1    3    3    0    0 -0.66488533662E+01 -0.57834031208E+01 -0.29643627790E+01  0.92974431802E+01  0.51100000000E-03 0. -1.
        -11    1    3    3    0    0 -0.32466527712E+02 -0.11991035765E+02 -0.11076410093E+02  0.36339334353E+02  0.51100000000E-03 0.  1.
         12    1    3    3    0    0  0.38671991971E+02  0.17444774268E+02  0.12997905669E+02  0.44371034065E+02  0.00000000000E+00 0. -1.
</event>
<event>
 7    1  0.2490895E-015  0.9000781E+02  0.7816164E-02  0.1186339E+00
        -11   -1    0    0    0    0  0.00000000000E+00  0.00000000000E+00  0.45593999997E+02  0.45594000000E+02  0.51100000000E-03 0.  1.
         11   -1    0    0    0    0 -0.00000000000E+00 -0.00000000000E+00 -0.45593999997E+02  0.45594000000E+02  0.51100000000E-03 0. -1.
    9900012    2    1    2    0    0 -0.21383422590E+00  0.10505564052E+01  0.49341800959E+00  0.90007807148E+02  0.90000069402E+02 0.  0.
         12    1    1    2    0    0  0.21383422590E+00 -0.10505564052E+01 -0.49341800959E+00  0.11801928524E+01  0.00000000000E+00 0. -1.
         11    1    3    3    0    0  0.34003557574E+01 -0.27191357747E+01  0.99009685434E+01  0.10815974158E+02  0.51100000000E-03 0. -1.
        -11    1    3    3    0    0  0.13297218633E+02 -0.13273994770E+02  0.28609608766E+02  0.34227542630E+02  0.51100000000E-03 0.  1.
         12    1    3    3    0    0 -0.16911408616E+02  0.17043686950E+02 -0.38017159300E+02  0.44964290359E+02  0.00000000000E+00 0. -1.
</event>
<event>
 7    1  0.2490895E-015  0.9000767E+02  0.7816164E-02  0.1186339E+00
        -11   -1    0    0    0    0  0.00000000000E+00  0.00000000000E+00  0.45593999997E+02  0.45594000000E+02  0.51100000000E-03 0. -1.
         11   -1    0    0    0    0 -0.00000000000E+00 -0.00000000000E+00 -0.45593999997E+02  0.45594000000E+02  0.51100000000E-03 0.  1.
    9900012    2    1    2    0    0 -0.10469320668E+01  0.52344009539E+00  0.15209301256E+00  0.90007665907E+02  0.89999926297E+02 0.  0.
         12    1    1    2    0    0  0.10469320668E+01 -0.52344009539E+00 -0.15209301256E+00  0.11803340927E+01  0.00000000000E+00 0. -1.
         11    1    3    3    0    0  0.41003901719E+01  0.74343955127E+01 -0.46675900202E+01  0.96886445419E+01  0.51100000000E-03 0. -1.
        -11    1    3    3    0    0 -0.13404158336E+02  0.32906820352E+02 -0.10203022799E+02  0.36967985621E+02  0.51100000000E-03 0.  1.
         12    1    3    3    0    0  0.82568360978E+01 -0.39817775770E+02  0.15022705832E+02  0.43351035744E+02  0.00000000000E+00 0. -1.
</event>
<event>
 8    1  0.2490895E-015  0.9000764E+02  0.7816164E-02  0.1186339E+00
        -11   -1    0    0    0    0  0.00000000000E+00  0.00000000000E+00  0.45593999997E+02  0.45594000000E+02  0.51100000000E-03 0. -1.
         11   -1    0    0    0    0 -0.00000000000E+00 -0.00000000000E+00 -0.45593999997E+02  0.45594000000E+02  0.51100000000E-03 0.  1.
    9900012    2    1    2    0    0 -0.87695868589E+00 -0.72955221168E+00 -0.30321679556E+00  0.90007642685E+02  0.89999902768E+02 0.  0.
         23    2    3    3    0    0 -0.31888345225E+01  0.18320565118E+01 -0.28763809441E+02  0.61338636025E+02  0.54051331520E+02 0.  0.
         12    1    1    2    0    0  0.87695868589E+00  0.72955221168E+00  0.30321679556E+00  0.11803573152E+01  0.00000000000E+00 0. -1.
         11    1    4    4    0    0 -0.35521197232E+01 -0.22977159850E+02  0.13389902733E+00  0.23250491575E+02  0.51100000000E-03 0. -1.
        -11    1    4    4    0    0  0.36328520067E+00  0.24809216361E+02 -0.28897708469E+02  0.38088144449E+02  0.51100000000E-03 0.  1.
         12    1    3    3    0    0  0.23118758366E+01 -0.25616087235E+01  0.28460592646E+02  0.28669006660E+02  0.00000000000E+00 0. -1.
</event>
<event>
 7    1  0.2490895E-015  0.9000783E+02  0.7816164E-02  0.1186339E+00
        -11   -1    0    0    0    0  0.00000000000E+00  0.00000000000E+00  0.45593999997E+02  0.45594000000E+02  0.51100000000E-03 0. -1.
         11   -1    0    0    0    0 -0.00000000000E+00 -0.00000000000E+00 -0.45593999997E+02  0.45594000000E+02  0.51100000000E-03 0.  1.
    9900012    2    1    2    0    0 -0.41851871586E+00 -0.56168529385E+00 -0.94981300960E+00  0.90007833470E+02  0.90000096072E+02 0.  0.
         12    1    1    2    0    0  0.41851871586E+00  0.56168529385E+00  0.94981300960E+00  0.11801665298E+01  0.00000000000E+00 0. -1.
         11    1    3    3    0    0  0.56729266371E+01  0.46414345854E+01 -0.10471554321E+02  0.12781958450E+02  0.51100000000E-03 0. -1.
        -11    1    3    3    0    0 -0.59782924588E+00 -0.40696424718E+02  0.41804815541E+01  0.40914946058E+02  0.51100000000E-03 0.  1.
         12    1    3    3    0    0 -0.54936161071E+01  0.35493304839E+02  0.53412597576E+01  0.36310928963E+02  0.00000000000E+00 0. -1.
</event>
<event>
 7    1  0.2490895E-015  0.9000772E+02  0.7816164E-02  0.1186339E+00
        -11   -1    0    0    0    0  0.00000000000E+00  0.00000000000E+00  0.45593999997E+02  0.45594000000E+02  0.51100000000E-03 0.  1.
         11   -1    0    0    0    0 -0.00000000000E+00 -0.00000000000E+00 -0.45593999997E+02  0.45594000000E+02  0.51100000000E-03 0. -1.
    9900012    2    1    2    0    0 -0.89167133933E+00 -0.67235196537E+00  0.38199472682E+00  0.90007722527E+02  0.89999983664E+02 0.  0.
         12    1    1    2    0    0  0.89167133933E+00  0.67235196537E+00 -0.38199472682E+00  0.11802774733E+01  0.00000000000E+00 0. -1.
         11    1    3    3    0    0  0.35663411052E+02  0.59773693735E+01 -0.21559088103E+02  0.42099906325E+02  0.51100000000E-03 0. -1.
        -11    1    3    3    0    0 -0.28417059835E+00  0.21321426982E+01  0.76491599668E+01  0.79458438112E+01  0.51100000000E-03 0.  1.
        -12    1    3    3    0    0 -0.36270911792E+02 -0.87818640370E+01  0.14291922863E+02  0.39961972391E+02  0.00000000000E+00 0.  1.
</event>
<event>
 7    1  0.2490895E-015  0.9000778E+02  0.7816164E-02  0.1186339E+00
        -11   -1    0    0    0    0  0.00000000000E+00  0.00000000000E+00  0.45593999997E+02  0.45594000000E+02  0.51100000000E-03 0. -1.
         11   -1    0    0    0    0 -0.00000000000E+00 -0.00000000000E+00 -0.45593999997E+02  0.45594000000E+02  0.51100000000E-03 0.  1.
    9900012    2    1    2    0    0 -0.54508153283E+00 -0.10374378900E+01  0.13975493448E+00  0.90007778540E+02  0.90000040417E+02 0.  0.
         12    1    1    2    0    0  0.54508153283E+00  0.10374378900E+01 -0.13975493448E+00  0.11802214600E+01  0.00000000000E+00 0. -1.
         11    1    3    3    0    0 -0.16264806204E+02  0.51410043802E+01  0.12403925105E+02  0.21091021908E+02  0.51100000000E-03 0. -1.
        -11    1    3    3    0    0 -0.73679852471E+01  0.83606540041E+01  0.22271403077E+02  0.24903877957E+02  0.51100000000E-03 0.  1.
        -12    1    3    3    0    0  0.23087709918E+02 -0.14539096274E+02 -0.34535573248E+02  0.44012878675E+02  0.00000000000E+00 0.  1.
</event>
<event>
 7    1  0.3991301E-015  0.9000752E+02  0.7816164E-02  0.1186339E+00
        -11   -1    0    0    0    0  0.00000000000E+00  0.00000000000E+00  0.45593999997E+02  0.45594000000E+02  0.51100000000E-03 0. -1.
         11   -1    0    0    0    0 -0.00000000000E+00 -0.00000000000E+00 -0.45593999997E+02  0.45594000000E+02  0.51100000000E-03 0.  1.
    9900012    2    1    2    0    0 -0.99742124583E+00 -0.33360636664E+00 -0.53608245315E+00  0.90007522662E+02  0.89999781161E+02 0.  0.
         12    1    1    2    0    0  0.99742124583E+00  0.33360636664E+00  0.53608245315E+00  0.11804773382E+01  0.00000000000E+00 0. -1.
         11    1    3    3    0    0  0.56593630408E+00  0.18727135454E+02  0.31130280703E+02  0.36333459278E+02  0.51100000000E-03 0. -1.
        -11    1    3    3    0    0  0.20172298404E+00 -0.31515330431E+01  0.92307725117E+01  0.97560245033E+01  0.51100000000E-03 0.  1.
        -12    1    3    3    0    0 -0.17650805340E+01 -0.15909208778E+02 -0.40897135668E+02  0.43918038880E+02  0.00000000000E+00 0.  1.
</event>
<event>
 7    1  0.2490895E-015  0.9000878E+02  0.7816164E-02  0.1186337E+00
        -11   -1    0    0    0    0  0.00000000000E+00  0.00000000000E+00  0.45593999997E+02  0.45594000000E+02  0.51100000000E-03 0.  1.
         11   -1    0    0    0    0 -0.00000000000E+00 -0.00000000000E+00 -0.45593999997E+02  0.45594000000E+02  0.51100000000E-03 0. -1.
    9900012    2    1    2    0    0 -0.11536300931E+01  0.11599033417E+00  0.21506189098E+00  0.90008776626E+02  0.90001051671E+02 0.  0.
         12    1    1    2    0    0  0.11536300931E+01 -0.11599033417E+00 -0.21506189098E+00  0.11792233742E+01  0.00000000000E+00 0. -1.
         11    1    3    3    0    0 -0.35750847589E+01 -0.80641138987E+01 -0.49297063004E+01  0.10105106059E+02  0.51100000000E-03 0. -1.
        -11    1    3    3    0    0 -0.35464134320E+02  0.18389179470E+02 -0.20998465639E+01  0.40003451107E+02  0.51100000000E-03 0.  1.
         12    1    3    3    0    0  0.37885588985E+02 -0.10209075237E+02  0.72446147552E+01  0.39900219459E+02  0.00000000000E+00 0. -1.
</event>
<event>
 7    1  0.2490895E-015  0.9000775E+02  0.7816164E-02  0.1186339E+00
        -11   -1    0    0    0    0  0.00000000000E+00  0.00000000000E+00  0.45593999997E+02  0.45594000000E+02  0.51100000000E-03 0.  1.
         11   -1    0    0    0    0 -0.00000000000E+00 -0.00000000000E+00 -0.45593999997E+02  0.45594000000E+02  0.51100000000E-03 0. -1.
    9900012    2    1    2    0    0 -0.43711682321E+00 -0.44996441452E+00  0.99972757391E+00  0.90007748199E+02  0.90000009675E+02 0.  0.
         12    1    1    2    0    0  0.43711682321E+00  0.44996441452E+00 -0.99972757391E+00  0.11802518009E+01  0.00000000000E+00 0. -1.
         11    1    3    3    0    0  0.69505554654E+01  0.92374201860E+00 -0.60656074523E+01  0.92711981222E+01  0.51100000000E-03 0. -1.
        -11    1    3    3    0    0  0.32816634031E+02 -0.83184377683E+01 -0.11712130338E+02  0.35823203002E+02  0.51100000000E-03 0.  1.
         12    1    3    3    0    0 -0.40204306320E+02  0.69447313352E+01  0.18777465364E+02  0.44913347075E+02  0.00000000000E+00 0. -1.
</event>
<event>
 7    1  0.2490895E-015  0.9000771E+02  0.7816164E-02  0.1186339E+00
        -11   -1    0    0    0    0  0.00000000000E+00  0.00000000000E+00  0.45593999997E+02  0.45594000000E+02  0.51100000000E-03 0. -1.
         11   -1    0    0    0    0 -0.00000000000E+00 -0.00000000000E+00 -0.45593999997E+02  0.45594000000E+02  0.51100000000E-03 0.  1.
    9900012    2    1    2    0    0  0.86950964964E+00  0.18732817989E+00 -0.77584911928E+00  0.90007711589E+02  0.89999972582E+02 0.  0.
         12    1    1    2    0    0 -0.86950964964E+00 -0.18732817989E+00  0.77584911928E+00  0.11802884112E+01  0.00000000000E+00 0. -1.
         11    1    3    3    0    0 -0.76432970983E+01 -0.87003867443E-01 -0.64823852281E+01  0.10022418805E+02  0.51100000000E-03 0. -1.
        -11    1    3    3    0    0 -0.28317960580E+02 -0.68851572595E+01  0.24452688452E+02  0.38042689898E+02  0.51100000000E-03 0.  1.
         12    1    3    3    0    0  0.36830767328E+02  0.71594893068E+01 -0.18746152343E+02  0.41942602885E+02  0.00000000000E+00 0. -1.
</event>
<event>
 7    1  0.2490895E-015  0.9000771E+02  0.7816164E-02  0.1186339E+00
        -11   -1    0    0    0    0  0.00000000000E+00  0.00000000000E+00  0.45593999997E+02  0.45594000000E+02  0.51100000000E-03 0.  1.
         11   -1    0    0    0    0 -0.00000000000E+00 -0.00000000000E+00 -0.45593999997E+02  0.45594000000E+02  0.51100000000E-03 0. -1.
    9900012    2    1    2    0    0 -0.77193900222E+00  0.89285324124E+00 -0.29600770896E-02  0.90007709572E+02  0.89999970538E+02 0.  0.
         12    1    1    2    0    0  0.77193900222E+00 -0.89285324124E+00  0.29600770896E-02  0.11802904285E+01  0.00000000000E+00 0. -1.
         11    1    3    3    0    0 -0.98948599678E+00  0.35349755389E+02  0.84016154644E+01  0.36347921966E+02  0.51100000000E-03 0. -1.
        -11    1    3    3    0    0 -0.27414464840E+01  0.80178823813E+01 -0.71116419662E+01  0.11062432753E+02  0.51100000000E-03 0.  1.
        -12    1    3    3    0    0  0.29589934786E+01 -0.42474784529E+02 -0.12929335753E+01  0.42597354852E+02  0.00000000000E+00 0.  1.
</event>
<event>
 7    1  0.2490895E-015  0.9000775E+02  0.7816164E-02  0.1186339E+00
        -11   -1    0    0    0    0  0.00000000000E+00  0.00000000000E+00  0.45593999997E+02  0.45594000000E+02  0.51100000000E-03 0. -1.
         11   -1    0    0    0    0 -0.00000000000E+00 -0.00000000000E+00 -0.45593999997E+02  0.45594000000E+02  0.51100000000E-03 0.  1.
    9900012    2    1    2    0    0 -0.42625173424E+00 -0.11530774440E+00 -0.10945311157E+01  0.90007752238E+02  0.90000013767E+02 0.  0.
         12    1    1    2    0    0  0.42625173424E+00  0.11530774440E+00  0.10945311157E+01  0.11802477622E+01  0.00000000000E+00 0. -1.
         11    1    3    3    0    0  0.61166833230E+01 -0.51288360060E+01 -0.24443898155E+01  0.83482821875E+01  0.51100000000E-03 0. -1.
        -11    1    3    3    0    0 -0.32207944296E+02  0.24241186532E+02 -0.18062664727E+02  0.44172917694E+02  0.51100000000E-03 0.  1.
         12    1    3    3    0    0  0.25665009239E+02 -0.19227658271E+02  0.19412523427E+02  0.37486552357E+02  0.00000000000E+00 0. -1.
</event>
<event>
 7    1  0.2490895E-015  0.9000771E+02  0.7816164E-02  0.1186339E+00
        -11   -1    0    0    0    0  0.00000000000E+00  0.00000000000E+00  0.45593999997E+02  0.45594000000E+02  0.51100000000E-03 0.  1.
         11   -1    0    0    0    0 -0.00000000000E+00 -0.00000000000E+00 -0.45593999997E+02  0.45594000000E+02  0.51100000000E-03 0. -1.
    9900012    2    1    2    0    0  0.23727738728E+00 -0.90055483252E+00  0.72510634443E+00  0.90007712418E+02  0.89999973422E+02 0.  0.
         12    1    1    2    0    0 -0.23727738728E+00  0.90055483252E+00 -0.72510634443E+00  0.11802875817E+01  0.00000000000E+00 0. -1.
         11    1    3    3    0    0 -0.38120594535E+02 -0.13249617868E+01 -0.18171593944E+02  0.42250941743E+02  0.51100000000E-03 0. -1.
        -11    1    3    3    0    0  0.43006595839E+01 -0.76826688181E+01  0.46841281373E+01  0.99729699535E+01  0.51100000000E-03 0.  1.
        -12    1    3    3    0    0  0.34057212338E+02  0.81070757724E+01  0.14212572152E+02  0.37783800722E+02  0.00000000000E+00 0.  1.
</event>
<event>
 7    1  0.2490895E-015  0.9000773E+02  0.7816164E-02  0.1186339E+00
        -11   -1    0    0    0    0  0.00000000000E+00  0.00000000000E+00  0.45593999997E+02  0.45594000000E+02  0.51100000000E-03 0. -1.
         11   -1    0    0    0    0 -0.00000000000E+00 -0.00000000000E+00 -0.45593999997E+02  0.45594000000E+02  0.51100000000E-03 0.  1.
    9900012    2    1    2    0    0  0.27156400022E+00 -0.11406167896E+01 -0.13524415150E+00  0.90007726876E+02  0.89999988071E+02 0.  0.
         12    1    1    2    0    0 -0.27156400022E+00  0.11406167896E+01  0.13524415150E+00  0.11802731241E+01  0.00000000000E+00 0. -1.
         11    1    3    3    0    0  0.15250125970E+02 -0.34250695118E+01  0.33467700140E+02  0.36937574313E+02  0.51100000000E-03 0. -1.
        -11    1    3    3    0    0 -0.17403164411E+01 -0.13910841008E+02 -0.64423156215E+00  0.14034074014E+02  0.51100000000E-03 0.  1.
        -12    1    3    3    0    0 -0.13238245528E+02  0.16195293730E+02 -0.32958712729E+02  0.39036078548E+02  0.00000000000E+00 0.  1.
</event>
<event>
 7    1  0.2490895E-015  0.9000788E+02  0.7816164E-02  0.1186339E+00
        -11   -1    0    0    0    0  0.00000000000E+00  0.00000000000E+00  0.45593999997E+02  0.45594000000E+02  0.51100000000E-03 0. -1.
         11   -1    0    0    0    0 -0.00000000000E+00 -0.00000000000E+00 -0.45593999997E+02  0.45594000000E+02  0.51100000000E-03 0.  1.
    9900012    2    1    2    0    0 -0.11592586699E+01  0.16045616722E+00 -0.15184701908E+00  0.90007879514E+02  0.90000142723E+02 0.  0.
         12    1    1    2    0    0  0.11592586699E+01 -0.16045616722E+00  0.15184701908E+00  0.11801204865E+01  0.00000000000E+00 0. -1.
         11    1    3    3    0    0  0.57334642528E+01  0.30008090557E+02  0.19721818461E+02  0.36363556411E+02  0.51100000000E-03 0. -1.
        -11    1    3    3    0    0 -0.51445231717E+01 -0.71539336402E+00  0.10380804045E+02  0.11607712919E+02  0.51100000000E-03 0.  1.
        -12    1    3    3    0    0 -0.17481997510E+01 -0.29132241025E+02 -0.30254469525E+02  0.42036610184E+02  0.00000000000E+00 0.  1.
</event>
<event>
 7    1  0.2490895E-015  0.9000777E+02  0.7816164E-02  0.1186339E+00
        -11   -1    0    0    0    0  0.00000000000E+00  0.00000000000E+00  0.45593999997E+02  0.45594000000E+02  0.51100000000E-03 0.  1.
         11   -1    0    0    0    0 -0.00000000000E+00 -0.00000000000E+00 -0.45593999997E+02  0.45594000000E+02  0.51100000000E-03 0. -1.
    9900012    2    1    2    0    0 -0.48767129347E+00  0.96846836316E+00  0.46603046097E+00  0.90007771780E+02  0.90000033567E+02 0.  0.
         12    1    1    2    0    0  0.48767129347E+00 -0.96846836316E+00 -0.46603046097E+00  0.11802282201E+01  0.00000000000E+00 0. -1.
         11    1    3    3    0    0 -0.31145409731E+01 -0.74223766750E+01  0.67370802583E+01  0.10496680030E+02  0.51100000000E-03 0. -1.
        -11    1    3    3    0    0  0.26045768453E+02 -0.10913043310E+02  0.23692857850E+02  0.36862285359E+02  0.51100000000E-03 0.  1.
         12    1    3    3    0    0 -0.23418898773E+02  0.19303888348E+02 -0.29963907647E+02  0.42648806391E+02  0.00000000000E+00 0. -1.
</event>
<event>
 7    1  0.2490895E-015  0.9000775E+02  0.7816164E-02  0.1186339E+00
        -11   -1    0    0    0    0  0.00000000000E+00  0.00000000000E+00  0.45593999997E+02  0.45594000000E+02  0.51100000000E-03 0. -1.
         11   -1    0    0    0    0 -0.00000000000E+00 -0.00000000000E+00 -0.45593999997E+02  0.45594000000E+02  0.51100000000E-03 0.  1.
    9900012    2    1    2    0    0  0.99468539714E+00  0.58941777505E+00 -0.23702401033E+00  0.90007748868E+02  0.90000010353E+02 0.  0.
         12    1    1    2    0    0 -0.99468539714E+00 -0.58941777505E+00  0.23702401033E+00  0.11802511319E+01  0.00000000000E+00 0. -1.
         11    1    3    3    0    0 -0.28333525843E+02  0.19852212775E+02  0.12605758620E+02  0.36821246440E+02  0.51100000000E-03 0. -1.
        -11    1    3    3    0    0  0.18449333069E+01  0.33445970899E+01  0.10131758219E+02  0.10827863754E+02  0.51100000000E-03 0.  1.
        -12    1    3    3    0    0  0.27483277933E+02 -0.22607392090E+02 -0.22974540850E+02  0.42358638674E+02  0.00000000000E+00 0.  1.
</event>
<event>
 7    1  0.2490895E-015  0.9000780E+02  0.7816164E-02  0.1186339E+00
        -11   -1    0    0    0    0  0.00000000000E+00  0.00000000000E+00  0.45593999997E+02  0.45594000000E+02  0.51100000000E-03 0.  1.
         11   -1    0    0    0    0 -0.00000000000E+00 -0.00000000000E+00 -0.45593999997E+02  0.45594000000E+02  0.51100000000E-03 0. -1.
    9900012    2    1    2    0    0 -0.67873399265E+00  0.25026418534E+00  0.93250738040E+00  0.90007795776E+02  0.90000057880E+02 0.  0.
         12    1    1    2    0    0  0.67873399265E+00 -0.25026418534E+00 -0.93250738040E+00  0.11802042237E+01  0.00000000000E+00 0. -1.
         11    1    3    3    0    0  0.29324991511E+01  0.36579201737E+02 -0.21641953794E+02  0.42602954302E+02  0.51100000000E-03 0. -1.
        -11    1    3    3    0    0 -0.10553691261E+01  0.24939468066E+01  0.82242709357E+00  0.28301874941E+01  0.51100000000E-03 0.  1.
        -12    1    3    3    0    0 -0.25558640177E+01 -0.38822884358E+02  0.21752034081E+02  0.44574653980E+02  0.00000000000E+00 0.  1.
</event>
<event>
 7    1  0.2490895E-015  0.9000776E+02  0.7816164E-02  0.1186339E+00
        -11   -1    0    0    0    0  0.00000000000E+00  0.00000000000E+00  0.45593999997E+02  0.45594000000E+02  0.51100000000E-03 0.  1.
         11   -1    0    0    0    0 -0.00000000000E+00 -0.00000000000E+00 -0.45593999997E+02  0.45594000000E+02  0.51100000000E-03 0. -1.
    9900012    2    1    2    0    0  0.21333269071E+00 -0.28378126995E+00  0.11255739050E+01  0.90007763048E+02  0.90000024721E+02 0.  0.
         12    1    1    2    0    0 -0.21333269071E+00  0.28378126995E+00 -0.11255739050E+01  0.11802369515E+01  0.00000000000E+00 0. -1.
         11    1    3    3    0    0 -0.20868582413E+01 -0.26128304849E+01 -0.10522489468E+02  0.11041043670E+02  0.51100000000E-03 0. -1.
        -11    1    3    3    0    0  0.35473351865E+02 -0.11215993599E+02 -0.80675130310E+01  0.38068910830E+02  0.51100000000E-03 0.  1.
         12    1    3    3    0    0 -0.33173160933E+02  0.13545042814E+02  0.19715576404E+02  0.40897808549E+02  0.00000000000E+00 0. -1.
</event>
<event>
 7    1  0.2490895E-015  0.9000780E+02  0.7816164E-02  0.1186339E+00
        -11   -1    0    0    0    0  0.00000000000E+00  0.00000000000E+00  0.45593999997E+02  0.45594000000E+02  0.51100000000E-03 0.  1.
         11   -1    0    0    0    0 -0.00000000000E+00 -0.00000000000E+00 -0.45593999997E+02  0.45594000000E+02  0.51100000000E-03 0. -1.
    9900012    2    1    2    0    0  0.74605509030E+00  0.23006570009E+00  0.88506781164E+00  0.90007799400E+02  0.90000061552E+02 0.  0.
         12    1    1    2    0    0 -0.74605509030E+00 -0.23006570009E+00 -0.88506781164E+00  0.11802005996E+01  0.00000000000E+00 0. -1.
         11    1    3    3    0    0 -0.25359450620E+02 -0.31250464845E+02 -0.87453613464E+01  0.41184640755E+02  0.51100000000E-03 0. -1.
        -11    1    3    3    0    0 -0.42064418598E+01  0.87447410293E+01  0.40844355265E+01  0.10528402662E+02  0.51100000000E-03 0.  1.
        -12    1    3    3    0    0  0.30311947570E+02  0.22735789516E+02  0.55459936316E+01  0.38294755983E+02  0.00000000000E+00 0.  1.
</event>
<event>
 7    1  0.2490895E-015  0.9000767E+02  0.7816164E-02  0.1186339E+00
        -11   -1    0    0    0    0  0.00000000000E+00  0.00000000000E+00  0.45593999997E+02  0.45594000000E+02  0.51100000000E-03 0. -1.
         11   -1    0    0    0    0 -0.00000000000E+00 -0.00000000000E+00 -0.45593999997E+02  0.45594000000E+02  0.51100000000E-03 0.  1.
    9900012    2    1    2    0    0  0.82235967658E+00 -0.72737550027E+00  0.43339274947E+00  0.90007669609E+02  0.89999930048E+02 0.  0.
         12    1    1    2    0    0 -0.82235967658E+00  0.72737550027E+00 -0.43339274947E+00  0.11803303908E+01  0.00000000000E+00 0. -1.
         11    1    3    3    0    0  0.26698053902E+01  0.12891395755E+02  0.34349984105E+02  0.36786374565E+02  0.51100000000E-03 0. -1.
        -11    1    3    3    0    0  0.12310904911E+02  0.16210360357E+01  0.11276456022E+01  0.12468268621E+02  0.51100000000E-03 0.  1.
        -12    1    3    3    0    0 -0.14158350624E+02 -0.15239807291E+02 -0.35044236958E+02  0.40753026423E+02  0.00000000000E+00 0.  1.
</event>
<event>
 7    1  0.2490895E-015  0.9000667E+02  0.7816164E-02  0.1186341E+00
        -11   -1    0    0    0    0  0.00000000000E+00  0.00000000000E+00  0.45593999997E+02  0.45594000000E+02  0.51100000000E-03 0.  1.
         11   -1    0    0    0    0 -0.00000000000E+00 -0.00000000000E+00 -0.45593999997E+02  0.45594000000E+02  0.51100000000E-03 0. -1.
    9900012    2    1    2    0    0  0.11757630896E+01 -0.10461056926E+00  0.46675594155E-01  0.90006669892E+02  0.89998917128E+02 0.  0.
         12    1    1    2    0    0 -0.11757630896E+01  0.10461056926E+00 -0.46675594155E-01  0.11813301084E+01  0.00000000000E+00 0. -1.
         11    1    3    3    0    0 -0.29722713506E+01 -0.65750432349E+01  0.15751345210E+01  0.73855696830E+01  0.51100000000E-03 0. -1.
        -11    1    3    3    0    0 -0.18899720204E+02 -0.31949639545E+02  0.45841877593E+01  0.37403123780E+02  0.51100000000E-03 0.  1.
         12    1    3    3    0    0  0.23047754644E+02  0.38420072210E+02 -0.61126466861E+01  0.45217976429E+02  0.00000000000E+00 0. -1.
</event>
<event>
 7    1  0.2490895E-015  0.9000784E+02  0.7816164E-02  0.1186339E+00
        -11   -1    0    0    0    0  0.00000000000E+00  0.00000000000E+00  0.45593999997E+02  0.45594000000E+02  0.51100000000E-03 0.  1.
         11   -1    0    0    0    0 -0.00000000000E+00 -0.00000000000E+00 -0.45593999997E+02  0.45594000000E+02  0.51100000000E-03 0. -1.
    9900012    2    1    2    0    0  0.99590870282E+00 -0.62260680811E+00  0.11534495431E+00  0.90007839909E+02  0.90000102596E+02 0.  0.
         12    1    1    2    0    0 -0.99590870282E+00  0.62260680811E+00 -0.11534495431E+00  0.11801600910E+01  0.00000000000E+00 0. -1.
         11    1    3    3    0    0  0.14458946989E+01 -0.13001921038E+02 -0.35405560158E+02  0.37745122235E+02  0.51100000000E-03 0. -1.
        -11    1    3    3    0    0 -0.58084789679E+01 -0.68508680977E+01 -0.24969317375E+01  0.93224186762E+01  0.51100000000E-03 0.  1.
        -12    1    3    3    0    0  0.53584929718E+01  0.19230182327E+02  0.38017836850E+02  0.42940298998E+02  0.00000000000E+00 0.  1.
</event>
<event>
 7    1  0.2490895E-015  0.9000767E+02  0.7816164E-02  0.1186339E+00
        -11   -1    0    0    0    0  0.00000000000E+00  0.00000000000E+00  0.45593999997E+02  0.45594000000E+02  0.51100000000E-03 0. -1.
         11   -1    0    0    0    0 -0.00000000000E+00 -0.00000000000E+00 -0.45593999997E+02  0.45594000000E+02  0.51100000000E-03 0.  1.
    9900012    2    1    2    0    0 -0.10930951035E+01  0.16533151510E+00 -0.41351669781E+00  0.90007666371E+02  0.89999926768E+02 0.  0.
         12    1    1    2    0    0  0.10930951035E+01 -0.16533151510E+00  0.41351669781E+00  0.11803336285E+01  0.00000000000E+00 0. -1.
         11    1    3    3    0    0  0.10705561558E+02 -0.48374492834E+01  0.34528954624E+01  0.12244690734E+02  0.51100000000E-03 0. -1.
        -11    1    3    3    0    0  0.18791313009E+02  0.30309505562E+02  0.75511867975E+01  0.36452709012E+02  0.51100000000E-03 0.  1.
         12    1    3    3    0    0 -0.30589969670E+02 -0.25306724764E+02 -0.11417598958E+02  0.41310266625E+02  0.00000000000E+00 0. -1.
</event>
<event>
 7    1  0.2490895E-015  0.9000772E+02  0.7816164E-02  0.1186339E+00
        -11   -1    0    0    0    0  0.00000000000E+00  0.00000000000E+00  0.45593999997E+02  0.45594000000E+02  0.51100000000E-03 0. -1.
         11   -1    0    0    0    0 -0.00000000000E+00 -0.00000000000E+00 -0.45593999997E+02  0.45594000000E+02  0.51100000000E-03 0.  1.
    9900012    2    1    2    0    0  0.41888833890E+00  0.10757010823E+01 -0.24588921803E+00  0.90007719624E+02  0.89999980723E+02 0.  0.
         12    1    1    2    0    0 -0.41888833890E+00 -0.10757010823E+01  0.24588921803E+00  0.11802803762E+01  0.00000000000E+00 0. -1.
         11    1    3    3    0    0 -0.27295614515E+01  0.41925845944E+01  0.89849083068E+01  0.10283814897E+02  0.51100000000E-03 0. -1.
        -11    1    3    3    0    0 -0.16947797070E+02 -0.28415447914E+02 -0.27131192292E+02  0.42787464299E+02  0.51100000000E-03 0.  1.
         12    1    3    3    0    0  0.20096246860E+02  0.25298564402E+02  0.17900394767E+02  0.36936440428E+02  0.00000000000E+00 0. -1.
</event>
<event>
 7    1  0.2490895E-015  0.9000787E+02  0.7816164E-02  0.1186339E+00
        -11   -1    0    0    0    0  0.00000000000E+00  0.00000000000E+00  0.45593999997E+02  0.45594000000E+02  0.51100000000E-03 0. -1.
         11   -1    0    0    0    0 -0.00000000000E+00 -0.00000000000E+00 -0.45593999997E+02  0.45594000000E+02  0.51100000000E-03 0.  1.
    9900012    2    1    2    0    0 -0.43167762803E+00 -0.10272660505E+01 -0.38870323185E+00  0.90007868094E+02  0.90000131153E+02 0.  0.
         12    1    1    2    0    0  0.43167762803E+00  0.10272660505E+01  0.38870323185E+00  0.11801319060E+01  0.00000000000E+00 0. -1.
         11    1    3    3    0    0 -0.12682993694E+02  0.31635461402E+02  0.80985796885E+01  0.35032095861E+02  0.51100000000E-03 0. -1.
        -11    1    3    3    0    0  0.28396749255E+01  0.94744178548E+01  0.29310685046E+01  0.10315983240E+02  0.51100000000E-03 0.  1.
        -12    1    3    3    0    0  0.94116411401E+01 -0.42137145308E+02 -0.11418351425E+02  0.44659788993E+02  0.00000000000E+00 0.  1.
</event>
<event>
 7    1  0.2490895E-015  0.9000771E+02  0.7816164E-02  0.1186339E+00
        -11   -1    0    0    0    0  0.00000000000E+00  0.00000000000E+00  0.45593999997E+02  0.45594000000E+02  0.51100000000E-03 0.  1.
         11   -1    0    0    0    0 -0.00000000000E+00 -0.00000000000E+00 -0.45593999997E+02  0.45594000000E+02  0.51100000000E-03 0. -1.
    9900012    2    1    2    0    0  0.60367140620E+00  0.71972854536E+00  0.71460757876E+00  0.90007706673E+02  0.89999967601E+02 0.  0.
         12    1    1    2    0    0 -0.60367140620E+00 -0.71972854536E+00 -0.71460757876E+00  0.11802933268E+01  0.00000000000E+00 0. -1.
         11    1    3    3    0    0 -0.72860016032E+01  0.33955051435E+02 -0.18745389955E+02  0.39464173400E+02  0.51100000000E-03 0. -1.
        -11    1    3    3    0    0  0.73274187773E+01 -0.13022773829E+01 -0.61112862067E+01  0.96298915716E+01  0.51100000000E-03 0.  1.
        -12    1    3    3    0    0  0.56225423209E+00 -0.31933045507E+02  0.25571283740E+02  0.40913641702E+02  0.00000000000E+00 0.  1.
</event>
<event>
 7    1  0.2490895E-015  0.9000770E+02  0.7816164E-02  0.1186339E+00
        -11   -1    0    0    0    0  0.00000000000E+00  0.00000000000E+00  0.45593999997E+02  0.45594000000E+02  0.51100000000E-03 0. -1.
         11   -1    0    0    0    0 -0.00000000000E+00 -0.00000000000E+00 -0.45593999997E+02  0.45594000000E+02  0.51100000000E-03 0.  1.
    9900012    2    1    2    0    0  0.39309160109E+00 -0.10826810953E+01  0.25763779336E+00  0.90007704870E+02  0.89999965774E+02 0.  0.
         12    1    1    2    0    0 -0.39309160109E+00  0.10826810953E+01 -0.25763779336E+00  0.11802951298E+01  0.00000000000E+00 0. -1.
         11    1    3    3    0    0 -0.48621248985E+00  0.18038962093E+00 -0.92866403417E+01  0.93011091864E+01  0.51100000000E-03 0. -1.
        -11    1    3    3    0    0 -0.90585632909E+01 -0.37653361533E+02 -0.72732444653E+01  0.39404736885E+02  0.51100000000E-03 0.  1.
         12    1    3    3    0    0  0.99378673818E+01  0.36390290817E+02  0.16817522600E+02  0.41301858799E+02  0.00000000000E+00 0. -1.
</event>
<event>
 7    1  0.2490895E-015  0.9000822E+02  0.7816164E-02  0.1186338E+00
        -11   -1    0    0    0    0  0.00000000000E+00  0.00000000000E+00  0.45593999997E+02  0.45594000000E+02  0.51100000000E-03 0. -1.
         11   -1    0    0    0    0 -0.00000000000E+00 -0.00000000000E+00 -0.45593999997E+02  0.45594000000E+02  0.51100000000E-03 0.  1.
    9900012    2    1    2    0    0  0.29281766452E+00 -0.85479048968E+00  0.75859182592E+00  0.90008224375E+02  0.90000492136E+02 0.  0.
         12    1    1    2    0    0 -0.29281766452E+00  0.85479048968E+00 -0.75859182592E+00  0.11797756245E+01  0.00000000000E+00 0. -1.
         11    1    3    3    0    0  0.15648323136E+02  0.23905448136E+02  0.26795153723E+02  0.39170406315E+02  0.51100000000E-03 0. -1.
        -11    1    3    3    0    0 -0.49546640949E+01 -0.48407190643E+00  0.69701859183E+01  0.85654254945E+01  0.51100000000E-03 0.  1.
        -12    1    3    3    0    0 -0.10400841376E+02 -0.24276166720E+02 -0.33006747815E+02  0.42272392566E+02  0.00000000000E+00 0.  1.
</event>
<event>
 7    1  0.2490895E-015  0.9000788E+02  0.7816164E-02  0.1186339E+00
        -11   -1    0    0    0    0  0.00000000000E+00  0.00000000000E+00  0.45593999997E+02  0.45594000000E+02  0.51100000000E-03 0.  1.
         11   -1    0    0    0    0 -0.00000000000E+00 -0.00000000000E+00 -0.45593999997E+02  0.45594000000E+02  0.51100000000E-03 0. -1.
    9900012    2    1    2    0    0 -0.10169336610E+01  0.34963850790E+00 -0.48608606123E+00  0.90007881016E+02  0.90000144246E+02 0.  0.
         12    1    1    2    0    0  0.10169336610E+01 -0.34963850790E+00  0.48608606123E+00  0.11801189838E+01  0.00000000000E+00 0. -1.
         11    1    3    3    0    0  0.51259260998E+01  0.51990956607E+01  0.86147899140E+01  0.11292489521E+02  0.51100000000E-03 0. -1.
        -11    1    3    3    0    0  0.34202177987E+02  0.17317642039E+01 -0.15048870844E+02  0.37406637115E+02  0.51100000000E-03 0.  1.
         12    1    3    3    0    0 -0.40345037748E+02 -0.65812213567E+01  0.59479948692E+01  0.41308754379E+02  0.00000000000E+00 0. -1.
</event>
<event>
 7    1  0.2490895E-015  0.9000773E+02  0.7816164E-02  0.1186339E+00
        -11   -1    0    0    0    0  0.00000000000E+00  0.00000000000E+00  0.45593999997E+02  0.45594000000E+02  0.51100000000E-03 0. -1.
         11   -1    0    0    0    0 -0.00000000000E+00 -0.00000000000E+00 -0.45593999997E+02  0.45594000000E+02  0.51100000000E-03 0.  1.
    9900012    2    1    2    0    0 -0.54890441707E+00 -0.10170366347E+00 -0.10399036030E+01  0.90007729185E+02  0.89999990410E+02 0.  0.
         12    1    1    2    0    0  0.54890441707E+00  0.10170366347E+00  0.10399036030E+01  0.11802708155E+01  0.00000000000E+00 0. -1.
         11    1    3    3    0    0 -0.23748044668E+01 -0.85027839793E+01  0.42916461478E+01  0.98160714429E+01  0.51100000000E-03 0. -1.
        -11    1    3    3    0    0  0.33070797337E+02  0.95440320818E+01  0.20125910787E+02  0.39872527762E+02  0.51100000000E-03 0.  1.
         12    1    3    3    0    0 -0.31244897287E+02 -0.11429517660E+01 -0.25457460538E+02  0.40319129979E+02  0.00000000000E+00 0. -1.
</event>
<event>
 7    1  0.2490895E-015  0.9000894E+02  0.7816164E-02  0.1186337E+00
        -11   -1    0    0    0    0  0.00000000000E+00  0.00000000000E+00  0.45593999997E+02  0.45594000000E+02  0.51100000000E-03 0. -1.
         11   -1    0    0    0    0 -0.00000000000E+00 -0.00000000000E+00 -0.45593999997E+02  0.45594000000E+02  0.51100000000E-03 0.  1.
    9900012    2    1    2    0    0 -0.38163055439E+00  0.69669373289E+00 -0.87129697557E+00  0.90008940011E+02  0.90001217211E+02 0.  0.
         12    1    1    2    0    0  0.38163055439E+00 -0.69669373289E+00  0.87129697557E+00  0.11790599888E+01  0.00000000000E+00 0. -1.
         11    1    3    3    0    0  0.82793625504E+01  0.15204568591E+01  0.60210976576E+01  0.10349553158E+02  0.51100000000E-03 0. -1.
        -11    1    3    3    0    0  0.31103118330E+02  0.17009206285E+02 -0.67075258668E+01  0.36079190288E+02  0.51100000000E-03 0.  1.
         12    1    3    3    0    0 -0.39764111435E+02 -0.17832969412E+02 -0.18486876640E+00  0.43580196566E+02  0.00000000000E+00 0. -1.
</event>
<event>
 7    1  0.2490895E-015  0.9000773E+02  0.7816164E-02  0.1186339E+00
        -11   -1    0    0    0    0  0.00000000000E+00  0.00000000000E+00  0.45593999997E+02  0.45594000000E+02  0.51100000000E-03 0.  1.
         11   -1    0    0    0    0 -0.00000000000E+00 -0.00000000000E+00 -0.45593999997E+02  0.45594000000E+02  0.51100000000E-03 0. -1.
    9900012    2    1    2    0    0  0.49213514545E+00 -0.91488482870E+00  0.56020758198E+00  0.90007727241E+02  0.89999988440E+02 0.  0.
         12    1    1    2    0    0 -0.49213514545E+00  0.91488482870E+00 -0.56020758198E+00  0.11802727592E+01  0.00000000000E+00 0. -1.
         11    1    3    3    0    0 -0.20671527548E+02 -0.32978852950E+01 -0.33748841196E+02  0.39713629662E+02  0.51100000000E-03 0. -1.
        -11    1    3    3    0    0 -0.62668179063E+01  0.54587504296E+01  0.37594031728E+01  0.91216267957E+01  0.51100000000E-03 0.  1.
        -12    1    3    3    0    0  0.27430480600E+02 -0.30757499633E+01  0.30549645606E+02  0.41172470783E+02  0.00000000000E+00 0.  1.
</event>
<event>
 7    1  0.2490895E-015  0.9000774E+02  0.7816164E-02  0.1186339E+00
        -11   -1    0    0    0    0  0.00000000000E+00  0.00000000000E+00  0.45593999997E+02  0.45594000000E+02  0.51100000000E-03 0. -1.
         11   -1    0    0    0    0 -0.00000000000E+00 -0.00000000000E+00 -0.45593999997E+02  0.45594000000E+02  0.51100000000E-03 0.  1.
    9900012    2    1    2    0    0  0.85610786104E+00  0.37496900416E+00 -0.72075112475E+00  0.90007743838E+02  0.90000005257E+02 0.  0.
         12    1    1    2    0    0 -0.85610786104E+00 -0.37496900416E+00  0.72075112475E+00  0.11802561619E+01  0.00000000000E+00 0. -1.
         11    1    3    3    0    0  0.22085600292E+01  0.69215594146E+01 -0.66583346439E+01  0.98549044959E+01  0.51100000000E-03 0. -1.
        -11    1    3    3    0    0 -0.35518672166E+02 -0.56958993923E+00 -0.16160514032E+02  0.39026436157E+02  0.51100000000E-03 0.  1.
         12    1    3    3    0    0  0.34166219998E+02 -0.59770004712E+01  0.22098097551E+02  0.41126403185E+02  0.00000000000E+00 0. -1.
</event>
<event>
 7    1  0.2490895E-015  0.9000780E+02  0.7816164E-02  0.1186339E+00
        -11   -1    0    0    0    0  0.00000000000E+00  0.00000000000E+00  0.45593999997E+02  0.45594000000E+02  0.51100000000E-03 0.  1.
         11   -1    0    0    0    0 -0.00000000000E+00 -0.00000000000E+00 -0.45593999997E+02  0.45594000000E+02  0.51100000000E-03 0. -1.
    9900012    2    1    2    0    0 -0.24420101895E+00  0.49219505395E+00  0.10444973732E+01  0.90007803037E+02  0.90000065237E+02 0.  0.
         12    1    1    2    0    0  0.24420101895E+00 -0.49219505395E+00 -0.10444973732E+01  0.11801969630E+01  0.00000000000E+00 0. -1.
         11    1    3    3    0    0 -0.10085164224E+02 -0.33828845901E+01  0.64020004153E+01  0.12415315347E+02  0.51100000000E-03 0. -1.
        -11    1    3    3    0    0 -0.17427692596E+02  0.28809929843E+02  0.13295510885E+02  0.36200927291E+02  0.51100000000E-03 0.  1.
         12    1    3    3    0    0  0.27268655802E+02 -0.24934850199E+02 -0.18653013927E+02  0.41391560399E+02  0.00000000000E+00 0. -1.
</event>
<event>
 7    1  0.2490895E-015  0.9000774E+02  0.7816164E-02  0.1186339E+00
        -11   -1    0    0    0    0  0.00000000000E+00  0.00000000000E+00  0.45593999997E+02  0.45594000000E+02  0.51100000000E-03 0.  1.
         11   -1    0    0    0    0 -0.00000000000E+00 -0.00000000000E+00 -0.45593999997E+02  0.45594000000E+02  0.51100000000E-03 0. -1.
    9900012    2    1    2    0    0 -0.15135702580E+00  0.10618595221E+01 -0.49249513358E+00  0.90007743227E+02  0.90000004637E+02 0.  0.
         12    1    1    2    0    0  0.15135702580E+00 -0.10618595221E+01  0.49249513358E+00  0.11802567731E+01  0.00000000000E+00 0. -1.
         11    1    3    3    0    0 -0.76734310417E+00  0.26760584697E+00  0.91108410089E+01  0.91470133093E+01  0.51100000000E-03 0. -1.
        -11    1    3    3    0    0 -0.33923297536E+02  0.91801639365E+01  0.14392214674E+02  0.37976326430E+02  0.51100000000E-03 0.  1.
         12    1    3    3    0    0  0.34539283615E+02 -0.83859102614E+01 -0.23995550816E+02  0.42884403488E+02  0.00000000000E+00 0. -1.
</event>
<event>
 7    1  0.2490895E-015  0.9000771E+02  0.7816164E-02  0.1186339E+00
        -11   -1    0    0    0    0  0.00000000000E+00  0.00000000000E+00  0.45593999997E+02  0.45594000000E+02  0.51100000000E-03 0. -1.
         11   -1    0    0    0    0 -0.00000000000E+00 -0.00000000000E+00 -0.45593999997E+02  0.45594000000E+02  0.51100000000E-03 0.  1.
    9900012    2    1    2    0    0  0.76536135619E+00  0.85474753746E+00  0.27698810843E+00  0.90007706066E+02  0.89999966986E+02 0.  0.
         12    1    1    2    0    0 -0.76536135619E+00 -0.85474753746E+00 -0.27698810843E+00  0.11802939340E+01  0.00000000000E+00 0. -1.
         11    1    3    3    0    0 -0.25433109096E+02 -0.15210416703E+02 -0.19975300470E+02  0.35738109123E+02  0.51100000000E-03 0. -1.
        -11    1    3    3    0    0 -0.87941260071E+01 -0.22970417648E+00 -0.28943455469E+01  0.92610287033E+01  0.51100000000E-03 0.  1.
        -12    1    3    3    0    0  0.34992596459E+02  0.16294868417E+02  0.23146634125E+02  0.45008568240E+02  0.00000000000E+00 0.  1.
</event>
<event>
 7    1  0.2490895E-015  0.9000775E+02  0.7816164E-02  0.1186339E+00
        -11   -1    0    0    0    0  0.00000000000E+00  0.00000000000E+00  0.45593999997E+02  0.45594000000E+02  0.51100000000E-03 0. -1.
         11   -1    0    0    0    0 -0.00000000000E+00 -0.00000000000E+00 -0.45593999997E+02  0.45594000000E+02  0.51100000000E-03 0.  1.
    9900012    2    1    2    0    0  0.26757062682E+00  0.96634523853E+00 -0.62254720141E+00  0.90007753340E+02  0.90000014884E+02 0.  0.
         12    1    1    2    0    0 -0.26757062682E+00 -0.96634523853E+00  0.62254720141E+00  0.11802466600E+01  0.00000000000E+00 0. -1.
         11    1    3    3    0    0  0.18026995485E+02 -0.21738073268E+02  0.22792860890E+02  0.36290920399E+02  0.51100000000E-03 0. -1.
        -11    1    3    3    0    0 -0.11451469396E+02 -0.55723878720E+01  0.44781542767E+01  0.13499686067E+02  0.51100000000E-03 0.  1.
        -12    1    3    3    0    0 -0.63079554622E+01  0.28276806379E+02 -0.27893562368E+02  0.40217146874E+02  0.00000000000E+00 0.  1.
</event>
<event>
 7    1  0.2490895E-015  0.9000760E+02  0.7816164E-02  0.1186339E+00
        -11   -1    0    0    0    0  0.00000000000E+00  0.00000000000E+00  0.45593999997E+02  0.45594000000E+02  0.51100000000E-03 0. -1.
         11   -1    0    0    0    0 -0.00000000000E+00 -0.00000000000E+00 -0.45593999997E+02  0.45594000000E+02  0.51100000000E-03 0.  1.
    9900012    2    1    2    0    0 -0.31580951087E+00  0.88448320492E+00  0.71504971495E+00  0.90007600796E+02  0.89999860326E+02 0.  0.
         12    1    1    2    0    0  0.31580951087E+00 -0.88448320492E+00 -0.71504971495E+00  0.11803992044E+01  0.00000000000E+00 0. -1.
         11    1    3    3    0    0  0.80173682946E+01 -0.20934995244E+01  0.39957523106E+01  0.91992918976E+01  0.51100000000E-03 0. -1.
        -11    1    3    3    0    0  0.35920850300E+02 -0.31440472379E+01 -0.20317246010E+01  0.36115376565E+02  0.51100000000E-03 0.  1.
         12    1    3    3    0    0 -0.44254028106E+02  0.61220299672E+01 -0.12489779946E+01  0.44692932333E+02  0.00000000000E+00 0. -1.
</event>
<event>
 7    1  0.2490895E-015  0.9000750E+02  0.7816164E-02  0.1186340E+00
        -11   -1    0    0    0    0  0.00000000000E+00  0.00000000000E+00  0.45593999997E+02  0.45594000000E+02  0.51100000000E-03 0.  1.
         11   -1    0    0    0    0 -0.00000000000E+00 -0.00000000000E+00 -0.45593999997E+02  0.45594000000E+02  0.51100000000E-03 0. -1.
    9900012    2    1    2    0    0  0.63284473505E-01  0.12004333002E+00  0.11726783302E+01  0.90007495959E+02  0.89999754105E+02 0.  0.
         12    1    1    2    0    0 -0.63284473505E-01 -0.12004333002E+00 -0.11726783302E+01  0.11805040414E+01  0.00000000000E+00 0. -1.
         11    1    3    3    0    0 -0.87676864645E+01  0.18885467527E+02 -0.31661184340E+02  0.37894113048E+02  0.51100000000E-03 0. -1.
        -11    1    3    3    0    0 -0.58319456199E+01 -0.56431174214E+01 -0.49549675892E+01  0.95083157298E+01  0.51100000000E-03 0.  1.
        -12    1    3    3    0    0  0.14662916558E+02 -0.13122306775E+02  0.37788830259E+02  0.42605067181E+02  0.00000000000E+00 0.  1.
</event>
<event>
 7    1  0.2490895E-015  0.9000782E+02  0.7816164E-02  0.1186339E+00
        -11   -1    0    0    0    0  0.00000000000E+00  0.00000000000E+00  0.45593999997E+02  0.45594000000E+02  0.51100000000E-03 0. -1.
         11   -1    0    0    0    0 -0.00000000000E+00 -0.00000000000E+00 -0.45593999997E+02  0.45594000000E+02  0.51100000000E-03 0.  1.
    9900012    2    1    2    0    0 -0.59363064912E+00 -0.88140733128E+00  0.51337930501E+00  0.90007815886E+02  0.90000078256E+02 0.  0.
         12    1    1    2    0    0  0.59363064912E+00  0.88140733128E+00 -0.51337930501E+00  0.11801841136E+01  0.00000000000E+00 0. -1.
         11    1    3    3    0    0 -0.25410515422E+02  0.53863589763E+01  0.32729678200E+02  0.41784434810E+02  0.51100000000E-03 0. -1.
        -11    1    3    3    0    0 -0.10011473576E+01 -0.69529142349E+01 -0.11935184015E+00  0.70256357372E+01  0.51100000000E-03 0.  1.
        -12    1    3    3    0    0  0.25818032131E+02  0.68514792725E+00 -0.32096947055E+02  0.41197745339E+02  0.00000000000E+00 0.  1.
</event>
<event>
 7    1  0.2490895E-015  0.9000777E+02  0.7816164E-02  0.1186339E+00
        -11   -1    0    0    0    0  0.00000000000E+00  0.00000000000E+00  0.45593999997E+02  0.45594000000E+02  0.51100000000E-03 0.  1.
         11   -1    0    0    0    0 -0.00000000000E+00 -0.00000000000E+00 -0.45593999997E+02  0.45594000000E+02  0.51100000000E-03 0. -1.
    9900012    2    1    2    0    0  0.68691066201E+00  0.93803661328E-01  0.95513648685E+00  0.90007774982E+02  0.90000036812E+02 0.  0.
         12    1    1    2    0    0 -0.68691066201E+00 -0.93803661328E-01 -0.95513648685E+00  0.11802250179E+01  0.00000000000E+00 0. -1.
         11    1    3    3    0    0 -0.27765045506E+02  0.23294630044E+02 -0.10807163624E+02  0.37819734619E+02  0.51100000000E-03 0. -1.
        -11    1    3    3    0    0 -0.14718499146E+01  0.69896674201E+01  0.59269497741E+01  0.92817308030E+01  0.51100000000E-03 0.  1.
        -12    1    3    3    0    0  0.29923806082E+02 -0.30190493803E+02  0.58353503370E+01  0.42906309560E+02  0.00000000000E+00 0.  1.
</event>
<event>
 7    1  0.2490895E-015  0.9000771E+02  0.7816164E-02  0.1186339E+00
        -11   -1    0    0    0    0  0.00000000000E+00  0.00000000000E+00  0.45593999997E+02  0.45594000000E+02  0.51100000000E-03 0.  1.
         11   -1    0    0    0    0 -0.00000000000E+00 -0.00000000000E+00 -0.45593999997E+02  0.45594000000E+02  0.51100000000E-03 0. -1.
    9900012    2    1    2    0    0  0.72529215181E+00 -0.10205230532E+00  0.92553277153E+00  0.90007714319E+02  0.89999975348E+02 0.  0.
         12    1    1    2    0    0 -0.72529215181E+00  0.10205230532E+00 -0.92553277153E+00  0.11802856814E+01  0.00000000000E+00 0. -1.
         11    1    3    3    0    0 -0.26615949793E+02  0.68350088966E+01  0.23696634129E+02  0.36285763039E+02  0.51100000000E-03 0. -1.
        -11    1    3    3    0    0 -0.59789059304E+01 -0.17850543233E+01  0.65451995105E+01  0.90428630397E+01  0.51100000000E-03 0.  1.
        -12    1    3    3    0    0  0.33320147875E+02 -0.51520068787E+01 -0.29316300868E+02  0.44679088240E+02  0.00000000000E+00 0.  1.
</event>
<event>
 7    1  0.2490895E-015  0.9000772E+02  0.7816164E-02  0.1186339E+00
        -11   -1    0    0    0    0  0.00000000000E+00  0.00000000000E+00  0.45593999997E+02  0.45594000000E+02  0.51100000000E-03 0.  1.
         11   -1    0    0    0    0 -0.00000000000E+00 -0.00000000000E+00 -0.45593999997E+02  0.45594000000E+02  0.51100000000E-03 0. -1.
    9900012    2    1    2    0    0 -0.73141640195E+00  0.67658146704E+00  0.63271439041E+00  0.90007720400E+02  0.89999981509E+02 0.  0.
         12    1    1    2    0    0  0.73141640195E+00 -0.67658146704E+00 -0.63271439041E+00  0.11802796001E+01  0.00000000000E+00 0. -1.
         11    1    3    3    0    0 -0.20607329499E+02  0.92991192647E+01 -0.19815493543E+02  0.30063090872E+02  0.51100000000E-03 0. -1.
        -11    1    3    3    0    0  0.17929657951E+02 -0.11644918036E+02 -0.13840278984E+02  0.25468216917E+02  0.51100000000E-03 0.  1.
        -12    1    3    3    0    0  0.19462551467E+01  0.30223802380E+01  0.34288486918E+02  0.34476412611E+02  0.00000000000E+00 0.  1.
</event>
<event>
 7    1  0.2490895E-015  0.9000773E+02  0.7816164E-02  0.1186339E+00
        -11   -1    0    0    0    0  0.00000000000E+00  0.00000000000E+00  0.45593999997E+02  0.45594000000E+02  0.51100000000E-03 0. -1.
         11   -1    0    0    0    0 -0.00000000000E+00 -0.00000000000E+00 -0.45593999997E+02  0.45594000000E+02  0.51100000000E-03 0.  1.
    9900012    2    1    2    0    0 -0.42327130258E+00 -0.30838733338E+00 -0.10577203239E+01  0.90007731545E+02  0.89999992801E+02 0.  0.
         12    1    1    2    0    0  0.42327130258E+00  0.30838733338E+00  0.10577203239E+01  0.11802684553E+01  0.00000000000E+00 0. -1.
         11    1    3    3    0    0 -0.35677218436E+01 -0.60406061984E+01  0.74426644297E+01  0.10227942925E+02  0.51100000000E-03 0. -1.
        -11    1    3    3    0    0  0.39302690881E+02  0.13636192385E+02  0.83182609990E+00  0.41609364188E+02  0.51100000000E-03 0.  1.
         12    1    3    3    0    0 -0.36158240340E+02 -0.79039735195E+01 -0.93322108535E+01  0.38170424432E+02  0.00000000000E+00 0. -1.
</event>
<event>
 7    1  0.2490895E-015  0.9000821E+02  0.7816164E-02  0.1186338E+00
        -11   -1    0    0    0    0  0.00000000000E+00  0.00000000000E+00  0.45593999997E+02  0.45594000000E+02  0.51100000000E-03 0.  1.
         11   -1    0    0    0    0 -0.00000000000E+00 -0.00000000000E+00 -0.45593999997E+02  0.45594000000E+02  0.51100000000E-03 0. -1.
    9900012    2    1    2    0    0  0.74605985220E+00 -0.71604025896E+00  0.56796873550E+00  0.90008208730E+02  0.90000476284E+02 0.  0.
         12    1    1    2    0    0 -0.74605985220E+00  0.71604025896E+00 -0.56796873550E+00  0.11797912697E+01  0.00000000000E+00 0. -1.
         11    1    3    3    0    0  0.17481662779E+02  0.12184127867E+02 -0.94869541608E+01  0.23325175346E+02  0.51100000000E-03 0. -1.
        -11    1    3    3    0    0  0.10367024070E+02  0.14622586144E+02 -0.12592871821E+02  0.21906063877E+02  0.51100000000E-03 0.  1.
        -12    1    3    3    0    0 -0.27102626997E+02 -0.27522754270E+02  0.22647794718E+02  0.44776969508E+02  0.00000000000E+00 0.  1.
</event>
<event>
 7    1  0.2490895E-015  0.9000770E+02  0.7816164E-02  0.1186339E+00
        -11   -1    0    0    0    0  0.00000000000E+00  0.00000000000E+00  0.45593999997E+02  0.45594000000E+02  0.51100000000E-03 0.  1.
         11   -1    0    0    0    0 -0.00000000000E+00 -0.00000000000E+00 -0.45593999997E+02  0.45594000000E+02  0.51100000000E-03 0. -1.
    9900012    2    1    2    0    0  0.45989644111E+00 -0.38682638751E+00  0.10158590520E+01  0.90007699613E+02  0.89999960448E+02 0.  0.
         12    1    1    2    0    0 -0.45989644111E+00  0.38682638751E+00 -0.10158590520E+01  0.11803003873E+01  0.00000000000E+00 0. -1.
         11    1    3    3    0    0 -0.18672477561E+01 -0.18922943097E+02 -0.32121005829E+02  0.37327247492E+02  0.51100000000E-03 0. -1.
        -11    1    3    3    0    0  0.46938949689E+01  0.53739010024E+01 -0.72288124306E+01  0.10157125153E+02  0.51100000000E-03 0.  1.
        -12    1    3    3    0    0 -0.23667507717E+01  0.13162215707E+02  0.40365677312E+02  0.42523326967E+02  0.00000000000E+00 0.  1.
</event>
<event>
 7    1  0.2490895E-015  0.9000774E+02  0.7816164E-02  0.1186339E+00
        -11   -1    0    0    0    0  0.00000000000E+00  0.00000000000E+00  0.45593999997E+02  0.45594000000E+02  0.51100000000E-03 0.  1.
         11   -1    0    0    0    0 -0.00000000000E+00 -0.00000000000E+00 -0.45593999997E+02  0.45594000000E+02  0.51100000000E-03 0. -1.
    9900012    2    1    2    0    0 -0.10033101633E+01  0.30815853364E+00  0.53984168362E+00  0.90007736466E+02  0.89999997788E+02 0.  0.
         12    1    1    2    0    0  0.10033101633E+01 -0.30815853364E+00 -0.53984168362E+00  0.11802635337E+01  0.00000000000E+00 0. -1.
         11    1    3    3    0    0  0.34771600221E+02 -0.16872171561E+01 -0.70548293141E+01  0.35520156257E+02  0.51100000000E-03 0. -1.
        -11    1    3    3    0    0  0.80626980584E+01 -0.54344701558E+00 -0.40778477431E+01  0.90515897564E+01  0.51100000000E-03 0.  1.
        -12    1    3    3    0    0 -0.43837608442E+02  0.25388227053E+01  0.11672518741E+02  0.45435990453E+02  0.00000000000E+00 0.  1.
</event>
<event>
 7    1  0.2490895E-015  0.9000800E+02  0.7816164E-02  0.1186339E+00
        -11   -1    0    0    0    0  0.00000000000E+00  0.00000000000E+00  0.45593999997E+02  0.45594000000E+02  0.51100000000E-03 0.  1.
         11   -1    0    0    0    0 -0.00000000000E+00 -0.00000000000E+00 -0.45593999997E+02  0.45594000000E+02  0.51100000000E-03 0. -1.
    9900012    2    1    2    0    0  0.47622351745E+00 -0.73353553686E+00  0.79217664571E+00  0.90007997008E+02  0.90000261768E+02 0.  0.
         12    1    1    2    0    0 -0.47622351745E+00  0.73353553686E+00 -0.79217664571E+00  0.11800029917E+01  0.00000000000E+00 0. -1.
         11    1    3    3    0    0 -0.80037952254E+01  0.53428236760E+00 -0.27925429245E+01  0.84937913740E+01  0.51100000000E-03 0. -1.
        -11    1    3    3    0    0  0.12251627211E+02  0.32630256297E+02  0.23482713377E+02  0.42027060605E+02  0.51100000000E-03 0.  1.
         12    1    3    3    0    0 -0.37716084685E+01 -0.33898074201E+02 -0.19897993807E+02  0.39487145029E+02  0.00000000000E+00 0. -1.
</event>
<event>
 7    1  0.2490895E-015  0.9000772E+02  0.7816164E-02  0.1186339E+00
        -11   -1    0    0    0    0  0.00000000000E+00  0.00000000000E+00  0.45593999997E+02  0.45594000000E+02  0.51100000000E-03 0.  1.
         11   -1    0    0    0    0 -0.00000000000E+00 -0.00000000000E+00 -0.45593999997E+02  0.45594000000E+02  0.51100000000E-03 0. -1.
    9900012    2    1    2    0    0 -0.44960609037E+00 -0.10016192972E+01 -0.43321785593E+00  0.90007718439E+02  0.89999979522E+02 0.  0.
         12    1    1    2    0    0  0.44960609037E+00  0.10016192972E+01  0.43321785593E+00  0.11802815612E+01  0.00000000000E+00 0. -1.
         11    1    3    3    0    0  0.20703158745E+02  0.32003703315E+02  0.10470686177E+02  0.39528383185E+02  0.51100000000E-03 0. -1.
        -11    1    3    3    0    0 -0.24183382888E+01  0.27723763016E+01 -0.93677042404E+01  0.10064209528E+02  0.51100000000E-03 0.  1.
        -12    1    3    3    0    0 -0.18734426546E+02 -0.35777698914E+02 -0.15361997928E+01  0.40415125726E+02  0.00000000000E+00 0.  1.
</event>
<event>
 7    1  0.2490895E-015  0.9000769E+02  0.7816164E-02  0.1186339E+00
        -11   -1    0    0    0    0  0.00000000000E+00  0.00000000000E+00  0.45593999997E+02  0.45594000000E+02  0.51100000000E-03 0. -1.
         11   -1    0    0    0    0 -0.00000000000E+00 -0.00000000000E+00 -0.45593999997E+02  0.45594000000E+02  0.51100000000E-03 0.  1.
    9900012    2    1    2    0    0  0.90537732672E+00  0.36336347147E+00 -0.66437748742E+00  0.90007687092E+02  0.89999947761E+02 0.  0.
         12    1    1    2    0    0 -0.90537732672E+00 -0.36336347147E+00  0.66437748742E+00  0.11803129085E+01  0.00000000000E+00 0. -1.
         11    1    3    3    0    0 -0.59797791745E+01  0.73659579233E+01  0.13204115018E+01  0.95790699913E+01  0.51100000000E-03 0. -1.
        -11    1    3    3    0    0 -0.23651222038E+02  0.26035816697E+02  0.22143319008E+01  0.35244110444E+02  0.51100000000E-03 0.  1.
         12    1    3    3    0    0  0.30536378539E+02 -0.33038411149E+02 -0.41991208899E+01  0.45184506656E+02  0.00000000000E+00 0. -1.
</event>
<event>
 7    1  0.2490895E-015  0.9000771E+02  0.7816164E-02  0.1186339E+00
        -11   -1    0    0    0    0  0.00000000000E+00  0.00000000000E+00  0.45593999997E+02  0.45594000000E+02  0.51100000000E-03 0. -1.
         11   -1    0    0    0    0 -0.00000000000E+00 -0.00000000000E+00 -0.45593999997E+02  0.45594000000E+02  0.51100000000E-03 0.  1.
    9900012    2    1    2    0    0 -0.96005469808E+00  0.64052064832E+00  0.24718826717E+00  0.90007714541E+02  0.89999975573E+02 0.  0.
         12    1    1    2    0    0  0.96005469808E+00 -0.64052064832E+00 -0.24718826717E+00  0.11802854585E+01  0.00000000000E+00 0. -1.
         11    1    3    3    0    0 -0.53459562855E+01  0.27292250180E+02  0.31140767751E+02  0.41751569849E+02  0.51100000000E-03 0. -1.
        -11    1    3    3    0    0 -0.67846545035E+01 -0.61599246139E+01  0.45343660990E+00  0.91750647410E+01  0.51100000000E-03 0.  1.
        -12    1    3    3    0    0  0.11170556091E+02 -0.20491804918E+02 -0.31347016094E+02  0.39081079951E+02  0.00000000000E+00 0.  1.
</event>
<event>
 7    1  0.2490895E-015  0.9000807E+02  0.7816164E-02  0.1186338E+00
        -11   -1    0    0    0    0  0.00000000000E+00  0.00000000000E+00  0.45593999997E+02  0.45594000000E+02  0.51100000000E-03 0. -1.
         11   -1    0    0    0    0 -0.00000000000E+00 -0.00000000000E+00 -0.45593999997E+02  0.45594000000E+02  0.51100000000E-03 0.  1.
    9900012    2    1    2    0    0  0.63864876133E-02 -0.52109581627E+00 -0.10586042219E+01  0.90008074352E+02  0.90000340132E+02 0.  0.
         12    1    1    2    0    0 -0.63864876133E-02  0.52109581627E+00  0.10586042219E+01  0.11799256483E+01  0.00000000000E+00 0. -1.
         11    1    3    3    0    0 -0.12487241610E+01  0.33172386279E+01 -0.99142545481E+01  0.10528809413E+02  0.51100000000E-03 0. -1.
        -11    1    3    3    0    0  0.13031381273E+02  0.10179837418E+02 -0.31270587318E+02  0.35373657136E+02  0.51100000000E-03 0.  1.
         12    1    3    3    0    0 -0.11776270624E+02 -0.14018171862E+02  0.40126237644E+02  0.44105607803E+02  0.00000000000E+00 0. -1.
</event>
<event>
 7    1  0.2490895E-015  0.9000782E+02  0.7816164E-02  0.1186339E+00
        -11   -1    0    0    0    0  0.00000000000E+00  0.00000000000E+00  0.45593999997E+02  0.45594000000E+02  0.51100000000E-03 0. -1.
         11   -1    0    0    0    0 -0.00000000000E+00 -0.00000000000E+00 -0.45593999997E+02  0.45594000000E+02  0.51100000000E-03 0.  1.
    9900012    2    1    2    0    0 -0.42827584832E+00  0.10297826454E+01 -0.38595260195E+00  0.90007817001E+02  0.90000079386E+02 0.  0.
         12    1    1    2    0    0  0.42827584832E+00 -0.10297826454E+01  0.38595260195E+00  0.11801829985E+01  0.00000000000E+00 0. -1.
         11    1    3    3    0    0 -0.11394418069E+02  0.32271501767E+01  0.13885948819E+00  0.11843417733E+02  0.51100000000E-03 0. -1.
        -11    1    3    3    0    0 -0.19606188537E+02 -0.29988062839E+02 -0.65168068080E+01  0.36416415433E+02  0.51100000000E-03 0.  1.
         12    1    3    3    0    0  0.30572330757E+02  0.27790695308E+02  0.59919947179E+01  0.41747983835E+02  0.00000000000E+00 0. -1.
</event>
<event>
 7    1  0.2490895E-015  0.9000777E+02  0.7816164E-02  0.1186339E+00
        -11   -1    0    0    0    0  0.00000000000E+00  0.00000000000E+00  0.45593999997E+02  0.45594000000E+02  0.51100000000E-03 0.  1.
         11   -1    0    0    0    0 -0.00000000000E+00 -0.00000000000E+00 -0.45593999997E+02  0.45594000000E+02  0.51100000000E-03 0. -1.
    9900012    2    1    2    0    0 -0.50022813644E+00  0.10634464175E+01  0.10858284200E+00  0.90007772605E+02  0.90000034403E+02 0.  0.
         12    1    1    2    0    0  0.50022813644E+00 -0.10634464175E+01 -0.10858284200E+00  0.11802273954E+01  0.00000000000E+00 0. -1.
         11    1    3    3    0    0 -0.87955166101E+00 -0.20457308344E+02  0.43064785830E+01  0.20924168654E+02  0.51100000000E-03 0. -1.
        -11    1    3    3    0    0 -0.15313672180E+02 -0.44062517688E+00  0.25000000778E+02  0.29320688010E+02  0.51100000000E-03 0.  1.
         12    1    3    3    0    0  0.15692995705E+02  0.21961379938E+02 -0.29197896519E+02  0.39762915941E+02  0.00000000000E+00 0. -1.
</event>
<event>
 7    1  0.2490895E-015  0.9000701E+02  0.7816164E-02  0.1186341E+00
        -11   -1    0    0    0    0  0.00000000000E+00  0.00000000000E+00  0.45593999997E+02  0.45594000000E+02  0.51100000000E-03 0. -1.
         11   -1    0    0    0    0 -0.00000000000E+00 -0.00000000000E+00 -0.45593999997E+02  0.45594000000E+02  0.51100000000E-03 0.  1.
    9900012    2    1    2    0    0 -0.10568476114E+01 -0.32029520723E+00  0.41860844551E+00  0.90007005113E+02  0.89999256777E+02 0.  0.
         12    1    1    2    0    0  0.10568476114E+01  0.32029520723E+00 -0.41860844551E+00  0.11809948874E+01  0.00000000000E+00 0. -1.
         11    1    3    3    0    0  0.70443752282E+01 -0.92571054122E+01 -0.54671477282E+01  0.12853284697E+02  0.51100000000E-03 0. -1.
        -11    1    3    3    0    0  0.20877301441E+02 -0.23494353949E+02 -0.61526688784E+01  0.32026578299E+02  0.51100000000E-03 0.  1.
         12    1    3    3    0    0 -0.28978524280E+02  0.32431164154E+02  0.12038425052E+02  0.45127142116E+02  0.00000000000E+00 0. -1.
</event>
<event>
 7    1  0.2490895E-015  0.9000880E+02  0.7816164E-02  0.1186337E+00
        -11   -1    0    0    0    0  0.00000000000E+00  0.00000000000E+00  0.45593999997E+02  0.45594000000E+02  0.51100000000E-03 0.  1.
         11   -1    0    0    0    0 -0.00000000000E+00 -0.00000000000E+00 -0.45593999997E+02  0.45594000000E+02  0.51100000000E-03 0. -1.
    9900012    2    1    2    0    0 -0.14090159160E+00 -0.61321410118E+00  0.99730935907E+00  0.90008800801E+02  0.90001076165E+02 0.  0.
         12    1    1    2    0    0  0.14090159160E+00  0.61321410118E+00 -0.99730935907E+00  0.11791991986E+01  0.00000000000E+00 0. -1.
         11    1    3    3    0    0  0.58332713383E+01  0.48447928382E+01  0.13787371933E+02  0.15735015006E+02  0.51100000000E-03 0. -1.
        -11    1    3    3    0    0 -0.21626391850E+01 -0.23986455584E+02  0.23310599923E+02  0.33517325799E+02  0.51100000000E-03 0.  1.
         12    1    3    3    0    0 -0.38115337449E+01  0.18528448644E+02 -0.36100662497E+02  0.40756459996E+02  0.00000000000E+00 0. -1.
</event>
<event>
 7    1  0.2490895E-015  0.9000757E+02  0.7816164E-02  0.1186339E+00
        -11   -1    0    0    0    0  0.00000000000E+00  0.00000000000E+00  0.45593999997E+02  0.45594000000E+02  0.51100000000E-03 0.  1.
         11   -1    0    0    0    0 -0.00000000000E+00 -0.00000000000E+00 -0.45593999997E+02  0.45594000000E+02  0.51100000000E-03 0. -1.
    9900012    2    1    2    0    0 -0.11541282701E+01  0.23517869576E+00 -0.78114413185E-01  0.90007566629E+02  0.89999825708E+02 0.  0.
         12    1    1    2    0    0  0.11541282701E+01 -0.23517869576E+00  0.78114413185E-01  0.11804333714E+01  0.00000000000E+00 0. -1.
         11    1    3    3    0    0  0.63221764523E+01 -0.10793243116E+02  0.32984760590E+01  0.12936149219E+02  0.51100000000E-03 0. -1.
        -11    1    3    3    0    0 -0.29472073951E+02  0.18260716869E+02  0.23281110108E+02  0.41762028347E+02  0.51100000000E-03 0.  1.
         12    1    3    3    0    0  0.21995769228E+02 -0.72322950576E+01 -0.26657700580E+02  0.35309389062E+02  0.00000000000E+00 0. -1.
</event>
<event>
 7    1  0.2490895E-015  0.9000759E+02  0.7816164E-02  0.1186339E+00
        -11   -1    0    0    0    0  0.00000000000E+00  0.00000000000E+00  0.45593999997E+02  0.45594000000E+02  0.51100000000E-03 0.  1.
         11   -1    0    0    0    0 -0.00000000000E+00 -0.00000000000E+00 -0.45593999997E+02  0.45594000000E+02  0.51100000000E-03 0. -1.
    9900012    2    1    2    0    0 -0.10782421070E+01  0.39015298181E+00 -0.28026010902E+00  0.90007588580E+02  0.89999847950E+02 0.  0.
         12    1    1    2    0    0  0.10782421070E+01 -0.39015298181E+00  0.28026010902E+00  0.11804114195E+01  0.00000000000E+00 0. -1.
         11    1    3    3    0    0  0.14088213084E+02  0.40639238186E+01  0.11014138867E+00  0.14663060938E+02  0.51100000000E-03 0. -1.
        -11    1    3    3    0    0  0.27207176174E+02 -0.12146827456E+02  0.89967332017E+01  0.31124219848E+02  0.51100000000E-03 0.  1.
         12    1    3    3    0    0 -0.42373631365E+02  0.84730566192E+01 -0.93871346993E+01  0.44220307794E+02  0.00000000000E+00 0. -1.
</event>
<event>
 7    1  0.2490895E-015  0.9000776E+02  0.7816164E-02  0.1186339E+00
        -11   -1    0    0    0    0  0.00000000000E+00  0.00000000000E+00  0.45593999997E+02  0.45594000000E+02  0.51100000000E-03 0. -1.
         11   -1    0    0    0    0 -0.00000000000E+00 -0.00000000000E+00 -0.45593999997E+02  0.45594000000E+02  0.51100000000E-03 0.  1.
    9900012    2    1    2    0    0  0.24367053059E+00  0.59216748800E+00 -0.99142595049E+00  0.90007761432E+02  0.90000023083E+02 0.  0.
         12    1    1    2    0    0 -0.24367053059E+00 -0.59216748800E+00  0.99142595049E+00  0.11802385677E+01  0.00000000000E+00 0. -1.
         11    1    3    3    0    0  0.32830791412E+01 -0.30512137990E+02  0.22174881868E+02  0.37861518188E+02  0.51100000000E-03 0. -1.
        -11    1    3    3    0    0 -0.80919666679E+01 -0.54355859958E+01 -0.36081506652E+01  0.10394434624E+02  0.51100000000E-03 0.  1.
        -12    1    3    3    0    0  0.50525580573E+01  0.36539891474E+02 -0.19558157153E+02  0.41751808620E+02  0.00000000000E+00 0.  1.
</event>
<event>
 7    1  0.2490895E-015  0.9000760E+02  0.7816164E-02  0.1186339E+00
        -11   -1    0    0    0    0  0.00000000000E+00  0.00000000000E+00  0.45593999997E+02  0.45594000000E+02  0.51100000000E-03 0.  1.
         11   -1    0    0    0    0 -0.00000000000E+00 -0.00000000000E+00 -0.45593999997E+02  0.45594000000E+02  0.51100000000E-03 0. -1.
    9900012    2    1    2    0    0 -0.47122920550E+00  0.75784797798E+00  0.77262222013E+00  0.90007603619E+02  0.89999863186E+02 0.  0.
         12    1    1    2    0    0  0.47122920550E+00 -0.75784797798E+00 -0.77262222013E+00  0.11803963813E+01  0.00000000000E+00 0. -1.
         11    1    3    3    0    0  0.12531147899E+02  0.16408116885E+01 -0.30714201423E+01  0.13005981417E+02  0.51100000000E-03 0. -1.
        -11    1    3    3    0    0  0.15919916558E+01  0.33983160216E+02 -0.11920542891E+02  0.36048425192E+02  0.51100000000E-03 0.  1.
         12    1    3    3    0    0 -0.14594368760E+02 -0.34866123927E+02  0.15764585254E+02  0.40953197011E+02  0.00000000000E+00 0. -1.
</event>
<event>
 7    1  0.2490895E-015  0.9000776E+02  0.7816164E-02  0.1186339E+00
        -11   -1    0    0    0    0  0.00000000000E+00  0.00000000000E+00  0.45593999997E+02  0.45594000000E+02  0.51100000000E-03 0. -1.
         11   -1    0    0    0    0 -0.00000000000E+00 -0.00000000000E+00 -0.45593999997E+02  0.45594000000E+02  0.51100000000E-03 0.  1.
    9900012    2    1    2    0    0  0.85915869412E+00  0.34512602876E+00 -0.73191232683E+00  0.90007762189E+02  0.90000023849E+02 0.  0.
         12    1    1    2    0    0 -0.85915869412E+00 -0.34512602876E+00  0.73191232683E+00  0.11802378115E+01  0.00000000000E+00 0. -1.
         11    1    3    3    0    0 -0.55397428965E+01 -0.87872330428E+01 -0.19522661379E+01  0.10569558138E+02  0.51100000000E-03 0. -1.
        -11    1    3    3    0    0  0.62538368113E+01 -0.17474234202E+02 -0.31929186047E+02  0.36931453501E+02  0.51100000000E-03 0.  1.
         12    1    3    3    0    0  0.14506477938E+00  0.26606593274E+02  0.33149539858E+02  0.42506750549E+02  0.00000000000E+00 0. -1.
</event>
<event>
 7    1  0.2490895E-015  0.9000806E+02  0.7816164E-02  0.1186338E+00
        -11   -1    0    0    0    0  0.00000000000E+00  0.00000000000E+00  0.45593999997E+02  0.45594000000E+02  0.51100000000E-03 0.  1.
         11   -1    0    0    0    0 -0.00000000000E+00 -0.00000000000E+00 -0.45593999997E+02  0.45594000000E+02  0.51100000000E-03 0. -1.
    9900012    2    1    2    0    0  0.88259572541E+00  0.78101876542E+00  0.57291899005E-01  0.90008064456E+02  0.90000330106E+02 0.  0.
         12    1    1    2    0    0 -0.88259572541E+00 -0.78101876542E+00 -0.57291899005E-01  0.11799355441E+01  0.00000000000E+00 0. -1.
         11    1    3    3    0    0 -0.85155069043E+01  0.35790867181E+02  0.83938194494E+01  0.37735344660E+02  0.51100000000E-03 0. -1.
        -11    1    3    3    0    0  0.30242158064E+01  0.63929369256E+01 -0.75918925722E+01  0.10375565376E+02  0.51100000000E-03 0.  1.
        -12    1    3    3    0    0  0.63738868233E+01 -0.41402785341E+02 -0.74463497823E+00  0.41897154420E+02  0.00000000000E+00 0.  1.
</event>
<event>
 7    1  0.2490895E-015  0.9000775E+02  0.7816164E-02  0.1186339E+00
        -11   -1    0    0    0    0  0.00000000000E+00  0.00000000000E+00  0.45593999997E+02  0.45594000000E+02  0.51100000000E-03 0.  1.
         11   -1    0    0    0    0 -0.00000000000E+00 -0.00000000000E+00 -0.45593999997E+02  0.45594000000E+02  0.51100000000E-03 0. -1.
    9900012    2    1    2    0    0 -0.52548496226E+00 -0.10388402217E+01  0.19408963156E+00  0.90007748232E+02  0.90000009708E+02 0.  0.
         12    1    1    2    0    0  0.52548496226E+00  0.10388402217E+01 -0.19408963156E+00  0.11802517685E+01  0.00000000000E+00 0. -1.
         11    1    3    3    0    0  0.51444324352E+01 -0.60315805299E+01 -0.36005800041E+02  0.36868181208E+02  0.51100000000E-03 0. -1.
        -11    1    3    3    0    0 -0.58155677284E+01 -0.62469920692E+01 -0.53652875483E+01  0.10081272174E+02  0.51100000000E-03 0.  1.
        -12    1    3    3    0    0  0.14565033095E+00  0.11239732377E+02  0.41565177221E+02  0.43058294849E+02  0.00000000000E+00 0.  1.
</event>
<event>
 7    1  0.2490895E-015  0.9000766E+02  0.7816164E-02  0.1186339E+00
        -11   -1    0    0    0    0  0.00000000000E+00  0.00000000000E+00  0.45593999997E+02  0.45594000000E+02  0.51100000000E-03 0. -1.
         11   -1    0    0    0    0 -0.00000000000E+00 -0.00000000000E+00 -0.45593999997E+02  0.45594000000E+02  0.51100000000E-03 0.  1.
    9900012    2    1    2    0    0 -0.43433817819E+00 -0.74422811759E+00  0.80664523074E+00  0.90007660357E+02  0.89999920674E+02 0.  0.
         12    1    1    2    0    0  0.43433817819E+00  0.74422811759E+00 -0.80664523074E+00  0.11803396428E+01  0.00000000000E+00 0. -1.
         11    1    3    3    0    0  0.75313156331E+01 -0.10955116586E+02  0.82205112123E+01  0.15630486218E+02  0.51100000000E-03 0. -1.
        -11    1    3    3    0    0 -0.38732065906E+02  0.12793575765E+02  0.50096099000E+01  0.41096772401E+02  0.51100000000E-03 0.  1.
         12    1    3    3    0    0  0.30766412094E+02 -0.25826872971E+01 -0.12423475882E+02  0.33280401738E+02  0.00000000000E+00 0. -1.
</event>
<event>
 7    1  0.3091874E-015  0.9000772E+02  0.7816164E-02  0.1186339E+00
        -11   -1    0    0    0    0  0.00000000000E+00  0.00000000000E+00  0.45593999997E+02  0.45594000000E+02  0.51100000000E-03 0. -1.
         11   -1    0    0    0    0 -0.00000000000E+00 -0.00000000000E+00 -0.45593999997E+02  0.45594000000E+02  0.51100000000E-03 0.  1.
    9900012    2    1    2    0    0  0.92864994628E+00 -0.42744243780E+00 -0.58988898699E+00  0.90007717501E+02  0.89999978572E+02 0.  0.
         12    1    1    2    0    0 -0.92864994628E+00  0.42744243780E+00  0.58988898699E+00  0.11802824990E+01  0.00000000000E+00 0. -1.
         11    1    3    3    0    0  0.19060323501E+01  0.18729710716E+02  0.32609103174E+02  0.37653534136E+02  0.51100000000E-03 0. -1.
        -11    1    3    3    0    0  0.10509249209E+01  0.97681639295E+01 -0.25241834892E+01  0.10143617318E+02  0.51100000000E-03 0.  1.
        -12    1    3    3    0    0 -0.20283073247E+01 -0.28925317083E+02 -0.30674808672E+02  0.42210566047E+02  0.00000000000E+00 0.  1.
</event>
<event>
 7    1  0.2490895E-015  0.9000777E+02  0.7816164E-02  0.1186339E+00
        -11   -1    0    0    0    0  0.00000000000E+00  0.00000000000E+00  0.45593999997E+02  0.45594000000E+02  0.51100000000E-03 0.  1.
         11   -1    0    0    0    0 -0.00000000000E+00 -0.00000000000E+00 -0.45593999997E+02  0.45594000000E+02  0.51100000000E-03 0. -1.
    9900012    2    1    2    0    0 -0.38825783617E+00  0.11139069129E+01  0.37444229952E-01  0.90007773400E+02  0.90000035208E+02 0.  0.
         12    1    1    2    0    0  0.38825783617E+00 -0.11139069129E+01 -0.37444229952E-01  0.11802266004E+01  0.00000000000E+00 0. -1.
         11    1    3    3    0    0 -0.38499456885E+02 -0.11706721358E+02 -0.18001155870E+02  0.44082843809E+02  0.51100000000E-03 0. -1.
        -11    1    3    3    0    0  0.51203618993E+01  0.21184764527E+00  0.74707882306E+01  0.90595619349E+01  0.51100000000E-03 0.  1.
        -12    1    3    3    0    0  0.32990837150E+02  0.12608780625E+02  0.10567811869E+02  0.36865367656E+02  0.00000000000E+00 0.  1.
</event>
<event>
 7    1  0.2490895E-015  0.9000778E+02  0.7816164E-02  0.1186339E+00
        -11   -1    0    0    0    0  0.00000000000E+00  0.00000000000E+00  0.45593999997E+02  0.45594000000E+02  0.51100000000E-03 0. -1.
         11   -1    0    0    0    0 -0.00000000000E+00 -0.00000000000E+00 -0.45593999997E+02  0.45594000000E+02  0.51100000000E-03 0.  1.
    9900012    2    1    2    0    0 -0.40136883064E+00 -0.29793732263E+00 -0.10691340223E+01  0.90007783433E+02  0.90000045375E+02 0.  0.
         12    1    1    2    0    0  0.40136883064E+00  0.29793732263E+00  0.10691340223E+01  0.11802165666E+01  0.00000000000E+00 0. -1.
         11    1    3    3    0    0 -0.96889240511E+01 -0.17203738745E+02  0.20326827827E+02  0.28337674673E+02  0.51100000000E-03 0. -1.
        -11    1    3    3    0    0  0.11038704563E+01 -0.18433502598E+02  0.18926815371E+01  0.18563264574E+02  0.51100000000E-03 0.  1.
        -12    1    3    3    0    0  0.81836847643E+01  0.35339304020E+02 -0.23288643387E+02  0.43106844186E+02  0.00000000000E+00 0.  1.
</event>
<event>
 7    1  0.2490895E-015  0.9000798E+02  0.7816164E-02  0.1186339E+00
        -11   -1    0    0    0    0  0.00000000000E+00  0.00000000000E+00  0.45593999997E+02  0.45594000000E+02  0.51100000000E-03 0.  1.
         11   -1    0    0    0    0 -0.00000000000E+00 -0.00000000000E+00 -0.45593999997E+02  0.45594000000E+02  0.51100000000E-03 0. -1.
    9900012    2    1    2    0    0  0.34849429384E-01  0.30641020033E+00 -0.11390151640E+01  0.90007975747E+02  0.90000240227E+02 0.  0.
         12    1    1    2    0    0 -0.34849429384E-01 -0.30641020033E+00  0.11390151640E+01  0.11800242529E+01  0.00000000000E+00 0. -1.
         11    1    3    3    0    0  0.11731129585E+02  0.39221242126E+02 -0.18285661746E+02  0.44836265020E+02  0.51100000000E-03 0. -1.
        -11    1    3    3    0    0 -0.68396563373E+01 -0.10848905317E+02  0.22241225674E+01  0.13016388395E+02  0.51100000000E-03 0.  1.
        -12    1    3    3    0    0 -0.48566238179E+01 -0.28065926608E+02  0.14922524015E+02  0.32155322332E+02  0.00000000000E+00 0.  1.
</event>
<event>
 7    1  0.2490895E-015  0.9000757E+02  0.7816164E-02  0.1186339E+00
        -11   -1    0    0    0    0  0.00000000000E+00  0.00000000000E+00  0.45593999997E+02  0.45594000000E+02  0.51100000000E-03 0. -1.
         11   -1    0    0    0    0 -0.00000000000E+00 -0.00000000000E+00 -0.45593999997E+02  0.45594000000E+02  0.51100000000E-03 0.  1.
    9900012    2    1    2    0    0 -0.66510284414E+00  0.92951458481E+00  0.29504135691E+00  0.90007572722E+02  0.89999831882E+02 0.  0.
         12    1    1    2    0    0  0.66510284414E+00 -0.92951458481E+00 -0.29504135691E+00  0.11804272781E+01  0.00000000000E+00 0. -1.
         11    1    3    3    0    0 -0.31027277641E+02 -0.42757786204E+01  0.18237845091E+02  0.36243526794E+02  0.51100000000E-03 0. -1.
        -11    1    3    3    0    0 -0.79314821122E+01  0.57022952232E+01  0.28642661562E+01  0.10179813367E+02  0.51100000000E-03 0.  1.
        -12    1    3    3    0    0  0.38293656910E+02 -0.49700201796E+00 -0.20807069890E+02  0.43584232561E+02  0.00000000000E+00 0.  1.
</event>
<event>
 7    1  0.2490895E-015  0.9000776E+02  0.7816164E-02  0.1186339E+00
        -11   -1    0    0    0    0  0.00000000000E+00  0.00000000000E+00  0.45593999997E+02  0.45594000000E+02  0.51100000000E-03 0.  1.
         11   -1    0    0    0    0 -0.00000000000E+00 -0.00000000000E+00 -0.45593999997E+02  0.45594000000E+02  0.51100000000E-03 0. -1.
    9900012    2    1    2    0    0  0.92611925842E+00 -0.72807608757E+00  0.71926562250E-01  0.90007760575E+02  0.90000022215E+02 0.  0.
         12    1    1    2    0    0 -0.92611925842E+00  0.72807608757E+00 -0.71926562250E-01  0.11802394251E+01  0.00000000000E+00 0. -1.
         11    1    3    3    0    0  0.35296024574E+02  0.16583017522E+02  0.40763209250E+01  0.39209975943E+02  0.51100000000E-03 0. -1.
        -11    1    3    3    0    0  0.44819844820E+01 -0.71560893691E+01 -0.63608791652E+01  0.10571593256E+02  0.51100000000E-03 0.  1.
        -12    1    3    3    0    0 -0.38851889798E+02 -0.10155004241E+02  0.23564848025E+01  0.40226191376E+02  0.00000000000E+00 0.  1.
</event>
<event>
 7    1  0.2490895E-015  0.9000776E+02  0.7816164E-02  0.1186339E+00
        -11   -1    0    0    0    0  0.00000000000E+00  0.00000000000E+00  0.45593999997E+02  0.45594000000E+02  0.51100000000E-03 0. -1.
         11   -1    0    0    0    0 -0.00000000000E+00 -0.00000000000E+00 -0.45593999997E+02  0.45594000000E+02  0.51100000000E-03 0.  1.
    9900012    2    1    2    0    0  0.45681988904E+00 -0.10571492389E+01  0.25827744439E+00  0.90007764361E+02  0.90000026051E+02 0.  0.
         12    1    1    2    0    0 -0.45681988904E+00  0.10571492389E+01 -0.25827744439E+00  0.11802356386E+01  0.00000000000E+00 0. -1.
         11    1    3    3    0    0  0.89498643741E+01  0.40242149087E+01  0.49202585129E+00  0.98252973311E+01  0.51100000000E-03 0. -1.
        -11    1    3    3    0    0  0.60221807273E+01 -0.35616356918E+02 -0.19725399192E+02  0.41156808845E+02  0.51100000000E-03 0.  1.
         12    1    3    3    0    0 -0.14515225212E+02  0.30534992770E+02  0.19491650785E+02  0.39025658185E+02  0.00000000000E+00 0. -1.
</event>
<event>
 7    1  0.2490895E-015  0.9000774E+02  0.7816164E-02  0.1186339E+00
        -11   -1    0    0    0    0  0.00000000000E+00  0.00000000000E+00  0.45593999997E+02  0.45594000000E+02  0.51100000000E-03 0.  1.
         11   -1    0    0    0    0 -0.00000000000E+00 -0.00000000000E+00 -0.45593999997E+02  0.45594000000E+02  0.51100000000E-03 0. -1.
    9900012    2    1    2    0    0 -0.62387838555E+00 -0.31711406076E+00  0.95037987376E+00  0.90007742625E+02  0.90000004027E+02 0.  0.
         12    1    1    2    0    0  0.62387838555E+00  0.31711406076E+00 -0.95037987376E+00  0.11802573753E+01  0.00000000000E+00 0. -1.
         11    1    3    3    0    0  0.57408827389E+01  0.74691225290E+01  0.46823936968E+01  0.10519997004E+02  0.51100000000E-03 0. -1.
        -11    1    3    3    0    0 -0.78080201172E+01 -0.24727487993E+02  0.31241034063E+02  0.40600690267E+02  0.51100000000E-03 0.  1.
         12    1    3    3    0    0  0.14432589928E+01  0.16941251403E+02 -0.34973047886E+02  0.38887055353E+02  0.00000000000E+00 0. -1.
</event>
<event>
 7    1  0.2490895E-015  0.9000767E+02  0.7816164E-02  0.1186339E+00
        -11   -1    0    0    0    0  0.00000000000E+00  0.00000000000E+00  0.45593999997E+02  0.45594000000E+02  0.51100000000E-03 0.  1.
         11   -1    0    0    0    0 -0.00000000000E+00 -0.00000000000E+00 -0.45593999997E+02  0.45594000000E+02  0.51100000000E-03 0. -1.
    9900012    2    1    2    0    0  0.72449067210E+00  0.69623801940E+00  0.61931544134E+00  0.90007667111E+02  0.89999927517E+02 0.  0.
         12    1    1    2    0    0 -0.72449067210E+00 -0.69623801940E+00 -0.61931544134E+00  0.11803328893E+01  0.00000000000E+00 0. -1.
         11    1    3    3    0    0 -0.31408194580E+02 -0.29553624688E+01 -0.13768666871E+02  0.34420706585E+02  0.51100000000E-03 0. -1.
        -11    1    3    3    0    0 -0.10462791440E+02 -0.12545620366E+01  0.62953145240E+00  0.10556525979E+02  0.51100000000E-03 0.  1.
        -12    1    3    3    0    0  0.42595476693E+02  0.49061625249E+01  0.13758450860E+02  0.45030434547E+02  0.00000000000E+00 0.  1.
</event>
<event>
 7    1  0.2490895E-015  0.9000777E+02  0.7816164E-02  0.1186339E+00
        -11   -1    0    0    0    0  0.00000000000E+00  0.00000000000E+00  0.45593999997E+02  0.45594000000E+02  0.51100000000E-03 0.  1.
         11   -1    0    0    0    0 -0.00000000000E+00 -0.00000000000E+00 -0.45593999997E+02  0.45594000000E+02  0.51100000000E-03 0. -1.
    9900012    2    1    2    0    0  0.67194021932E-01  0.58622153554E+00  0.10221464622E+01  0.90007765229E+02  0.90000026930E+02 0.  0.
         12    1    1    2    0    0 -0.67194021932E-01 -0.58622153554E+00 -0.10221464622E+01  0.11802347714E+01  0.00000000000E+00 0. -1.
         11    1    3    3    0    0 -0.30757970805E+01  0.44096544465E+01 -0.17744434478E+02  0.18541050003E+02  0.51100000000E-03 0. -1.
        -11    1    3    3    0    0  0.33094524804E+02  0.44705170081E+01 -0.29912093241E+01  0.33528799976E+02  0.51100000000E-03 0.  1.
         12    1    3    3    0    0 -0.29951533702E+02 -0.82939499191E+01  0.21757790264E+02  0.37937915250E+02  0.00000000000E+00 0. -1.
</event>
<event>
 7    1  0.2490895E-015  0.9000775E+02  0.7816164E-02  0.1186339E+00
        -11   -1    0    0    0    0  0.00000000000E+00  0.00000000000E+00  0.45593999997E+02  0.45594000000E+02  0.51100000000E-03 0.  1.
         11   -1    0    0    0    0 -0.00000000000E+00 -0.00000000000E+00 -0.45593999997E+02  0.45594000000E+02  0.51100000000E-03 0. -1.
    9900012    2    1    2    0    0  0.76393852021E+00  0.81500508658E+00 -0.38099881732E+00  0.90007747717E+02  0.90000009186E+02 0.  0.
         12    1    1    2    0    0 -0.76393852021E+00 -0.81500508658E+00  0.38099881732E+00  0.11802522835E+01  0.00000000000E+00 0. -1.
         11    1    3    3    0    0 -0.29320419910E+02  0.11981135609E+02 -0.13916414527E+02  0.34596260315E+02  0.51100000000E-03 0. -1.
        -11    1    3    3    0    0 -0.62011107183E+01  0.52046319875E+01 -0.69250954176E+01  0.10653586958E+02  0.51100000000E-03 0.  1.
        -12    1    3    3    0    0  0.36285469149E+02 -0.16370762510E+02  0.20460511128E+02  0.44757900444E+02  0.00000000000E+00 0.  1.
</event>
<event>
 7    1  0.2490895E-015  0.9000775E+02  0.7816164E-02  0.1186339E+00
        -11   -1    0    0    0    0  0.00000000000E+00  0.00000000000E+00  0.45593999997E+02  0.45594000000E+02  0.51100000000E-03 0.  1.
         11   -1    0    0    0    0 -0.00000000000E+00 -0.00000000000E+00 -0.45593999997E+02  0.45594000000E+02  0.51100000000E-03 0. -1.
    9900012    2    1    2    0    0  0.75486413736E+00 -0.85533778616E+00  0.30259284352E+00  0.90007752135E+02  0.90000013663E+02 0.  0.
         12    1    1    2    0    0 -0.75486413736E+00  0.85533778616E+00 -0.30259284352E+00  0.11802478652E+01  0.00000000000E+00 0. -1.
         11    1    3    3    0    0 -0.91801678473E+01 -0.34703697379E+02 -0.97837885086E+01  0.37206781792E+02  0.51100000000E-03 0. -1.
        -11    1    3    3    0    0  0.69717106249E+01 -0.75738523882E+01  0.23376228373E+01  0.10556157910E+02  0.51100000000E-03 0.  1.
        -12    1    3    3    0    0  0.29633213598E+01  0.41422211981E+02  0.77487585148E+01  0.42244812432E+02  0.00000000000E+00 0.  1.
</event>
<event>
 7    1  0.2490895E-015  0.9000783E+02  0.7816164E-02  0.1186339E+00
        -11   -1    0    0    0    0  0.00000000000E+00  0.00000000000E+00  0.45593999997E+02  0.45594000000E+02  0.51100000000E-03 0.  1.
         11   -1    0    0    0    0 -0.00000000000E+00 -0.00000000000E+00 -0.45593999997E+02  0.45594000000E+02  0.51100000000E-03 0. -1.
    9900012    2    1    2    0    0 -0.60601936913E+00  0.55455490569E+00 -0.84735599868E+00  0.90007829331E+02  0.90000091878E+02 0.  0.
         12    1    1    2    0    0  0.60601936913E+00 -0.55455490569E+00  0.84735599868E+00  0.11801706689E+01  0.00000000000E+00 0. -1.
         11    1    3    3    0    0  0.18587608778E+01 -0.27835227533E+02 -0.30076599504E+02  0.41022636700E+02  0.51100000000E-03 0. -1.
        -11    1    3    3    0    0  0.63165492206E+01 -0.27691957442E+01  0.59875081741E+01  0.91333177718E+01  0.51100000000E-03 0.  1.
        -12    1    3    3    0    0 -0.87813294675E+01  0.31158978183E+02  0.23241735331E+02  0.39851874860E+02  0.00000000000E+00 0.  1.
</event>
<event>
 7    1  0.3623850E-015  0.9000781E+02  0.7816164E-02  0.1186339E+00
        -11   -1    0    0    0    0  0.00000000000E+00  0.00000000000E+00  0.45593999997E+02  0.45594000000E+02  0.51100000000E-03 0.  1.
         11   -1    0    0    0    0 -0.00000000000E+00 -0.00000000000E+00 -0.45593999997E+02  0.45594000000E+02  0.51100000000E-03 0. -1.
    9900012    2    1    2    0    0 -0.97329864778E+00 -0.35862834442E+00  0.56295936881E+00  0.90007810270E+02  0.90000072566E+02 0.  0.
         12    1    1    2    0    0  0.97329864778E+00  0.35862834442E+00 -0.56295936881E+00  0.11801897297E+01  0.00000000000E+00 0. -1.
         11    1    3    3    0    0 -0.38525198898E+02  0.12224737654E+02 -0.47020609870E+01  0.40690840968E+02  0.51100000000E-03 0. -1.
        -11    1    3    3    0    0 -0.13985104295E+01 -0.98579180698E+01  0.34539391546E+00  0.99626139798E+01  0.51100000000E-03 0.  1.
        -12    1    3    3    0    0  0.38950410680E+02 -0.27254479284E+01  0.49196264404E+01  0.39354355323E+02  0.00000000000E+00 0.  1.
</event>
<event>
 7    1  0.2490895E-015  0.9000774E+02  0.7816164E-02  0.1186339E+00
        -11   -1    0    0    0    0  0.00000000000E+00  0.00000000000E+00  0.45593999997E+02  0.45594000000E+02  0.51100000000E-03 0.  1.
         11   -1    0    0    0    0 -0.00000000000E+00 -0.00000000000E+00 -0.45593999997E+02  0.45594000000E+02  0.51100000000E-03 0. -1.
    9900012    2    1    2    0    0  0.11623097451E+01  0.20227179678E+00 -0.33559555208E-01  0.90007744067E+02  0.90000005489E+02 0.  0.
         12    1    1    2    0    0 -0.11623097451E+01 -0.20227179678E+00  0.33559555208E-01  0.11802559329E+01  0.00000000000E+00 0. -1.
         11    1    3    3    0    0  0.83059279272E+01  0.17318407444E+02 -0.33595600817E+02  0.38698579686E+02  0.51100000000E-03 0. -1.
        -11    1    3    3    0    0 -0.56405320318E+01  0.82335421715E+01  0.10212538011E+01  0.10032436288E+02  0.51100000000E-03 0.  1.
        -12    1    3    3    0    0 -0.15030861502E+01 -0.25349677819E+02  0.32540787461E+02  0.41276728093E+02  0.00000000000E+00 0.  1.
</event>
<event>
 7    1  0.2490895E-015  0.9000787E+02  0.7816164E-02  0.1186339E+00
        -11   -1    0    0    0    0  0.00000000000E+00  0.00000000000E+00  0.45593999997E+02  0.45594000000E+02  0.51100000000E-03 0. -1.
         11   -1    0    0    0    0 -0.00000000000E+00 -0.00000000000E+00 -0.45593999997E+02  0.45594000000E+02  0.51100000000E-03 0.  1.
    9900012    2    1    2    0    0  0.15940050694E+00  0.10541462399E+00 -0.11645502208E+01  0.90007873743E+02  0.90000136877E+02 0.  0.
         12    1    1    2    0    0 -0.15940050694E+00 -0.10541462399E+00  0.11645502208E+01  0.11801262565E+01  0.00000000000E+00 0. -1.
         11    1    3    3    0    0  0.48512771531E-01 -0.43260228879E+01  0.70916460401E+01  0.83071217239E+01  0.51100000000E-03 0. -1.
        -11    1    3    3    0    0 -0.16631328724E+02 -0.26784763380E+02  0.19172714175E+02  0.36900103165E+02  0.51100000000E-03 0.  1.
         12    1    3    3    0    0  0.16742216459E+02  0.31216200892E+02 -0.27428910436E+02  0.44800648855E+02  0.00000000000E+00 0. -1.
</event>
<event>
 7    1  0.2490895E-015  0.9000783E+02  0.7816164E-02  0.1186339E+00
        -11   -1    0    0    0    0  0.00000000000E+00  0.00000000000E+00  0.45593999997E+02  0.45594000000E+02  0.51100000000E-03 0. -1.
         11   -1    0    0    0    0 -0.00000000000E+00 -0.00000000000E+00 -0.45593999997E+02  0.45594000000E+02  0.51100000000E-03 0.  1.
    9900012    2    1    2    0    0  0.76062222398E-01 -0.13925251604E+00 -0.11694522419E+01  0.90007832524E+02  0.90000095113E+02 0.  0.
         12    1    1    2    0    0 -0.76062222398E-01  0.13925251604E+00  0.11694522419E+01  0.11801674758E+01  0.00000000000E+00 0. -1.
         11    1    3    3    0    0  0.48067009735E+01  0.15126209193E+02  0.35956562323E+02  0.39303701520E+02  0.51100000000E-03 0. -1.
        -11    1    3    3    0    0 -0.67263673055E+01  0.87880951263E+00  0.29916017708E+01  0.74139061704E+01  0.51100000000E-03 0.  1.
        -12    1    3    3    0    0  0.19957285544E+01 -0.16144271222E+02 -0.40117616336E+02  0.43290224834E+02  0.00000000000E+00 0.  1.
</event>
<event>
 7    1  0.2490895E-015  0.9000774E+02  0.7816164E-02  0.1186339E+00
        -11   -1    0    0    0    0  0.00000000000E+00  0.00000000000E+00  0.45593999997E+02  0.45594000000E+02  0.51100000000E-03 0.  1.
         11   -1    0    0    0    0 -0.00000000000E+00 -0.00000000000E+00 -0.45593999997E+02  0.45594000000E+02  0.51100000000E-03 0. -1.
    9900012    2    1    2    0    0 -0.10742232606E+01 -0.38532702071E+00 -0.30095868732E+00  0.90007742122E+02  0.90000003518E+02 0.  0.
         12    1    1    2    0    0  0.10742232606E+01  0.38532702071E+00  0.30095868732E+00  0.11802578778E+01  0.00000000000E+00 0. -1.
         11    1    3    3    0    0 -0.14788197884E+02 -0.22427531505E+02 -0.30660172787E+02  0.40764336885E+02  0.51100000000E-03 0. -1.
        -11    1    3    3    0    0 -0.29914171126E+01  0.71061022857E+01 -0.36379836324E+01  0.85252678085E+01  0.51100000000E-03 0.  1.
        -12    1    3    3    0    0  0.16705391736E+02  0.14936102199E+02  0.33997197733E+02  0.40718137428E+02  0.00000000000E+00 0.  1.
</event>
<event>
 7    1  0.2490895E-015  0.9000773E+02  0.7816164E-02  0.1186339E+00
        -11   -1    0    0    0    0  0.00000000000E+00  0.00000000000E+00  0.45593999997E+02  0.45594000000E+02  0.51100000000E-03 0. -1.
         11   -1    0    0    0    0 -0.00000000000E+00 -0.00000000000E+00 -0.45593999997E+02  0.45594000000E+02  0.51100000000E-03 0.  1.
    9900012    2    1    2    0    0 -0.97809467050E+00 -0.45868074084E+00  0.47538075785E+00  0.90007727120E+02  0.89999988318E+02 0.  0.
         12    1    1    2    0    0  0.97809467050E+00  0.45868074084E+00 -0.47538075785E+00  0.11802728801E+01  0.00000000000E+00 0. -1.
         11    1    3    3    0    0  0.52364402007E+01  0.23011183419E+00 -0.10039380011E+02  0.11325299497E+02  0.51100000000E-03 0. -1.
        -11    1    3    3    0    0  0.26132162905E+01 -0.19426522253E+02 -0.28453258429E+02  0.34551506215E+02  0.51100000000E-03 0.  1.
         12    1    3    3    0    0 -0.88277511617E+01  0.18737729678E+02  0.38968019198E+02  0.44130921408E+02  0.00000000000E+00 0. -1.
</event>
<event>
 7    1  0.2490895E-015  0.9000767E+02  0.7816164E-02  0.1186339E+00
        -11   -1    0    0    0    0  0.00000000000E+00  0.00000000000E+00  0.45593999997E+02  0.45594000000E+02  0.51100000000E-03 0.  1.
         11   -1    0    0    0    0 -0.00000000000E+00 -0.00000000000E+00 -0.45593999997E+02  0.45594000000E+02  0.51100000000E-03 0. -1.
    9900012    2    1    2    0    0 -0.99555654985E+00  0.58345351970E+00  0.24822986591E+00  0.90007674231E+02  0.89999934731E+02 0.  0.
         12    1    1    2    0    0  0.99555654985E+00 -0.58345351970E+00 -0.24822986591E+00  0.11803257686E+01  0.00000000000E+00 0. -1.
         11    1    3    3    0    0 -0.12377574626E+02  0.35476055368E-01  0.62987481853E+01  0.13888118704E+02  0.51100000000E-03 0. -1.
        -11    1    3    3    0    0 -0.55082178000E+01  0.28200824975E+02  0.19609039525E+02  0.34787087029E+02  0.51100000000E-03 0.  1.
         12    1    3    3    0    0  0.16890235876E+02 -0.27652847511E+02 -0.25659557844E+02  0.41332468498E+02  0.00000000000E+00 0. -1.
</event>
<event>
 7    1  0.2490895E-015  0.9000778E+02  0.7816164E-02  0.1186339E+00
        -11   -1    0    0    0    0  0.00000000000E+00  0.00000000000E+00  0.45593999997E+02  0.45594000000E+02  0.51100000000E-03 0. -1.
         11   -1    0    0    0    0 -0.00000000000E+00 -0.00000000000E+00 -0.45593999997E+02  0.45594000000E+02  0.51100000000E-03 0.  1.
    9900012    2    1    2    0    0  0.46145207696E+00  0.51576379624E-01 -0.10850478946E+01  0.90007776684E+02  0.90000038536E+02 0.  0.
         12    1    1    2    0    0 -0.46145207696E+00 -0.51576379624E-01  0.10850478946E+01  0.11802233161E+01  0.00000000000E+00 0. -1.
         11    1    3    3    0    0  0.22371385332E+02  0.22403777570E+02  0.22317129107E+02  0.38735802340E+02  0.51100000000E-03 0. -1.
        -11    1    3    3    0    0  0.87567793322E+01 -0.46554433576E+01 -0.27886506371E+01  0.10301985720E+02  0.51100000000E-03 0.  1.
        -12    1    3    3    0    0 -0.30666712587E+02 -0.17696757832E+02 -0.20613526365E+02  0.40969988624E+02  0.00000000000E+00 0.  1.
</event>
<event>
 7    1  0.2490895E-015  0.9000770E+02  0.7816164E-02  0.1186339E+00
        -11   -1    0    0    0    0  0.00000000000E+00  0.00000000000E+00  0.45593999997E+02  0.45594000000E+02  0.51100000000E-03 0.  1.
         11   -1    0    0    0    0 -0.00000000000E+00 -0.00000000000E+00 -0.45593999997E+02  0.45594000000E+02  0.51100000000E-03 0. -1.
    9900012    2    1    2    0    0 -0.64125812736E-01  0.77000616109E+00  0.89224328358E+00  0.90007695088E+02  0.89999955863E+02 0.  0.
         12    1    1    2    0    0  0.64125812736E-01 -0.77000616109E+00 -0.89224328358E+00  0.11803049119E+01  0.00000000000E+00 0. -1.
         11    1    3    3    0    0  0.34720335073E+01 -0.42525896361E+01  0.77113427982E+01  0.94659570727E+01  0.51100000000E-03 0. -1.
        -11    1    3    3    0    0  0.17706517537E+01 -0.16202405958E+02  0.32039767303E+02  0.35947181469E+02  0.51100000000E-03 0.  1.
         12    1    3    3    0    0 -0.53068110737E+01  0.21225001755E+02 -0.38858866818E+02  0.44594556547E+02  0.00000000000E+00 0. -1.
</event>
<event>
 7    1  0.2490895E-015  0.9000792E+02  0.7816164E-02  0.1186339E+00
        -11   -1    0    0    0    0  0.00000000000E+00  0.00000000000E+00  0.45593999997E+02  0.45594000000E+02  0.51100000000E-03 0. -1.
         11   -1    0    0    0    0 -0.00000000000E+00 -0.00000000000E+00 -0.45593999997E+02  0.45594000000E+02  0.51100000000E-03 0.  1.
    9900012    2    1    2    0    0  0.22859427884E+00  0.16205052052E+00 -0.11463325143E+01  0.90007917821E+02  0.90000181536E+02 0.  0.
         12    1    1    2    0    0 -0.22859427884E+00 -0.16205052052E+00  0.11463325143E+01  0.11800821789E+01  0.00000000000E+00 0. -1.
         11    1    3    3    0    0 -0.73712019678E+01  0.43830420859E+01 -0.39078792475E+01  0.94242876044E+01  0.51100000000E-03 0. -1.
        -11    1    3    3    0    0  0.13196248719E+02 -0.88556741535E+01 -0.36944766923E+02  0.40217903330E+02  0.51100000000E-03 0.  1.
         12    1    3    3    0    0 -0.55964524726E+01  0.46346825881E+01  0.39706313656E+02  0.40365726887E+02  0.00000000000E+00 0. -1.
</event>
<event>
 7    1  0.2490895E-015  0.9000762E+02  0.7816164E-02  0.1186339E+00
        -11   -1    0    0    0    0  0.00000000000E+00  0.00000000000E+00  0.45593999997E+02  0.45594000000E+02  0.51100000000E-03 0.  1.
         11   -1    0    0    0    0 -0.00000000000E+00 -0.00000000000E+00 -0.45593999997E+02  0.45594000000E+02  0.51100000000E-03 0. -1.
    9900012    2    1    2    0    0 -0.56447054358E-01  0.10512727491E+01 -0.53379298293E+00  0.90007620565E+02  0.89999880356E+02 0.  0.
         12    1    1    2    0    0  0.56447054358E-01 -0.10512727491E+01  0.53379298293E+00  0.11803794354E+01  0.00000000000E+00 0. -1.
         11    1    3    3    0    0  0.85629663704E+01 -0.32096949104E+00 -0.58471242407E+01  0.10373826518E+02  0.51100000000E-03 0. -1.
        -11    1    3    3    0    0  0.34340869374E+02 -0.41167734590E+01 -0.54331988544E+01  0.35010895206E+02  0.51100000000E-03 0.  1.
         12    1    3    3    0    0 -0.42960282799E+02  0.54890156991E+01  0.10746530112E+02  0.44622898841E+02  0.00000000000E+00 0. -1.
</event>
<event>
 7    1  0.2490895E-015  0.9000778E+02  0.7816164E-02  0.1186339E+00
        -11   -1    0    0    0    0  0.00000000000E+00  0.00000000000E+00  0.45593999997E+02  0.45594000000E+02  0.51100000000E-03 0.  1.
         11   -1    0    0    0    0 -0.00000000000E+00 -0.00000000000E+00 -0.45593999997E+02  0.45594000000E+02  0.51100000000E-03 0. -1.
    9900012    2    1    2    0    0 -0.20862943466E+00 -0.24360285278E+00  0.11358080727E+01  0.90007776051E+02  0.90000037895E+02 0.  0.
         12    1    1    2    0    0  0.20862943466E+00  0.24360285278E+00 -0.11358080727E+01  0.11802239486E+01  0.00000000000E+00 0. -1.
         11    1    3    3    0    0 -0.88791081926E+01  0.12615238723E+02 -0.31286988229E+02  0.34883498147E+02  0.51100000000E-03 0. -1.
        -11    1    3    3    0    0  0.38762939501E+01  0.17143623936E+01 -0.95431401671E+01  0.10442040879E+02  0.51100000000E-03 0.  1.
        -12    1    3    3    0    0  0.47941848079E+01 -0.14573203969E+02  0.41965936468E+02  0.44682237025E+02  0.00000000000E+00 0.  1.
</event>
<event>
 7    1  0.2490895E-015  0.9000762E+02  0.7816164E-02  0.1186339E+00
        -11   -1    0    0    0    0  0.00000000000E+00  0.00000000000E+00  0.45593999997E+02  0.45594000000E+02  0.51100000000E-03 0.  1.
         11   -1    0    0    0    0 -0.00000000000E+00 -0.00000000000E+00 -0.45593999997E+02  0.45594000000E+02  0.51100000000E-03 0. -1.
    9900012    2    1    2    0    0  0.90297673160E-01  0.11754401865E+01  0.58924703307E-01  0.90007624881E+02  0.89999884729E+02 0.  0.
         12    1    1    2    0    0 -0.90297673160E-01 -0.11754401865E+01 -0.58924703307E-01  0.11803751194E+01  0.00000000000E+00 0. -1.
         11    1    3    3    0    0  0.29692482376E+02  0.54546397684E+01 -0.16142494554E+02  0.34234145751E+02  0.51100000000E-03 0. -1.
        -11    1    3    3    0    0  0.77797321327E+01  0.17420740602E+00 -0.78873848955E+01  0.11079955822E+02  0.51100000000E-03 0.  1.
        -12    1    3    3    0    0 -0.37381916835E+02 -0.44534069880E+01  0.24088804152E+02  0.44693523307E+02  0.00000000000E+00 0.  1.
</event>
<event>
 7    1  0.2490895E-015  0.9000778E+02  0.7816164E-02  0.1186339E+00
        -11   -1    0    0    0    0  0.00000000000E+00  0.00000000000E+00  0.45593999997E+02  0.45594000000E+02  0.51100000000E-03 0. -1.
         11   -1    0    0    0    0 -0.00000000000E+00 -0.00000000000E+00 -0.45593999997E+02  0.45594000000E+02  0.51100000000E-03 0.  1.
    9900012    2    1    2    0    0 -0.70275660549E+00  0.76475366888E+00 -0.56054052823E+00  0.90007779383E+02  0.90000041271E+02 0.  0.
         12    1    1    2    0    0  0.70275660549E+00 -0.76475366888E+00  0.56054052823E+00  0.11802206168E+01  0.00000000000E+00 0. -1.
         11    1    3    3    0    0  0.23360359898E+02  0.10328305068E+02 -0.26586619902E+02  0.36867718376E+02  0.51100000000E-03 0. -1.
        -11    1    3    3    0    0  0.22274447082E+01  0.11044570345E+02  0.82838906122E+00  0.11297356891E+02  0.51100000000E-03 0.  1.
        -12    1    3    3    0    0 -0.26290561212E+02 -0.20608121744E+02  0.25197690313E+02  0.41842704116E+02  0.00000000000E+00 0.  1.
</event>
<event>
 7    1  0.2490895E-015  0.9000779E+02  0.7816164E-02  0.1186339E+00
        -11   -1    0    0    0    0  0.00000000000E+00  0.00000000000E+00  0.45593999997E+02  0.45594000000E+02  0.51100000000E-03 0. -1.
         11   -1    0    0    0    0 -0.00000000000E+00 -0.00000000000E+00 -0.45593999997E+02  0.45594000000E+02  0.51100000000E-03 0.  1.
    9900012    2    1    2    0    0 -0.27058152405E+00  0.40789033424E+00 -0.10739167959E+01  0.90007794014E+02  0.90000056095E+02 0.  0.
         12    1    1    2    0    0  0.27058152405E+00 -0.40789033424E+00  0.10739167959E+01  0.11802059864E+01  0.00000000000E+00 0. -1.
         11    1    3    3    0    0  0.76557015302E+01  0.67949612443E+01 -0.40420507430E+00  0.10244249423E+02  0.51100000000E-03 0. -1.
        -11    1    3    3    0    0 -0.26811239068E+02  0.26385866888E+02  0.12611365109E+02  0.39674967448E+02  0.51100000000E-03 0.  1.
         12    1    3    3    0    0  0.18884956013E+02 -0.32772937798E+02 -0.13281076831E+02  0.40088577143E+02  0.00000000000E+00 0. -1.
</event>
<event>
 7    1  0.2490895E-015  0.9000786E+02  0.7816164E-02  0.1186339E+00
        -11   -1    0    0    0    0  0.00000000000E+00  0.00000000000E+00  0.45593999997E+02  0.45594000000E+02  0.51100000000E-03 0. -1.
         11   -1    0    0    0    0 -0.00000000000E+00 -0.00000000000E+00 -0.45593999997E+02  0.45594000000E+02  0.51100000000E-03 0.  1.
    9900012    2    1    2    0    0 -0.24577058060E+00 -0.11069313261E+01 -0.32713750599E+00  0.90007864802E+02  0.90000127817E+02 0.  0.
         12    1    1    2    0    0  0.24577058060E+00  0.11069313261E+01  0.32713750599E+00  0.11801351985E+01  0.00000000000E+00 0. -1.
         11    1    3    3    0    0  0.24044129053E+01  0.69604803834E+01 -0.41628285242E+01  0.84592334268E+01  0.51100000000E-03 0. -1.
        -11    1    3    3    0    0 -0.18153347238E+02  0.27773691898E+02 -0.17006168870E+02  0.37284470728E+02  0.51100000000E-03 0.  1.
         12    1    3    3    0    0  0.15503163752E+02 -0.35841103607E+02  0.20841859888E+02  0.44264160646E+02  0.00000000000E+00 0. -1.
</event>
<event>
 7    1  0.2490895E-015  0.9000777E+02  0.7816164E-02  0.1186339E+00
        -11   -1    0    0    0    0  0.00000000000E+00  0.00000000000E+00  0.45593999997E+02  0.45594000000E+02  0.51100000000E-03 0.  1.
         11   -1    0    0    0    0 -0.00000000000E+00 -0.00000000000E+00 -0.45593999997E+02  0.45594000000E+02  0.51100000000E-03 0. -1.
    9900012    2    1    2    0    0 -0.77036685361E+00  0.88266864906E+00  0.14274557304E+00  0.90007768950E+02  0.90000030700E+02 0.  0.
         12    1    1    2    0    0  0.77036685361E+00 -0.88266864906E+00 -0.14274557304E+00  0.11802310502E+01  0.00000000000E+00 0. -1.
         11    1    3    3    0    0 -0.80626259784E+01 -0.23317955189E+01  0.40574671297E+01  0.93223520519E+01  0.51100000000E-03 0. -1.
        -11    1    3    3    0    0 -0.34541581165E+02 -0.12047864976E+01  0.10654129222E+02  0.36167427468E+02  0.51100000000E-03 0.  1.
         12    1    3    3    0    0  0.41833840290E+02  0.44192506655E+01 -0.14568850778E+02  0.44517989430E+02  0.00000000000E+00 0. -1.
</event>
<event>
 7    1  0.2490895E-015  0.9000771E+02  0.7816164E-02  0.1186339E+00
        -11   -1    0    0    0    0  0.00000000000E+00  0.00000000000E+00  0.45593999997E+02  0.45594000000E+02  0.51100000000E-03 0.  1.
         11   -1    0    0    0    0 -0.00000000000E+00 -0.00000000000E+00 -0.45593999997E+02  0.45594000000E+02  0.51100000000E-03 0. -1.
    9900012    2    1    2    0    0  0.10309432271E+01  0.57457147303E+00  0.10219417963E-01  0.90007711581E+02  0.89999972574E+02 0.  0.
         12    1    1    2    0    0 -0.10309432271E+01 -0.57457147303E+00 -0.10219417963E-01  0.11802884189E+01  0.00000000000E+00 0. -1.
         11    1    3    3    0    0 -0.13115355407E+01  0.89049817564E+01  0.70492241729E+00  0.90286068378E+01  0.51100000000E-03 0. -1.
        -11    1    3    3    0    0  0.69135143500E+01  0.33079602200E+02  0.14308193974E+02  0.36698517374E+02  0.51100000000E-03 0.  1.
         12    1    3    3    0    0 -0.45710355822E+01 -0.41410012484E+02 -0.15002896973E+02  0.44280587369E+02  0.00000000000E+00 0. -1.
</event>
<event>
 7    1  0.2490895E-015  0.9000773E+02  0.7816164E-02  0.1186339E+00
        -11   -1    0    0    0    0  0.00000000000E+00  0.00000000000E+00  0.45593999997E+02  0.45594000000E+02  0.51100000000E-03 0.  1.
         11   -1    0    0    0    0 -0.00000000000E+00 -0.00000000000E+00 -0.45593999997E+02  0.45594000000E+02  0.51100000000E-03 0. -1.
    9900012    2    1    2    0    0 -0.57795080950E-01 -0.86190729704E+00  0.80425274400E+00  0.90007725906E+02  0.89999987088E+02 0.  0.
         12    1    1    2    0    0  0.57795080950E-01  0.86190729704E+00 -0.80425274400E+00  0.11802740937E+01  0.00000000000E+00 0. -1.
         11    1    3    3    0    0  0.20794862748E+01 -0.14889618736E+02 -0.22915018591E+02  0.27406624866E+02  0.51100000000E-03 0. -1.
        -11    1    3    3    0    0  0.17085441543E+02 -0.19070757552E+01 -0.10572454466E+02  0.20182320093E+02  0.51100000000E-03 0.  1.
        -12    1    3    3    0    0 -0.19222722899E+02  0.15934787194E+02  0.34291725802E+02  0.42418780947E+02  0.00000000000E+00 0.  1.
</event>
<event>
 7    1  0.2490895E-015  0.9000773E+02  0.7816164E-02  0.1186339E+00
        -11   -1    0    0    0    0  0.00000000000E+00  0.00000000000E+00  0.45593999997E+02  0.45594000000E+02  0.51100000000E-03 0.  1.
         11   -1    0    0    0    0 -0.00000000000E+00 -0.00000000000E+00 -0.45593999997E+02  0.45594000000E+02  0.51100000000E-03 0. -1.
    9900012    2    1    2    0    0 -0.69690263394E+00  0.94483153912E+00 -0.12111151061E+00  0.90007725491E+02  0.89999986668E+02 0.  0.
         12    1    1    2    0    0  0.69690263394E+00 -0.94483153912E+00  0.12111151061E+00  0.11802745090E+01  0.00000000000E+00 0. -1.
         11    1    3    3    0    0  0.51766074634E+01 -0.85916137295E+01 -0.75582306362E+01  0.12559456275E+02  0.51100000000E-03 0. -1.
        -11    1    3    3    0    0  0.13053427339E+02 -0.24116515335E+02  0.23027993577E+02  0.35809031900E+02  0.51100000000E-03 0.  1.
         12    1    3    3    0    0 -0.18926937437E+02  0.33652960604E+02 -0.15590874451E+02  0.41639237316E+02  0.00000000000E+00 0. -1.
</event>
<event>
 7    1  0.2733423E-015  0.9000708E+02  0.7816164E-02  0.1186340E+00
        -11   -1    0    0    0    0  0.00000000000E+00  0.00000000000E+00  0.45593999997E+02  0.45594000000E+02  0.51100000000E-03 0.  1.
         11   -1    0    0    0    0 -0.00000000000E+00 -0.00000000000E+00 -0.45593999997E+02  0.45594000000E+02  0.51100000000E-03 0. -1.
    9900012    2    1    2    0    0  0.22986135912E+00  0.99014710521E+00  0.60111761212E+00  0.90007080901E+02  0.89999333567E+02 0.  0.
         12    1    1    2    0    0 -0.22986135912E+00 -0.99014710521E+00 -0.60111761212E+00  0.11809190988E+01  0.00000000000E+00 0. -1.
         11    1    3    3    0    0  0.60425621045E-01 -0.51282490752E+01 -0.38168880832E+02  0.38511894968E+02  0.51100000000E-03 0. -1.
        -11    1    3    3    0    0  0.30109570573E+01  0.84509395731E+01 -0.30790480681E+01  0.94849765069E+01  0.51100000000E-03 0.  1.
        -12    1    3    3    0    0 -0.28415213192E+01 -0.23325433927E+01  0.41849046512E+02  0.42010209426E+02  0.00000000000E+00 0.  1.
</event>
<event>
 7    1  0.2490895E-015  0.9000701E+02  0.7816164E-02  0.1186341E+00
        -11   -1    0    0    0    0  0.00000000000E+00  0.00000000000E+00  0.45593999997E+02  0.45594000000E+02  0.51100000000E-03 0. -1.
         11   -1    0    0    0    0 -0.00000000000E+00 -0.00000000000E+00 -0.45593999997E+02  0.45594000000E+02  0.51100000000E-03 0.  1.
    9900012    2    1    2    0    0  0.85605920572E+00 -0.74719457873E+00 -0.32186986228E+00  0.90007010029E+02  0.89999261759E+02 0.  0.
         12    1    1    2    0    0 -0.85605920572E+00  0.74719457873E+00  0.32186986228E+00  0.11809899705E+01  0.00000000000E+00 0. -1.
         11    1    3    3    0    0  0.30986180443E+00  0.10421430123E+02  0.22202207416E+01  0.10659812407E+02  0.51100000000E-03 0. -1.
        -11    1    3    3    0    0  0.11081348540E+02  0.29419867422E+02  0.13811406959E+02  0.34337732118E+02  0.51100000000E-03 0.  1.
         12    1    3    3    0    0 -0.10535151138E+02 -0.40588492124E+02 -0.16353497562E+02  0.45009465504E+02  0.00000000000E+00 0. -1.
</event>
<event>
 7    1  0.2490895E-015  0.9000751E+02  0.7816164E-02  0.1186339E+00
        -11   -1    0    0    0    0  0.00000000000E+00  0.00000000000E+00  0.45593999997E+02  0.45594000000E+02  0.51100000000E-03 0. -1.
         11   -1    0    0    0    0 -0.00000000000E+00 -0.00000000000E+00 -0.45593999997E+02  0.45594000000E+02  0.51100000000E-03 0.  1.
    9900012    2    1    2    0    0 -0.44187249769E+00 -0.98275240992E+00 -0.48217371544E+00  0.90007514890E+02  0.89999773286E+02 0.  0.
         12    1    1    2    0    0  0.44187249769E+00  0.98275240992E+00  0.48217371544E+00  0.11804851101E+01  0.00000000000E+00 0. -1.
         11    1    3    3    0    0 -0.85257092069E+01  0.44950674139E+01  0.16616501755E+01  0.97803082826E+01  0.51100000000E-03 0. -1.
        -11    1    3    3    0    0  0.11743040338E+02  0.33375605317E+02 -0.15978823792E+02  0.38822066363E+02  0.51100000000E-03 0.  1.
         12    1    3    3    0    0 -0.36592036287E+01 -0.38853425141E+02  0.13834999901E+02  0.41405140244E+02  0.00000000000E+00 0. -1.
</event>
<event>
 7    1  0.2683547E-015  0.9000727E+02  0.7816164E-02  0.1186340E+00
        -11   -1    0    0    0    0  0.00000000000E+00  0.00000000000E+00  0.45593999997E+02  0.45594000000E+02  0.51100000000E-03 0. -1.
         11   -1    0    0    0    0 -0.00000000000E+00 -0.00000000000E+00 -0.45593999997E+02  0.45594000000E+02  0.51100000000E-03 0.  1.
    9900012    2    1    2    0    0  0.11674425606E+01  0.17589479995E+00 -0.15947796635E-01  0.90007273340E+02  0.89999528547E+02 0.  0.
         12    1    1    2    0    0 -0.11674425606E+01 -0.17589479995E+00  0.15947796635E-01  0.11807266598E+01  0.00000000000E+00 0. -1.
         11    1    3    3    0    0  0.36950654637E+02  0.56198533449E+01  0.82004234620E+01  0.38264612568E+02  0.51100000000E-03 0. -1.
        -11    1    3    3    0    0  0.43905134326E+01  0.66592397059E+01 -0.55173737132E+01  0.96986336469E+01  0.51100000000E-03 0.  1.
        -12    1    3    3    0    0 -0.40173725509E+02 -0.12103198251E+02 -0.26989975454E+01  0.42044027126E+02  0.00000000000E+00 0.  1.
</event>
<event>
 7    1  0.2490895E-015  0.9000777E+02  0.7816164E-02  0.1186339E+00
        -11   -1    0    0    0    0  0.00000000000E+00  0.00000000000E+00  0.45593999997E+02  0.45594000000E+02  0.51100000000E-03 0.  1.
         11   -1    0    0    0    0 -0.00000000000E+00 -0.00000000000E+00 -0.45593999997E+02  0.45594000000E+02  0.51100000000E-03 0. -1.
    9900012    2    1    2    0    0  0.11255820729E+01  0.15594933028E+00 -0.31888138612E+00  0.90007770982E+02  0.90000032759E+02 0.  0.
         12    1    1    2    0    0 -0.11255820729E+01 -0.15594933028E+00  0.31888138612E+00  0.11802290179E+01  0.00000000000E+00 0. -1.
         11    1    3    3    0    0 -0.47152418175E+01  0.11453485283E+01  0.85165468928E+01  0.98018824665E+01  0.51100000000E-03 0. -1.
        -11    1    3    3    0    0 -0.13675231155E+02 -0.18656910844E+02  0.27118831786E+02  0.35644400781E+02  0.51100000000E-03 0.  1.
         12    1    3    3    0    0  0.19516055045E+02  0.17667511646E+02 -0.35954260065E+02  0.44561487734E+02  0.00000000000E+00 0. -1.
</event>
<event>
 7    1  0.2490895E-015  0.9000772E+02  0.7816164E-02  0.1186339E+00
        -11   -1    0    0    0    0  0.00000000000E+00  0.00000000000E+00  0.45593999997E+02  0.45594000000E+02  0.51100000000E-03 0. -1.
         11   -1    0    0    0    0 -0.00000000000E+00 -0.00000000000E+00 -0.45593999997E+02  0.45594000000E+02  0.51100000000E-03 0.  1.
    9900012    2    1    2    0    0  0.19430348969E+00 -0.11587991507E+01 -0.11172118060E+00  0.90007724210E+02  0.89999985370E+02 0.  0.
         12    1    1    2    0    0 -0.19430348969E+00  0.11587991507E+01  0.11172118060E+00  0.11802757898E+01  0.00000000000E+00 0. -1.
         11    1    3    3    0    0 -0.88665233122E+01 -0.24757209200E+01 -0.16966278663E+01  0.93607145079E+01  0.51100000000E-03 0. -1.
        -11    1    3    3    0    0  0.12135788157E+02 -0.35225976515E+02 -0.15296876862E+02  0.40275814301E+02  0.51100000000E-03 0.  1.
         12    1    3    3    0    0 -0.30749613552E+01  0.36542898285E+02  0.16881783547E+02  0.40371195401E+02  0.00000000000E+00 0. -1.
</event>
<event>
 7    1  0.2490895E-015  0.9000779E+02  0.7816164E-02  0.1186339E+00
        -11   -1    0    0    0    0  0.00000000000E+00  0.00000000000E+00  0.45593999997E+02  0.45594000000E+02  0.51100000000E-03 0. -1.
         11   -1    0    0    0    0 -0.00000000000E+00 -0.00000000000E+00 -0.45593999997E+02  0.45594000000E+02  0.51100000000E-03 0.  1.
    9900012    2    1    2    0    0  0.46348183631E+00  0.33820845625E+00 -0.10313536187E+01  0.90007792112E+02  0.90000054168E+02 0.  0.
         12    1    1    2    0    0 -0.46348183631E+00 -0.33820845625E+00  0.10313536187E+01  0.11802078881E+01  0.00000000000E+00 0. -1.
         11    1    3    3    0    0  0.33413578601E+01 -0.84498405694E+01  0.20646481439E+01  0.93181140912E+01  0.51100000000E-03 0. -1.
        -11    1    3    3    0    0  0.17241184935E+02 -0.20872367568E+02  0.23667614475E+02  0.35959284768E+02  0.51100000000E-03 0.  1.
         12    1    3    3    0    0 -0.20119060959E+02  0.29660416594E+02 -0.26763616237E+02  0.44730393252E+02  0.00000000000E+00 0. -1.
</event>
<event>
 7    1  0.2675779E-015  0.9000776E+02  0.7816164E-02  0.1186339E+00
        -11   -1    0    0    0    0  0.00000000000E+00  0.00000000000E+00  0.45593999997E+02  0.45594000000E+02  0.51100000000E-03 0.  1.
         11   -1    0    0    0    0 -0.00000000000E+00 -0.00000000000E+00 -0.45593999997E+02  0.45594000000E+02  0.51100000000E-03 0. -1.
    9900012    2    1    2    0    0  0.94804544892E+00 -0.70234430590E+00  0.29813960984E-01  0.90007759953E+02  0.90000021584E+02 0.  0.
         12    1    1    2    0    0 -0.94804544892E+00  0.70234430590E+00 -0.29813960984E-01  0.11802400474E+01  0.00000000000E+00 0. -1.
         11    1    3    3    0    0  0.10886073117E+02  0.32942699387E+02 -0.94429609472E+01  0.35956884494E+02  0.51100000000E-03 0. -1.
        -11    1    3    3    0    0  0.50715239554E+01  0.56608652315E+01 -0.55110818386E+01  0.93881720102E+01  0.51100000000E-03 0.  1.
        -12    1    3    3    0    0 -0.15009551624E+02 -0.39305908924E+02  0.14983856747E+02  0.44662703448E+02  0.00000000000E+00 0.  1.
</event>
<event>
 7    1  0.2490895E-015  0.9000774E+02  0.7816164E-02  0.1186339E+00
        -11   -1    0    0    0    0  0.00000000000E+00  0.00000000000E+00  0.45593999997E+02  0.45594000000E+02  0.51100000000E-03 0. -1.
         11   -1    0    0    0    0 -0.00000000000E+00 -0.00000000000E+00 -0.45593999997E+02  0.45594000000E+02  0.51100000000E-03 0.  1.
    9900012    2    1    2    0    0 -0.80007658625E+00 -0.45556418429E+00 -0.73848055496E+00  0.90007739520E+02  0.90000000882E+02 0.  0.
         12    1    1    2    0    0  0.80007658625E+00  0.45556418429E+00  0.73848055496E+00  0.11802604797E+01  0.00000000000E+00 0. -1.
         11    1    3    3    0    0  0.65452484386E+01  0.65861364776E+01 -0.29386364034E+01  0.97392533079E+01  0.51100000000E-03 0. -1.
        -11    1    3    3    0    0  0.35099895810E+02  0.25372794873E+01 -0.67803872505E+01  0.35838723814E+02  0.51100000000E-03 0.  1.
         12    1    3    3    0    0 -0.42445220835E+02 -0.95789801492E+01  0.89805430989E+01  0.44429762398E+02  0.00000000000E+00 0. -1.
</event>
<event>
 7    1  0.2490895E-015  0.9000775E+02  0.7816164E-02  0.1186339E+00
        -11   -1    0    0    0    0  0.00000000000E+00  0.00000000000E+00  0.45593999997E+02  0.45594000000E+02  0.51100000000E-03 0.  1.
         11   -1    0    0    0    0 -0.00000000000E+00 -0.00000000000E+00 -0.45593999997E+02  0.45594000000E+02  0.51100000000E-03 0. -1.
    9900012    2    1    2    0    0  0.15239219697E+00  0.74630710605E+00  0.90154644155E+00  0.90007752710E+02  0.90000014246E+02 0.  0.
         12    1    1    2    0    0 -0.15239219697E+00 -0.74630710605E+00 -0.90154644155E+00  0.11802472896E+01  0.00000000000E+00 0. -1.
         11    1    3    3    0    0  0.50412817948E+01  0.70698550342E+01 -0.69221971953E+01  0.11104692099E+02  0.51100000000E-03 0. -1.
        -11    1    3    3    0    0  0.88471673835E+01 -0.31388022961E+02  0.28754044504E+02  0.43477297889E+02  0.51100000000E-03 0.  1.
         12    1    3    3    0    0 -0.13736056981E+02  0.25064475033E+02 -0.20930300867E+02  0.35425762722E+02  0.00000000000E+00 0. -1.
</event>
<event>
 7    1  0.2490895E-015  0.9000771E+02  0.7816164E-02  0.1186339E+00
        -11   -1    0    0    0    0  0.00000000000E+00  0.00000000000E+00  0.45593999997E+02  0.45594000000E+02  0.51100000000E-03 0. -1.
         11   -1    0    0    0    0 -0.00000000000E+00 -0.00000000000E+00 -0.45593999997E+02  0.45594000000E+02  0.51100000000E-03 0.  1.
    9900012    2    1    2    0    0 -0.97730248022E+00 -0.28181136471E+00  0.59878655196E+00  0.90007710579E+02  0.89999971558E+02 0.  0.
         12    1    1    2    0    0  0.97730248022E+00  0.28181136471E+00 -0.59878655196E+00  0.11802894213E+01  0.00000000000E+00 0. -1.
         11    1    3    3    0    0 -0.82576166722E+01  0.21714986637E+01 -0.60919440582E+01  0.10488823681E+02  0.51100000000E-03 0. -1.
        -11    1    3    3    0    0 -0.19508655413E+02  0.22913273263E+02  0.24261439998E+02  0.38655183336E+02  0.51100000000E-03 0.  1.
         12    1    3    3    0    0  0.26788969605E+02 -0.25366583291E+02 -0.17570709388E+02  0.40863703562E+02  0.00000000000E+00 0. -1.
</event>
<event>
 7    1  0.2490895E-015  0.9000777E+02  0.7816164E-02  0.1186339E+00
        -11   -1    0    0    0    0  0.00000000000E+00  0.00000000000E+00  0.45593999997E+02  0.45594000000E+02  0.51100000000E-03 0. -1.
         11   -1    0    0    0    0 -0.00000000000E+00 -0.00000000000E+00 -0.45593999997E+02  0.45594000000E+02  0.51100000000E-03 0.  1.
    9900012    2    1    2    0    0  0.11640913975E+01  0.41056499312E-01 -0.19011351618E+00  0.90007772239E+02  0.90000034033E+02 0.  0.
         12    1    1    2    0    0 -0.11640913975E+01 -0.41056499312E-01  0.19011351618E+00  0.11802277607E+01  0.00000000000E+00 0. -1.
         11    1    3    3    0    0  0.11200905993E+02 -0.27500496339E+02  0.24661346372E+02  0.38599476668E+02  0.51100000000E-03 0. -1.
        -11    1    3    3    0    0 -0.35488559070E+01  0.22450736166E+01  0.82428957075E+01  0.92509493404E+01  0.51100000000E-03 0.  1.
        -12    1    3    3    0    0 -0.64879586884E+01  0.25296479222E+02 -0.33094355595E+02  0.42157346231E+02  0.00000000000E+00 0.  1.
</event>
<event>
 7    1  0.2490895E-015  0.9000773E+02  0.7816164E-02  0.1186339E+00
        -11   -1    0    0    0    0  0.00000000000E+00  0.00000000000E+00  0.45593999997E+02  0.45594000000E+02  0.51100000000E-03 0. -1.
         11   -1    0    0    0    0 -0.00000000000E+00 -0.00000000000E+00 -0.45593999997E+02  0.45594000000E+02  0.51100000000E-03 0.  1.
    9900012    2    1    2    0    0  0.11396046353E+01  0.34861718362E-01  0.30515530562E+00  0.90007731461E+02  0.89999992716E+02 0.  0.
         12    1    1    2    0    0 -0.11396046353E+01 -0.34861718362E-01 -0.30515530562E+00  0.11802685392E+01  0.00000000000E+00 0. -1.
         11    1    3    3    0    0 -0.80855375640E+01  0.43977311842E+01 -0.41344006569E+01  0.10090055814E+02  0.51100000000E-03 0. -1.
        -11    1    3    3    0    0  0.96345864585E+01 -0.40546355668E+02 -0.63528422908E+01  0.42156741093E+02  0.51100000000E-03 0.  1.
         12    1    3    3    0    0 -0.40944425925E+00  0.36183486202E+02  0.10792398253E+02  0.37760934554E+02  0.00000000000E+00 0. -1.
</event>
<event>
 7    1  0.3962318E-015  0.9000764E+02  0.7816164E-02  0.1186339E+00
        -11   -1    0    0    0    0  0.00000000000E+00  0.00000000000E+00  0.45593999997E+02  0.45594000000E+02  0.51100000000E-03 0. -1.
         11   -1    0    0    0    0 -0.00000000000E+00 -0.00000000000E+00 -0.45593999997E+02  0.45594000000E+02  0.51100000000E-03 0.  1.
    9900012    2    1    2    0    0  0.12055702883E+00 -0.78785696329E+00 -0.87062703209E+00  0.90007642418E+02  0.89999902498E+02 0.  0.
         12    1    1    2    0    0 -0.12055702883E+00  0.78785696329E+00  0.87062703209E+00  0.11803575818E+01  0.00000000000E+00 0. -1.
         11    1    3    3    0    0  0.96798460904E+01 -0.36904043788E+02  0.62356148260E+01  0.38658644062E+02  0.51100000000E-03 0. -1.
        -11    1    3    3    0    0 -0.69101870901E+01 -0.40051391226E+01  0.49194996173E+01  0.93804744953E+01  0.51100000000E-03 0.  1.
        -12    1    3    3    0    0 -0.26491019715E+01  0.40121325947E+02 -0.12025741475E+02  0.41968523861E+02  0.00000000000E+00 0.  1.
</event>
<event>
 7    1  0.2490895E-015  0.9000777E+02  0.7816164E-02  0.1186339E+00
        -11   -1    0    0    0    0  0.00000000000E+00  0.00000000000E+00  0.45593999997E+02  0.45594000000E+02  0.51100000000E-03 0. -1.
         11   -1    0    0    0    0 -0.00000000000E+00 -0.00000000000E+00 -0.45593999997E+02  0.45594000000E+02  0.51100000000E-03 0.  1.
    9900012    2    1    2    0    0 -0.73713845403E+00  0.90424010393E+00  0.17867221843E+00  0.90007768231E+02  0.90000029972E+02 0.  0.
         12    1    1    2    0    0  0.73713845403E+00 -0.90424010393E+00 -0.17867221843E+00  0.11802317686E+01  0.00000000000E+00 0. -1.
         11    1    3    3    0    0  0.34412265024E+02 -0.32292518751E+01  0.22357014450E+02  0.41163918024E+02  0.51100000000E-03 0. -1.
        -11    1    3    3    0    0  0.13906300763E+01 -0.53780437760E+01 -0.13269455648E+01  0.57112163029E+01  0.51100000000E-03 0.  1.
        -12    1    3    3    0    0 -0.36540033554E+02  0.95115357550E+01 -0.20851396667E+02  0.43132633904E+02  0.00000000000E+00 0.  1.
</event>
<event>
 7    1  0.2490895E-015  0.9000773E+02  0.7816164E-02  0.1186339E+00
        -11   -1    0    0    0    0  0.00000000000E+00  0.00000000000E+00  0.45593999997E+02  0.45594000000E+02  0.51100000000E-03 0. -1.
         11   -1    0    0    0    0 -0.00000000000E+00 -0.00000000000E+00 -0.45593999997E+02  0.45594000000E+02  0.51100000000E-03 0.  1.
    9900012    2    1    2    0    0  0.39601610451E+00 -0.25438038458E-02  0.11118494984E+01  0.90007726924E+02  0.89999988120E+02 0.  0.
         12    1    1    2    0    0 -0.39601610451E+00  0.25438038458E-02 -0.11118494984E+01  0.11802730756E+01  0.00000000000E+00 0. -1.
         11    1    3    3    0    0  0.79577262346E+01  0.20105556850E+02  0.34906649137E+02  0.41061331898E+02  0.51100000000E-03 0. -1.
        -11    1    3    3    0    0 -0.59119782098E+01  0.66226385736E+00  0.29994034953E+01  0.66623195179E+01  0.51100000000E-03 0.  1.
        -12    1    3    3    0    0 -0.16497319203E+01 -0.20770364511E+02 -0.36794203134E+02  0.42284075508E+02  0.00000000000E+00 0.  1.
</event>
<event>
 7    1  0.2490895E-015  0.9000776E+02  0.7816164E-02  0.1186339E+00
        -11   -1    0    0    0    0  0.00000000000E+00  0.00000000000E+00  0.45593999997E+02  0.45594000000E+02  0.51100000000E-03 0. -1.
         11   -1    0    0    0    0 -0.00000000000E+00 -0.00000000000E+00 -0.45593999997E+02  0.45594000000E+02  0.51100000000E-03 0.  1.
    9900012    2    1    2    0    0 -0.66078635282E+00 -0.96603146931E+00 -0.15202581463E+00  0.90007759663E+02  0.90000021291E+02 0.  0.
         12    1    1    2    0    0  0.66078635282E+00  0.96603146931E+00  0.15202581463E+00  0.11802403366E+01  0.00000000000E+00 0. -1.
         11    1    3    3    0    0 -0.35680045381E+02 -0.42089911146E+01 -0.18323936363E+01  0.35974142260E+02  0.51100000000E-03 0. -1.
        -11    1    3    3    0    0 -0.87588790211E+01 -0.58063131639E+00  0.47516109590E+01  0.99816281937E+01  0.51100000000E-03 0.  1.
        -12    1    3    3    0    0  0.43778138050E+02  0.38235909617E+01 -0.30712431373E+01  0.44051989210E+02  0.00000000000E+00 0.  1.
</event>
<event>
 7    1  0.2490895E-015  0.9000767E+02  0.7816164E-02  0.1186339E+00
        -11   -1    0    0    0    0  0.00000000000E+00  0.00000000000E+00  0.45593999997E+02  0.45594000000E+02  0.51100000000E-03 0. -1.
         11   -1    0    0    0    0 -0.00000000000E+00 -0.00000000000E+00 -0.45593999997E+02  0.45594000000E+02  0.51100000000E-03 0.  1.
    9900012    2    1    2    0    0  0.10625182284E+01  0.37860185538E+00  0.34769866733E+00  0.90007670083E+02  0.89999930528E+02 0.  0.
         12    1    1    2    0    0 -0.10625182284E+01 -0.37860185538E+00 -0.34769866733E+00  0.11803299173E+01  0.00000000000E+00 0. -1.
         11    1    3    3    0    0 -0.47872252526E+01 -0.19461415685E+01  0.83864971002E+01  0.98508033427E+01  0.51100000000E-03 0. -1.
        -11    1    3    3    0    0 -0.16587945132E+02 -0.52937815132E+01 -0.38093566648E+02  0.41884410783E+02  0.51100000000E-03 0.  1.
         12    1    3    3    0    0  0.22437688613E+02  0.76185249371E+01  0.30054768215E+02  0.38272455957E+02  0.00000000000E+00 0. -1.
</event>
<event>
 7    1  0.2490895E-015  0.9000754E+02  0.7816164E-02  0.1186339E+00
        -11   -1    0    0    0    0  0.00000000000E+00  0.00000000000E+00  0.45593999997E+02  0.45594000000E+02  0.51100000000E-03 0.  1.
         11   -1    0    0    0    0 -0.00000000000E+00 -0.00000000000E+00 -0.45593999997E+02  0.45594000000E+02  0.51100000000E-03 0. -1.
    9900012    2    1    2    0    0 -0.86825058017E+00  0.24592728352E-01  0.79938542853E+00  0.90007542065E+02  0.89999800820E+02 0.  0.
         12    1    1    2    0    0  0.86825058017E+00 -0.24592728352E-01 -0.79938542853E+00  0.11804579347E+01  0.00000000000E+00 0. -1.
         11    1    3    3    0    0 -0.25317607186E+00 -0.56678018246E+00  0.47491706756E+01  0.47895678580E+01  0.51100000000E-03 0. -1.
        -11    1    3    3    0    0  0.82347492137E+01 -0.27514015433E+02  0.29137357087E+02  0.40912317438E+02  0.51100000000E-03 0.  1.
         12    1    3    3    0    0 -0.88498237220E+01  0.28105388344E+02 -0.33087142334E+02  0.44305656769E+02  0.00000000000E+00 0. -1.
</event>
<event>
 7    1  0.2490895E-015  0.9000774E+02  0.7816164E-02  0.1186339E+00
        -11   -1    0    0    0    0  0.00000000000E+00  0.00000000000E+00  0.45593999997E+02  0.45594000000E+02  0.51100000000E-03 0.  1.
         11   -1    0    0    0    0 -0.00000000000E+00 -0.00000000000E+00 -0.45593999997E+02  0.45594000000E+02  0.51100000000E-03 0. -1.
    9900012    2    1    2    0    0  0.74881329691E+00  0.60517133602E+00 -0.68268257508E+00  0.90007741894E+02  0.90000003287E+02 0.  0.
         12    1    1    2    0    0 -0.74881329691E+00 -0.60517133602E+00  0.68268257508E+00  0.11802581065E+01  0.00000000000E+00 0. -1.
         11    1    3    3    0    0  0.13707569423E+01  0.16296516867E+01  0.10007119167E+02  0.10231186320E+02  0.51100000000E-03 0. -1.
        -11    1    3    3    0    0  0.21052425722E+02  0.25528672356E+02  0.15596940073E+02  0.36581173860E+02  0.51100000000E-03 0.  1.
         12    1    3    3    0    0 -0.21674369367E+02 -0.26553152707E+02 -0.26286741816E+02  0.43195381714E+02  0.00000000000E+00 0. -1.
</event>
<event>
 8    1  0.2490895E-015  0.9000769E+02  0.7816164E-02  0.1186339E+00
        -11   -1    0    0    0    0  0.00000000000E+00  0.00000000000E+00  0.45593999997E+02  0.45594000000E+02  0.51100000000E-03 0.  1.
         11   -1    0    0    0    0 -0.00000000000E+00 -0.00000000000E+00 -0.45593999997E+02  0.45594000000E+02  0.51100000000E-03 0. -1.
    9900012    2    1    2    0    0  0.99431680282E-01 -0.16555997538E+00  0.11644079758E+01  0.90007685339E+02  0.89999945986E+02 0.  0.
         23    2    3    3    0    0  0.14030809878E+02 -0.20573173738E+02  0.98073011303E+01  0.63830336351E+02  0.57948335436E+02 0.  0.
         12    1    1    2    0    0 -0.99431680282E-01  0.16555997538E+00 -0.11644079758E+01  0.11803146609E+01  0.00000000000E+00 0. -1.
         11    1    4    4    0    0  0.33255064890E+02 -0.16962189650E+02 -0.70705455225E+01  0.37994839555E+02  0.51100000000E-03 0. -1.
        -11    1    4    4    0    0 -0.19224255011E+02 -0.36109840872E+01  0.16877846653E+02  0.25835496796E+02  0.51100000000E-03 0.  1.
        -12    1    3    3    0    0 -0.13931378198E+02  0.20407613762E+02 -0.86428931544E+01  0.26177348988E+02  0.00000000000E+00 0.  1.
</event>
<event>
 7    1  0.2490895E-015  0.9000775E+02  0.7816164E-02  0.1186339E+00
        -11   -1    0    0    0    0  0.00000000000E+00  0.00000000000E+00  0.45593999997E+02  0.45594000000E+02  0.51100000000E-03 0. -1.
         11   -1    0    0    0    0 -0.00000000000E+00 -0.00000000000E+00 -0.45593999997E+02  0.45594000000E+02  0.51100000000E-03 0.  1.
    9900012    2    1    2    0    0  0.48242644990E+00 -0.20952581775E+00 -0.10565757104E+01  0.90007750628E+02  0.90000012137E+02 0.  0.
         12    1    1    2    0    0 -0.48242644990E+00  0.20952581775E+00  0.10565757104E+01  0.11802493718E+01  0.00000000000E+00 0. -1.
         11    1    3    3    0    0  0.94370437107E+01 -0.53158709085E+01  0.38040290468E+01  0.11479848203E+02  0.51100000000E-03 0. -1.
        -11    1    3    3    0    0  0.20237147925E+02  0.31615633840E+02  0.50321662626E+01  0.37873647260E+02  0.51100000000E-03 0.  1.
         12    1    3    3    0    0 -0.29191765185E+02 -0.26509288749E+02 -0.98927710198E+01  0.40654255165E+02  0.00000000000E+00 0. -1.
</event>
<event>
 7    1  0.2490895E-015  0.9000775E+02  0.7816164E-02  0.1186339E+00
        -11   -1    0    0    0    0  0.00000000000E+00  0.00000000000E+00  0.45593999997E+02  0.45594000000E+02  0.51100000000E-03 0.  1.
         11   -1    0    0    0    0 -0.00000000000E+00 -0.00000000000E+00 -0.45593999997E+02  0.45594000000E+02  0.51100000000E-03 0. -1.
    9900012    2    1    2    0    0 -0.83376350517E-01  0.88436385617E+00  0.77713310702E+00  0.90007751335E+02  0.90000012852E+02 0.  0.
         12    1    1    2    0    0  0.83376350517E-01 -0.88436385617E+00 -0.77713310702E+00  0.11802486653E+01  0.00000000000E+00 0. -1.
         11    1    3    3    0    0 -0.93321980920E+01 -0.42791260030E+01  0.90938323141E+00  0.10306688057E+02  0.51100000000E-03 0. -1.
        -11    1    3    3    0    0 -0.26789371034E+01  0.38905627586E+02  0.13697799792E+02  0.41333452327E+02  0.51100000000E-03 0.  1.
         12    1    3    3    0    0  0.11927758845E+02 -0.33742137726E+02 -0.13830049916E+02  0.38367610951E+02  0.00000000000E+00 0. -1.
</event>
<event>
 7    1  0.2490895E-015  0.9000771E+02  0.7816164E-02  0.1186339E+00
        -11   -1    0    0    0    0  0.00000000000E+00  0.00000000000E+00  0.45593999997E+02  0.45594000000E+02  0.51100000000E-03 0. -1.
         11   -1    0    0    0    0 -0.00000000000E+00 -0.00000000000E+00 -0.45593999997E+02  0.45594000000E+02  0.51100000000E-03 0.  1.
    9900012    2    1    2    0    0 -0.66325940559E+00  0.72816136152E+00  0.65034687967E+00  0.90007710598E+02  0.89999971578E+02 0.  0.
         12    1    1    2    0    0  0.66325940559E+00 -0.72816136152E+00 -0.65034687967E+00  0.11802894015E+01  0.00000000000E+00 0. -1.
         11    1    3    3    0    0  0.68423045921E+00 -0.48336160163E+01 -0.21293885029E+01  0.53260032643E+01  0.51100000000E-03 0. -1.
        -11    1    3    3    0    0  0.24920154866E+01  0.38317052482E+02 -0.21241122219E+02  0.43881567035E+02  0.51100000000E-03 0.  1.
         12    1    3    3    0    0 -0.38395053514E+01 -0.32755275104E+02  0.24020857601E+02  0.40800140299E+02  0.00000000000E+00 0. -1.
</event>
<event>
 7    1  0.2490895E-015  0.9000774E+02  0.7816164E-02  0.1186339E+00
        -11   -1    0    0    0    0  0.00000000000E+00  0.00000000000E+00  0.45593999997E+02  0.45594000000E+02  0.51100000000E-03 0.  1.
         11   -1    0    0    0    0 -0.00000000000E+00 -0.00000000000E+00 -0.45593999997E+02  0.45594000000E+02  0.51100000000E-03 0. -1.
    9900012    2    1    2    0    0 -0.17539162070E-01  0.18194112099E+00  0.11660168275E+01  0.90007743487E+02  0.90000004901E+02 0.  0.
         12    1    1    2    0    0  0.17539162070E-01 -0.18194112099E+00 -0.11660168275E+01  0.11802565127E+01  0.00000000000E+00 0. -1.
         11    1    3    3    0    0 -0.21795645711E+02  0.37712080453E+00 -0.30069372287E+02  0.37139729968E+02  0.51100000000E-03 0. -1.
        -11    1    3    3    0    0 -0.20569842741E+01  0.93884431728E+01 -0.29976782692E+01  0.10067776556E+02  0.51100000000E-03 0.  1.
        -12    1    3    3    0    0  0.23835090823E+02 -0.95836228563E+01  0.34233067384E+02  0.42800236963E+02  0.00000000000E+00 0.  1.
</event>
<event>
 7    1  0.2490895E-015  0.9000752E+02  0.7816164E-02  0.1186339E+00
        -11   -1    0    0    0    0  0.00000000000E+00  0.00000000000E+00  0.45593999997E+02  0.45594000000E+02  0.51100000000E-03 0.  1.
         11   -1    0    0    0    0 -0.00000000000E+00 -0.00000000000E+00 -0.45593999997E+02  0.45594000000E+02  0.51100000000E-03 0. -1.
    9900012    2    1    2    0    0 -0.10325422926E+01  0.49949638774E+00  0.27908914596E+00  0.90007520869E+02  0.89999779344E+02 0.  0.
         12    1    1    2    0    0  0.10325422926E+01 -0.49949638774E+00 -0.27908914596E+00  0.11804791310E+01  0.00000000000E+00 0. -1.
         11    1    3    3    0    0  0.81469990150E+01  0.21719788312E+00  0.54854160860E+01  0.98239787138E+01  0.51100000000E-03 0. -1.
        -11    1    3    3    0    0  0.24439239201E+02  0.22245977517E+01  0.24938014163E+02  0.34987566342E+02  0.51100000000E-03 0.  1.
         12    1    3    3    0    0 -0.33618780508E+02 -0.19422992471E+01 -0.30144341103E+02  0.45195975814E+02  0.00000000000E+00 0. -1.
</event>
<event>
 7    1  0.2490895E-015  0.9000770E+02  0.7816164E-02  0.1186339E+00
        -11   -1    0    0    0    0  0.00000000000E+00  0.00000000000E+00  0.45593999997E+02  0.45594000000E+02  0.51100000000E-03 0.  1.
         11   -1    0    0    0    0 -0.00000000000E+00 -0.00000000000E+00 -0.45593999997E+02  0.45594000000E+02  0.51100000000E-03 0. -1.
    9900012    2    1    2    0    0  0.67953540425E+00  0.40279688521E+00  0.87697701894E+00  0.90007702415E+02  0.89999963287E+02 0.  0.
         12    1    1    2    0    0 -0.67953540425E+00 -0.40279688521E+00 -0.87697701894E+00  0.11802975846E+01  0.00000000000E+00 0. -1.
         11    1    3    3    0    0 -0.29801281490E+01 -0.99959911873E+01 -0.16572426649E+01  0.10561602961E+02  0.51100000000E-03 0. -1.
        -11    1    3    3    0    0  0.28763534992E+02 -0.16939238247E+02 -0.17047172860E+02  0.37481793452E+02  0.51100000000E-03 0.  1.
         12    1    3    3    0    0 -0.25103871439E+02  0.27338026320E+02  0.19581392543E+02  0.41964306002E+02  0.00000000000E+00 0. -1.
</event>
<event>
 7    1  0.2490895E-015  0.9000787E+02  0.7816164E-02  0.1186339E+00
        -11   -1    0    0    0    0  0.00000000000E+00  0.00000000000E+00  0.45593999997E+02  0.45594000000E+02  0.51100000000E-03 0. -1.
         11   -1    0    0    0    0 -0.00000000000E+00 -0.00000000000E+00 -0.45593999997E+02  0.45594000000E+02  0.51100000000E-03 0.  1.
    9900012    2    1    2    0    0 -0.26842714225E+00  0.10186437542E+01 -0.53198557159E+00  0.90007874211E+02  0.90000137351E+02 0.  0.
         12    1    1    2    0    0  0.26842714225E+00 -0.10186437542E+01  0.53198557159E+00  0.11801257887E+01  0.00000000000E+00 0. -1.
         11    1    3    3    0    0 -0.15113147550E+01  0.14648925692E+02 -0.10520558801E+02  0.18098542869E+02  0.51100000000E-03 0. -1.
        -11    1    3    3    0    0  0.10047262453E+02  0.94701972535E+01 -0.25300437606E+02  0.28822634545E+02  0.51100000000E-03 0.  1.
         12    1    3    3    0    0 -0.88043748407E+01 -0.23100479191E+02  0.35289010835E+02  0.43086696798E+02  0.00000000000E+00 0. -1.
</event>
<event>
 7    1  0.2490895E-015  0.9000781E+02  0.7816164E-02  0.1186339E+00
        -11   -1    0    0    0    0  0.00000000000E+00  0.00000000000E+00  0.45593999997E+02  0.45594000000E+02  0.51100000000E-03 0. -1.
         11   -1    0    0    0    0 -0.00000000000E+00 -0.00000000000E+00 -0.45593999997E+02  0.45594000000E+02  0.51100000000E-03 0.  1.
    9900012    2    1    2    0    0  0.89165552572E-01 -0.11417512093E+01  0.28512962290E+00  0.90007811362E+02  0.90000073672E+02 0.  0.
         12    1    1    2    0    0 -0.89165552572E-01  0.11417512093E+01 -0.28512962290E+00  0.11801886381E+01  0.00000000000E+00 0. -1.
         11    1    3    3    0    0 -0.35252168896E+00 -0.23531780415E+01 -0.90874050507E+01  0.93937558651E+01  0.51100000000E-03 0. -1.
        -11    1    3    3    0    0  0.38853645688E+02 -0.49590759712E+01 -0.42382347526E+01  0.39397472658E+02  0.51100000000E-03 0.  1.
         12    1    3    3    0    0 -0.38411958447E+02  0.61705028035E+01  0.13610769426E+02  0.41216582839E+02  0.00000000000E+00 0. -1.
</event>
<event>
 7    1  0.2490895E-015  0.9000777E+02  0.7816164E-02  0.1186339E+00
        -11   -1    0    0    0    0  0.00000000000E+00  0.00000000000E+00  0.45593999997E+02  0.45594000000E+02  0.51100000000E-03 0. -1.
         11   -1    0    0    0    0 -0.00000000000E+00 -0.00000000000E+00 -0.45593999997E+02  0.45594000000E+02  0.51100000000E-03 0.  1.
    9900012    2    1    2    0    0 -0.82205581899E+00  0.15249147440E+00 -0.83302022982E+00  0.90007766073E+02  0.90000027785E+02 0.  0.
         12    1    1    2    0    0  0.82205581899E+00 -0.15249147440E+00  0.83302022982E+00  0.11802339271E+01  0.00000000000E+00 0. -1.
         11    1    3    3    0    0  0.18046404802E+02  0.16252971125E+02 -0.23469275877E+02  0.33773343144E+02  0.51100000000E-03 0. -1.
        -11    1    3    3    0    0  0.77246398904E+01  0.66617911638E+01 -0.52572010789E+01  0.11475525539E+02  0.51100000000E-03 0.  1.
        -12    1    3    3    0    0 -0.26593100511E+02 -0.22762270815E+02  0.27893456726E+02  0.44758897390E+02  0.00000000000E+00 0.  1.
</event>
<event>
 7    1  0.2490895E-015  0.9000775E+02  0.7816164E-02  0.1186339E+00
        -11   -1    0    0    0    0  0.00000000000E+00  0.00000000000E+00  0.45593999997E+02  0.45594000000E+02  0.51100000000E-03 0.  1.
         11   -1    0    0    0    0 -0.00000000000E+00 -0.00000000000E+00 -0.45593999997E+02  0.45594000000E+02  0.51100000000E-03 0. -1.
    9900012    2    1    2    0    0 -0.65812371163E+00 -0.95627111124E+00  0.21309230707E+00  0.90007750200E+02  0.90000011703E+02 0.  0.
         12    1    1    2    0    0  0.65812371163E+00  0.95627111124E+00 -0.21309230707E+00  0.11802497996E+01  0.00000000000E+00 0. -1.
         11    1    3    3    0    0 -0.39378538049E+00 -0.88814977885E+01  0.49970542047E+01  0.10198363637E+02  0.51100000000E-03 0. -1.
        -11    1    3    3    0    0  0.57321140805E+01  0.24400570910E+02  0.31057134106E+02  0.39909780402E+02  0.51100000000E-03 0.  1.
         12    1    3    3    0    0 -0.59964524116E+01 -0.16475344233E+02 -0.35841096003E+02  0.39899606162E+02  0.00000000000E+00 0. -1.
</event>
<event>
 7    1  0.2490895E-015  0.9000773E+02  0.7816164E-02  0.1186339E+00
        -11   -1    0    0    0    0  0.00000000000E+00  0.00000000000E+00  0.45593999997E+02  0.45594000000E+02  0.51100000000E-03 0. -1.
         11   -1    0    0    0    0 -0.00000000000E+00 -0.00000000000E+00 -0.45593999997E+02  0.45594000000E+02  0.51100000000E-03 0.  1.
    9900012    2    1    2    0    0  0.57429566130E+00 -0.10141047529E+01  0.18659855189E+00  0.90007727584E+02  0.89999988788E+02 0.  0.
         12    1    1    2    0    0 -0.57429566130E+00  0.10141047529E+01 -0.18659855189E+00  0.11802724161E+01  0.00000000000E+00 0. -1.
         11    1    3    3    0    0 -0.16577674449E+02  0.25820886387E+02  0.17091227313E+02  0.35123318683E+02  0.51100000000E-03 0. -1.
        -11    1    3    3    0    0 -0.63800037179E+00  0.10017610742E+02 -0.83982989801E+01  0.13087818591E+02  0.51100000000E-03 0.  1.
        -12    1    3    3    0    0  0.17789970482E+02 -0.36852601882E+02 -0.85063297812E+01  0.41796590310E+02  0.00000000000E+00 0.  1.
</event>
<event>
 7    1  0.2490895E-015  0.9000765E+02  0.7816164E-02  0.1186339E+00
        -11   -1    0    0    0    0  0.00000000000E+00  0.00000000000E+00  0.45593999997E+02  0.45594000000E+02  0.51100000000E-03 0.  1.
         11   -1    0    0    0    0 -0.00000000000E+00 -0.00000000000E+00 -0.45593999997E+02  0.45594000000E+02  0.51100000000E-03 0. -1.
    9900012    2    1    2    0    0  0.46198950316E+00 -0.74409070451E+00  0.79127456798E+00  0.90007652289E+02  0.89999912499E+02 0.  0.
         12    1    1    2    0    0 -0.46198950316E+00  0.74409070451E+00 -0.79127456798E+00  0.11803477113E+01  0.00000000000E+00 0. -1.
         11    1    3    3    0    0 -0.69121123068E+01 -0.39547985961E+02  0.11647659555E+01  0.40164376879E+02  0.51100000000E-03 0. -1.
        -11    1    3    3    0    0 -0.71666162022E+01  0.28782234651E+00 -0.45006201319E+01  0.84675150620E+01  0.51100000000E-03 0.  1.
        -12    1    3    3    0    0  0.14540718012E+02  0.38516072910E+02  0.41271287444E+01  0.41375760348E+02  0.00000000000E+00 0.  1.
</event>
<event>
 7    1  0.2490895E-015  0.9000778E+02  0.7816164E-02  0.1186339E+00
        -11   -1    0    0    0    0  0.00000000000E+00  0.00000000000E+00  0.45593999997E+02  0.45594000000E+02  0.51100000000E-03 0.  1.
         11   -1    0    0    0    0 -0.00000000000E+00 -0.00000000000E+00 -0.45593999997E+02  0.45594000000E+02  0.51100000000E-03 0. -1.
    9900012    2    1    2    0    0  0.98825383217E+00  0.64266959582E+00 -0.57000595172E-01  0.90007780142E+02  0.90000042040E+02 0.  0.
         12    1    1    2    0    0 -0.98825383217E+00 -0.64266959582E+00  0.57000595172E-01  0.11802198583E+01  0.00000000000E+00 0. -1.
         11    1    3    3    0    0 -0.16516008696E+02 -0.22077287001E+02 -0.25999370050E+02  0.37896601270E+02  0.51100000000E-03 0. -1.
        -11    1    3    3    0    0 -0.80206115087E+01 -0.33657708672E+01  0.50578929634E+01  0.10061853904E+02  0.51100000000E-03 0.  1.
        -12    1    3    3    0    0  0.25524874037E+02  0.26085727464E+02  0.20884476491E+02  0.42049324967E+02  0.00000000000E+00 0.  1.
</event>
<event>
 7    1  0.2490895E-015  0.9000787E+02  0.7816164E-02  0.1186339E+00
        -11   -1    0    0    0    0  0.00000000000E+00  0.00000000000E+00  0.45593999997E+02  0.45594000000E+02  0.51100000000E-03 0.  1.
         11   -1    0    0    0    0 -0.00000000000E+00 -0.00000000000E+00 -0.45593999997E+02  0.45594000000E+02  0.51100000000E-03 0. -1.
    9900012    2    1    2    0    0  0.11682272403E+01  0.59499135081E-01 -0.15624572475E+00  0.90007869601E+02  0.90000132680E+02 0.  0.
         12    1    1    2    0    0 -0.11682272403E+01 -0.59499135081E-01  0.15624572475E+00  0.11801303989E+01  0.00000000000E+00 0. -1.
         11    1    3    3    0    0 -0.91081804750E+01 -0.60595405233E+01 -0.35356097525E+00  0.10945409474E+02  0.51100000000E-03 0. -1.
        -11    1    3    3    0    0 -0.30198612005E+02 -0.13882390931E+02 -0.50237338393E+01  0.33614206029E+02  0.51100000000E-03 0.  1.
         12    1    3    3    0    0  0.40475019721E+02  0.20001430589E+02  0.52210490898E+01  0.45448254099E+02  0.00000000000E+00 0. -1.
</event>
<event>
 7    1  0.2490895E-015  0.9000765E+02  0.7816164E-02  0.1186339E+00
        -11   -1    0    0    0    0  0.00000000000E+00  0.00000000000E+00  0.45593999997E+02  0.45594000000E+02  0.51100000000E-03 0.  1.
         11   -1    0    0    0    0 -0.00000000000E+00 -0.00000000000E+00 -0.45593999997E+02  0.45594000000E+02  0.51100000000E-03 0. -1.
    9900012    2    1    2    0    0 -0.11648479727E+01  0.13273380715E+00  0.13690063256E+00  0.90007647999E+02  0.89999908153E+02 0.  0.
         12    1    1    2    0    0  0.11648479727E+01 -0.13273380715E+00 -0.13690063256E+00  0.11803520010E+01  0.00000000000E+00 0. -1.
         11    1    3    3    0    0 -0.78160269938E+01  0.18865845617E+01  0.36307615697E+01  0.88222394614E+01  0.51100000000E-03 0. -1.
        -11    1    3    3    0    0 -0.28014107720E+02  0.19631289960E+02  0.13863439905E+02  0.36910333825E+02  0.51100000000E-03 0.  1.
         12    1    3    3    0    0  0.34665286741E+02 -0.21385140714E+02 -0.17357300842E+02  0.44275074712E+02  0.00000000000E+00 0. -1.
</event>
<event>
 7    1  0.2490895E-015  0.9000783E+02  0.7816164E-02  0.1186339E+00
        -11   -1    0    0    0    0  0.00000000000E+00  0.00000000000E+00  0.45593999997E+02  0.45594000000E+02  0.51100000000E-03 0.  1.
         11   -1    0    0    0    0 -0.00000000000E+00 -0.00000000000E+00 -0.45593999997E+02  0.45594000000E+02  0.51100000000E-03 0. -1.
    9900012    2    1    2    0    0  0.70464940016E+00 -0.22346571656E+00  0.91996211229E+00  0.90007831372E+02  0.90000093946E+02 0.  0.
         12    1    1    2    0    0 -0.70464940016E+00  0.22346571656E+00 -0.91996211229E+00  0.11801686285E+01  0.00000000000E+00 0. -1.
         11    1    3    3    0    0 -0.60547654598E+01  0.12436121168E+00  0.69540256532E+01  0.92213948799E+01  0.51100000000E-03 0. -1.
        -11    1    3    3    0    0 -0.21345327505E+02  0.15355376228E+01  0.28868360503E+02  0.35935541188E+02  0.51100000000E-03 0.  1.
         12    1    3    3    0    0  0.28104742365E+02 -0.18833645510E+01 -0.34902424044E+02  0.44850895304E+02  0.00000000000E+00 0. -1.
</event>
<event>
 7    1  0.2490895E-015  0.9000764E+02  0.7816164E-02  0.1186339E+00
        -11   -1    0    0    0    0  0.00000000000E+00  0.00000000000E+00  0.45593999997E+02  0.45594000000E+02  0.51100000000E-03 0.  1.
         11   -1    0    0    0    0 -0.00000000000E+00 -0.00000000000E+00 -0.45593999997E+02  0.45594000000E+02  0.51100000000E-03 0. -1.
    9900012    2    1    2    0    0 -0.98918107304E+00 -0.54378267760E+00  0.34505975966E+00  0.90007641989E+02  0.89999902063E+02 0.  0.
         12    1    1    2    0    0  0.98918107304E+00  0.54378267760E+00 -0.34505975966E+00  0.11803580107E+01  0.00000000000E+00 0. -1.
         11    1    3    3    0    0  0.24259779009E+02 -0.33553321045E+02 -0.15885149721E+01  0.41435318399E+02  0.51100000000E-03 0. -1.
        -11    1    3    3    0    0  0.13500502035E+01  0.53891132415E+01 -0.72581234316E+01  0.91403245616E+01  0.51100000000E-03 0.  1.
        -12    1    3    3    0    0 -0.26599010285E+02  0.27620425126E+02  0.91916981634E+01  0.39431999029E+02  0.00000000000E+00 0.  1.
</event>
<event>
 7    1  0.2490895E-015  0.9000777E+02  0.7816164E-02  0.1186339E+00
        -11   -1    0    0    0    0  0.00000000000E+00  0.00000000000E+00  0.45593999997E+02  0.45594000000E+02  0.51100000000E-03 0.  1.
         11   -1    0    0    0    0 -0.00000000000E+00 -0.00000000000E+00 -0.45593999997E+02  0.45594000000E+02  0.51100000000E-03 0. -1.
    9900012    2    1    2    0    0 -0.34968389174E+00  0.53231085831E+00  0.99363463243E+00  0.90007769744E+02  0.90000031505E+02 0.  0.
         12    1    1    2    0    0  0.34968389174E+00 -0.53231085831E+00 -0.99363463243E+00  0.11802302558E+01  0.00000000000E+00 0. -1.
         11    1    3    3    0    0  0.25024247173E+01 -0.54071978368E+01  0.74426494467E+01  0.95337793639E+01  0.51100000000E-03 0. -1.
        -11    1    3    3    0    0  0.19730109913E+02 -0.19635524925E+02  0.22450692906E+02  0.35761217660E+02  0.51100000000E-03 0.  1.
         12    1    3    3    0    0 -0.22582218522E+02  0.25575033620E+02 -0.28899707720E+02  0.44712772721E+02  0.00000000000E+00 0. -1.
</event>
<event>
 7    1  0.2490895E-015  0.9000761E+02  0.7816164E-02  0.1186339E+00
        -11   -1    0    0    0    0  0.00000000000E+00  0.00000000000E+00  0.45593999997E+02  0.45594000000E+02  0.51100000000E-03 0.  1.
         11   -1    0    0    0    0 -0.00000000000E+00 -0.00000000000E+00 -0.45593999997E+02  0.45594000000E+02  0.51100000000E-03 0. -1.
    9900012    2    1    2    0    0 -0.96055281976E+00 -0.14673987980E+00  0.67016246546E+00  0.90007613605E+02  0.89999873304E+02 0.  0.
         12    1    1    2    0    0  0.96055281976E+00  0.14673987980E+00 -0.67016246546E+00  0.11803863952E+01  0.00000000000E+00 0. -1.
         11    1    3    3    0    0 -0.78009165129E+01  0.71131795475E+00  0.35530116259E+01  0.86014047428E+01  0.51100000000E-03 0. -1.
        -11    1    3    3    0    0 -0.28617773124E+02 -0.17023494213E+02  0.17296061350E+02  0.37522393744E+02  0.51100000000E-03 0.  1.
         12    1    3    3    0    0  0.35458136818E+02  0.16165436379E+02 -0.20178910510E+02  0.43883815118E+02  0.00000000000E+00 0. -1.
</event>
<event>
 7    1  0.2490895E-015  0.9000782E+02  0.7816164E-02  0.1186339E+00
        -11   -1    0    0    0    0  0.00000000000E+00  0.00000000000E+00  0.45593999997E+02  0.45594000000E+02  0.51100000000E-03 0. -1.
         11   -1    0    0    0    0 -0.00000000000E+00 -0.00000000000E+00 -0.45593999997E+02  0.45594000000E+02  0.51100000000E-03 0.  1.
    9900012    2    1    2    0    0  0.32843485543E+00  0.11224921899E+01 -0.15801119259E+00  0.90007819629E+02  0.90000082048E+02 0.  0.
         12    1    1    2    0    0 -0.32843485543E+00 -0.11224921899E+01  0.15801119259E+00  0.11801803708E+01  0.00000000000E+00 0. -1.
         11    1    3    3    0    0  0.33989632657E+01  0.31118634409E+01 -0.83895995145E+01  0.95719394916E+01  0.51100000000E-03 0. -1.
        -11    1    3    3    0    0  0.73092276407E+01 -0.29332637176E+02  0.31053991947E+02  0.43337960595E+02  0.51100000000E-03 0.  1.
         12    1    3    3    0    0 -0.10379756051E+02  0.27343265925E+02 -0.22822403625E+02  0.37097919543E+02  0.00000000000E+00 0. -1.
</event>
<event>
 7    1  0.2490895E-015  0.9000776E+02  0.7816164E-02  0.1186339E+00
        -11   -1    0    0    0    0  0.00000000000E+00  0.00000000000E+00  0.45593999997E+02  0.45594000000E+02  0.51100000000E-03 0. -1.
         11   -1    0    0    0    0 -0.00000000000E+00 -0.00000000000E+00 -0.45593999997E+02  0.45594000000E+02  0.51100000000E-03 0.  1.
    9900012    2    1    2    0    0  0.82924344182E+00  0.83933653530E+00 -0.28909112388E-01  0.90007760091E+02  0.90000021725E+02 0.  0.
         12    1    1    2    0    0 -0.82924344182E+00 -0.83933653530E+00  0.28909112388E-01  0.11802399087E+01  0.00000000000E+00 0. -1.
         11    1    3    3    0    0  0.32480985349E+02 -0.19239815931E+02 -0.50167828130E+01  0.38083500841E+02  0.51100000000E-03 0. -1.
        -11    1    3    3    0    0  0.79330979889E+01  0.33734319499E+01  0.20339633150E+01  0.88572622096E+01  0.51100000000E-03 0.  1.
        -12    1    3    3    0    0 -0.39584839896E+02  0.16705720516E+02  0.29539103856E+01  0.43066997041E+02  0.00000000000E+00 0.  1.
</event>
<event>
 7    1  0.2490895E-015  0.9000768E+02  0.7816164E-02  0.1186339E+00
        -11   -1    0    0    0    0  0.00000000000E+00  0.00000000000E+00  0.45593999997E+02  0.45594000000E+02  0.51100000000E-03 0. -1.
         11   -1    0    0    0    0 -0.00000000000E+00 -0.00000000000E+00 -0.45593999997E+02  0.45594000000E+02  0.51100000000E-03 0.  1.
    9900012    2    1    2    0    0  0.64201375102E+00 -0.87360784328E+00 -0.46667647458E+00  0.90007678327E+02  0.89999938881E+02 0.  0.
         12    1    1    2    0    0 -0.64201375102E+00  0.87360784328E+00  0.46667647458E+00  0.11803216732E+01  0.00000000000E+00 0. -1.
         11    1    3    3    0    0  0.85434856823E+01 -0.37421795382E+01  0.46303581494E+01  0.10413225828E+02  0.51100000000E-03 0. -1.
        -11    1    3    3    0    0  0.24218735946E+02  0.18445804622E+02 -0.24397152120E+02  0.39013022323E+02  0.51100000000E-03 0.  1.
         12    1    3    3    0    0 -0.32120207877E+02 -0.15577232927E+02  0.19300117496E+02  0.40581430175E+02  0.00000000000E+00 0. -1.
</event>
<event>
 7    1  0.2490895E-015  0.9000776E+02  0.7816164E-02  0.1186339E+00
        -11   -1    0    0    0    0  0.00000000000E+00  0.00000000000E+00  0.45593999997E+02  0.45594000000E+02  0.51100000000E-03 0.  1.
         11   -1    0    0    0    0 -0.00000000000E+00 -0.00000000000E+00 -0.45593999997E+02  0.45594000000E+02  0.51100000000E-03 0. -1.
    9900012    2    1    2    0    0  0.61533214193E+00 -0.61876851713E+00  0.79464255591E+00  0.90007760654E+02  0.90000022294E+02 0.  0.
         12    1    1    2    0    0 -0.61533214193E+00  0.61876851713E+00 -0.79464255591E+00  0.11802393462E+01  0.00000000000E+00 0. -1.
         11    1    3    3    0    0 -0.20985359452E+02 -0.19959359529E+02  0.22436702911E+02  0.36635597196E+02  0.51100000000E-03 0. -1.
        -11    1    3    3    0    0 -0.62826308645E+01  0.34862020970E+01  0.72468005228E+01  0.10204958291E+02  0.51100000000E-03 0.  1.
        -12    1    3    3    0    0  0.27883322458E+02  0.15854388915E+02 -0.28888860877E+02  0.43167205167E+02  0.00000000000E+00 0.  1.
</event>
<event>
 7    1  0.2490895E-015  0.9000766E+02  0.7816164E-02  0.1186339E+00
        -11   -1    0    0    0    0  0.00000000000E+00  0.00000000000E+00  0.45593999997E+02  0.45594000000E+02  0.51100000000E-03 0.  1.
         11   -1    0    0    0    0 -0.00000000000E+00 -0.00000000000E+00 -0.45593999997E+02  0.45594000000E+02  0.51100000000E-03 0. -1.
    9900012    2    1    2    0    0 -0.59550660486E+00  0.10125546817E+01 -0.11532327803E+00  0.90007663371E+02  0.89999923727E+02 0.  0.
         12    1    1    2    0    0  0.59550660486E+00 -0.10125546817E+01  0.11532327803E+00  0.11803366293E+01  0.00000000000E+00 0. -1.
         11    1    3    3    0    0  0.82992433401E+01  0.15774330334E+02 -0.35680714564E+02  0.39885089063E+02  0.51100000000E-03 0. -1.
        -11    1    3    3    0    0 -0.66203346346E+01 -0.50209050325E+01 -0.40644938483E+01  0.92497799176E+01  0.51100000000E-03 0.  1.
        -12    1    3    3    0    0 -0.22744153103E+01 -0.97408706199E+01  0.39629885135E+02  0.40872794390E+02  0.00000000000E+00 0.  1.
</event>
<event>
 7    1  0.2490895E-015  0.9000778E+02  0.7816164E-02  0.1186339E+00
        -11   -1    0    0    0    0  0.00000000000E+00  0.00000000000E+00  0.45593999997E+02  0.45594000000E+02  0.51100000000E-03 0.  1.
         11   -1    0    0    0    0 -0.00000000000E+00 -0.00000000000E+00 -0.45593999997E+02  0.45594000000E+02  0.51100000000E-03 0. -1.
    9900012    2    1    2    0    0 -0.10943202397E+01 -0.43990005381E+00  0.43202989356E-01  0.90007781655E+02  0.90000043573E+02 0.  0.
         12    1    1    2    0    0  0.10943202397E+01  0.43990005381E+00 -0.43202989356E-01  0.11802183453E+01  0.00000000000E+00 0. -1.
         11    1    3    3    0    0  0.33417673605E+01  0.89934868293E+01  0.96404674524E+01  0.13601059790E+02  0.51100000000E-03 0. -1.
        -11    1    3    3    0    0  0.29303487799E+02  0.56688825700E+01 -0.22367238965E+02  0.37297774813E+02  0.51100000000E-03 0.  1.
         12    1    3    3    0    0 -0.33739575400E+02 -0.15102269453E+02  0.12769974502E+02  0.39108947052E+02  0.00000000000E+00 0. -1.
</event>
<event>
 7    1  0.2490895E-015  0.9000774E+02  0.7816164E-02  0.1186339E+00
        -11   -1    0    0    0    0  0.00000000000E+00  0.00000000000E+00  0.45593999997E+02  0.45594000000E+02  0.51100000000E-03 0. -1.
         11   -1    0    0    0    0 -0.00000000000E+00 -0.00000000000E+00 -0.45593999997E+02  0.45594000000E+02  0.51100000000E-03 0.  1.
    9900012    2    1    2    0    0 -0.21578754274E+00 -0.10257120771E+01  0.54255222224E+00  0.90007740519E+02  0.90000001894E+02 0.  0.
         12    1    1    2    0    0  0.21578754274E+00  0.10257120771E+01 -0.54255222224E+00  0.11802594810E+01  0.00000000000E+00 0. -1.
         11    1    3    3    0    0  0.53400818472E+01  0.27095943521E+02  0.28668838444E+02  0.39807146688E+02  0.51100000000E-03 0. -1.
        -11    1    3    3    0    0  0.27109549949E+01  0.45826297290E+01 -0.11327017022E+02  0.12516033201E+02  0.51100000000E-03 0.  1.
        -12    1    3    3    0    0 -0.82668243849E+01 -0.32704285327E+02 -0.16799269200E+02  0.37684560629E+02  0.00000000000E+00 0.  1.
</event>
<event>
 7    1  0.2490895E-015  0.9000776E+02  0.7816164E-02  0.1186339E+00
        -11   -1    0    0    0    0  0.00000000000E+00  0.00000000000E+00  0.45593999997E+02  0.45594000000E+02  0.51100000000E-03 0.  1.
         11   -1    0    0    0    0 -0.00000000000E+00 -0.00000000000E+00 -0.45593999997E+02  0.45594000000E+02  0.51100000000E-03 0. -1.
    9900012    2    1    2    0    0 -0.62138881806E+00 -0.32424266852E+00  0.94958652785E+00  0.90007757675E+02  0.90000019277E+02 0.  0.
         12    1    1    2    0    0  0.62138881806E+00  0.32424266852E+00 -0.94958652785E+00  0.11802423248E+01  0.00000000000E+00 0. -1.
         11    1    3    3    0    0  0.17242864226E+01 -0.35405617155E+01 -0.72792711443E+01  0.82762630204E+01  0.51100000000E-03 0. -1.
        -11    1    3    3    0    0  0.36893085850E+02 -0.87652463193E+01  0.13746606644E+02  0.40334830124E+02  0.51100000000E-03 0.  1.
         12    1    3    3    0    0 -0.39238761091E+02  0.11981565366E+02 -0.55177489722E+01  0.41396664531E+02  0.00000000000E+00 0. -1.
</event>
<event>
 7    1  0.2490895E-015  0.9000780E+02  0.7816164E-02  0.1186339E+00
        -11   -1    0    0    0    0  0.00000000000E+00  0.00000000000E+00  0.45593999997E+02  0.45594000000E+02  0.51100000000E-03 0.  1.
         11   -1    0    0    0    0 -0.00000000000E+00 -0.00000000000E+00 -0.45593999997E+02  0.45594000000E+02  0.51100000000E-03 0. -1.
    9900012    2    1    2    0    0  0.49644098275E+00  0.85138831000E+00  0.64928200094E+00  0.90007795433E+02  0.90000057532E+02 0.  0.
         12    1    1    2    0    0 -0.49644098275E+00 -0.85138831000E+00 -0.64928200094E+00  0.11802045672E+01  0.00000000000E+00 0. -1.
         11    1    3    3    0    0 -0.22721512379E+02  0.25386262264E+02 -0.15703770733E+02  0.37514501890E+02  0.51100000000E-03 0. -1.
        -11    1    3    3    0    0 -0.70566614574E+01  0.30996226181E+01 -0.13825968874E+01  0.78304345801E+01  0.51100000000E-03 0.  1.
        -12    1    3    3    0    0  0.30274614819E+02 -0.27634496572E+02  0.17735649622E+02  0.44662858963E+02  0.00000000000E+00 0.  1.
</event>
<event>
 7    1  0.2490895E-015  0.9000779E+02  0.7816164E-02  0.1186339E+00
        -11   -1    0    0    0    0  0.00000000000E+00  0.00000000000E+00  0.45593999997E+02  0.45594000000E+02  0.51100000000E-03 0.  1.
         11   -1    0    0    0    0 -0.00000000000E+00 -0.00000000000E+00 -0.45593999997E+02  0.45594000000E+02  0.51100000000E-03 0. -1.
    9900012    2    1    2    0    0  0.19738827951E+00 -0.11418329689E+01  0.22396751354E+00  0.90007785567E+02  0.90000047536E+02 0.  0.
         12    1    1    2    0    0 -0.19738827951E+00  0.11418329689E+01 -0.22396751354E+00  0.11802144335E+01  0.00000000000E+00 0. -1.
         11    1    3    3    0    0 -0.38359493881E+01  0.74094999632E+01 -0.41549296552E+01  0.93208711027E+01  0.51100000000E-03 0. -1.
        -11    1    3    3    0    0  0.12830105598E+01 -0.25930523081E+02  0.36068151316E+02  0.44440405972E+02  0.51100000000E-03 0.  1.
         12    1    3    3    0    0  0.27503271078E+01  0.17379190149E+02 -0.31689254147E+02  0.36246508492E+02  0.00000000000E+00 0. -1.
</event>
<event>
 7    1  0.2490895E-015  0.9000777E+02  0.7816164E-02  0.1186339E+00
        -11   -1    0    0    0    0  0.00000000000E+00  0.00000000000E+00  0.45593999997E+02  0.45594000000E+02  0.51100000000E-03 0. -1.
         11   -1    0    0    0    0 -0.00000000000E+00 -0.00000000000E+00 -0.45593999997E+02  0.45594000000E+02  0.51100000000E-03 0.  1.
    9900012    2    1    2    0    0  0.92879980246E+00 -0.58041885214E+00 -0.43976076944E+00  0.90007769238E+02  0.90000030992E+02 0.  0.
         12    1    1    2    0    0 -0.92879980246E+00  0.58041885214E+00  0.43976076944E+00  0.11802307619E+01  0.00000000000E+00 0. -1.
         11    1    3    3    0    0  0.11386487561E+02 -0.59191336361E+01  0.99170567217E+01  0.16218392530E+02  0.51100000000E-03 0. -1.
        -11    1    3    3    0    0 -0.27939516627E+01 -0.32810893838E+02  0.19236003587E+01  0.32985772069E+02  0.51100000000E-03 0.  1.
         12    1    3    3    0    0 -0.76637360958E+01  0.38149608622E+02 -0.12280417850E+02  0.40803604639E+02  0.00000000000E+00 0. -1.
</event>
<event>
 7    1  0.2490895E-015  0.9000771E+02  0.7816164E-02  0.1186339E+00
        -11   -1    0    0    0    0  0.00000000000E+00  0.00000000000E+00  0.45593999997E+02  0.45594000000E+02  0.51100000000E-03 0.  1.
         11   -1    0    0    0    0 -0.00000000000E+00 -0.00000000000E+00 -0.45593999997E+02  0.45594000000E+02  0.51100000000E-03 0. -1.
    9900012    2    1    2    0    0  0.46829542261E+00 -0.10781953278E+01  0.10624508245E+00  0.90007706060E+02  0.89999966980E+02 0.  0.
         12    1    1    2    0    0 -0.46829542261E+00  0.10781953278E+01 -0.10624508245E+00  0.11802939402E+01  0.00000000000E+00 0. -1.
         11    1    3    3    0    0 -0.11913621247E+01 -0.34167982369E+02 -0.23214013491E+01  0.34267466602E+02  0.51100000000E-03 0. -1.
        -11    1    3    3    0    0 -0.12519414634E+02 -0.57477605764E+01 -0.28266439970E+01  0.14062802387E+02  0.51100000000E-03 0.  1.
        -12    1    3    3    0    0  0.14179072182E+02  0.38837547617E+02  0.52542904286E+01  0.41677437070E+02  0.00000000000E+00 0.  1.
</event>
<event>
 7    1  0.2490895E-015  0.9000739E+02  0.7816164E-02  0.1186340E+00
        -11   -1    0    0    0    0  0.00000000000E+00  0.00000000000E+00  0.45593999997E+02  0.45594000000E+02  0.51100000000E-03 0.  1.
         11   -1    0    0    0    0 -0.00000000000E+00 -0.00000000000E+00 -0.45593999997E+02  0.45594000000E+02  0.51100000000E-03 0. -1.
    9900012    2    1    2    0    0 -0.55934565811E+00 -0.10305350176E+01  0.13773122035E+00  0.90007390040E+02  0.89999646788E+02 0.  0.
         12    1    1    2    0    0  0.55934565811E+00  0.10305350176E+01 -0.13773122035E+00  0.11806099596E+01  0.00000000000E+00 0. -1.
         11    1    3    3    0    0  0.27500747769E+02  0.49842810634E+01  0.30892343896E+01  0.28118989223E+02  0.51100000000E-03 0. -1.
        -11    1    3    3    0    0  0.74389620674E+01 -0.18213576781E+02  0.10141140634E+02  0.22134029669E+02  0.51100000000E-03 0.  1.
        -12    1    3    3    0    0 -0.35499055494E+02  0.12198760700E+02 -0.13092643803E+02  0.39754371148E+02  0.00000000000E+00 0.  1.
</event>
<event>
 7    1  0.2490895E-015  0.9000773E+02  0.7816164E-02  0.1186339E+00
        -11   -1    0    0    0    0  0.00000000000E+00  0.00000000000E+00  0.45593999997E+02  0.45594000000E+02  0.51100000000E-03 0. -1.
         11   -1    0    0    0    0 -0.00000000000E+00 -0.00000000000E+00 -0.45593999997E+02  0.45594000000E+02  0.51100000000E-03 0.  1.
    9900012    2    1    2    0    0  0.24327097446E+00 -0.27366866784E-02 -0.11549218612E+01  0.90007731911E+02  0.89999993172E+02 0.  0.
         12    1    1    2    0    0 -0.24327097446E+00  0.27366866784E-02  0.11549218612E+01  0.11802680890E+01  0.00000000000E+00 0. -1.
         11    1    3    3    0    0  0.17087960094E+02 -0.15228145634E+02 -0.33390788204E+02  0.40482583129E+02  0.51100000000E-03 0. -1.
        -11    1    3    3    0    0  0.45231180327E+01 -0.59692877706E+01  0.69262618088E+01  0.10201181115E+02  0.51100000000E-03 0.  1.
        -12    1    3    3    0    0 -0.21367807152E+02  0.21194696718E+02  0.25309604534E+02  0.39323967668E+02  0.00000000000E+00 0.  1.
</event>
<event>
 7    1  0.2490895E-015  0.9000773E+02  0.7816164E-02  0.1186339E+00
        -11   -1    0    0    0    0  0.00000000000E+00  0.00000000000E+00  0.45593999997E+02  0.45594000000E+02  0.51100000000E-03 0. -1.
         11   -1    0    0    0    0 -0.00000000000E+00 -0.00000000000E+00 -0.45593999997E+02  0.45594000000E+02  0.51100000000E-03 0.  1.
    9900012    2    1    2    0    0 -0.19428375048E+00 -0.63457966230E+00 -0.97601764585E+00  0.90007725469E+02  0.89999986645E+02 0.  0.
         12    1    1    2    0    0  0.19428375048E+00  0.63457966230E+00  0.97601764585E+00  0.11802745310E+01  0.00000000000E+00 0. -1.
         11    1    3    3    0    0  0.16806862379E+01 -0.16367164856E+02 -0.34346303184E+02  0.38083819849E+02  0.51100000000E-03 0. -1.
        -11    1    3    3    0    0 -0.77359772135E+01 -0.49246483279E+01 -0.30334929709E+01  0.96591710031E+01  0.51100000000E-03 0.  1.
        -12    1    3    3    0    0  0.58610072252E+01  0.20657233522E+02  0.36403778509E+02  0.42264734616E+02  0.00000000000E+00 0.  1.
</event>
<event>
 7    1  0.2490895E-015  0.9000772E+02  0.7816164E-02  0.1186339E+00
        -11   -1    0    0    0    0  0.00000000000E+00  0.00000000000E+00  0.45593999997E+02  0.45594000000E+02  0.51100000000E-03 0.  1.
         11   -1    0    0    0    0 -0.00000000000E+00 -0.00000000000E+00 -0.45593999997E+02  0.45594000000E+02  0.51100000000E-03 0. -1.
    9900012    2    1    2    0    0  0.54789872200E+00  0.97374680522E+00  0.38037664947E+00  0.90007719421E+02  0.89999980517E+02 0.  0.
         12    1    1    2    0    0 -0.54789872200E+00 -0.97374680522E+00 -0.38037664947E+00  0.11802805792E+01  0.00000000000E+00 0. -1.
         11    1    3    3    0    0 -0.11043952017E+02 -0.41271933186E+02 -0.90606680696E+01  0.43674214946E+02  0.51100000000E-03 0. -1.
        -11    1    3    3    0    0  0.12581554459E+01  0.95224619542E+01  0.70870413790E+01  0.11936766420E+02  0.51100000000E-03 0.  1.
        -12    1    3    3    0    0  0.10333695293E+02  0.32723218037E+02  0.23540033400E+01  0.34396738055E+02  0.00000000000E+00 0.  1.
</event>
<event>
 7    1  0.2490895E-015  0.9000797E+02  0.7816164E-02  0.1186339E+00
        -11   -1    0    0    0    0  0.00000000000E+00  0.00000000000E+00  0.45593999997E+02  0.45594000000E+02  0.51100000000E-03 0. -1.
         11   -1    0    0    0    0 -0.00000000000E+00 -0.00000000000E+00 -0.45593999997E+02  0.45594000000E+02  0.51100000000E-03 0.  1.
    9900012    2    1    2    0    0  0.10731107317E+01  0.12768148170E+00  0.47391413936E+00  0.90007972960E+02  0.90000237403E+02 0.  0.
         12    1    1    2    0    0 -0.10731107317E+01 -0.12768148170E+00 -0.47391413936E+00  0.11800270399E+01  0.00000000000E+00 0. -1.
         11    1    3    3    0    0 -0.10792257808E+02 -0.24496899209E+01  0.28245274496E+01  0.11421548269E+02  0.51100000000E-03 0. -1.
        -11    1    3    3    0    0  0.14300921053E+02  0.64393809996E+01 -0.38801138437E+02  0.41851049149E+02  0.51100000000E-03 0.  1.
         12    1    3    3    0    0 -0.24355525137E+01 -0.38620095970E+01  0.36450525127E+02  0.36735375542E+02  0.00000000000E+00 0. -1.
</event>
<event>
 7    1  0.3498424E-015  0.9000766E+02  0.7816164E-02  0.1186339E+00
        -11   -1    0    0    0    0  0.00000000000E+00  0.00000000000E+00  0.45593999997E+02  0.45594000000E+02  0.51100000000E-03 0. -1.
         11   -1    0    0    0    0 -0.00000000000E+00 -0.00000000000E+00 -0.45593999997E+02  0.45594000000E+02  0.51100000000E-03 0.  1.
    9900012    2    1    2    0    0 -0.63815185168E+00 -0.20054702543E+00 -0.97249982793E+00  0.90007655639E+02  0.89999915893E+02 0.  0.
         12    1    1    2    0    0  0.63815185168E+00  0.20054702543E+00  0.97249982793E+00  0.11803443610E+01  0.00000000000E+00 0. -1.
         11    1    3    3    0    0 -0.27583206130E+02  0.13057596135E+02  0.27825960581E+02  0.41299130254E+02  0.51100000000E-03 0. -1.
        -11    1    3    3    0    0  0.83491790841E+01 -0.32206472565E+01  0.39114504125E+01  0.97663096777E+01  0.51100000000E-03 0.  1.
        -12    1    3    3    0    0  0.18595875194E+02 -0.10037495904E+02 -0.32709910822E+02  0.38942215707E+02  0.00000000000E+00 0.  1.
</event>
<event>
 7    1  0.2490895E-015  0.9000772E+02  0.7816164E-02  0.1186339E+00
        -11   -1    0    0    0    0  0.00000000000E+00  0.00000000000E+00  0.45593999997E+02  0.45594000000E+02  0.51100000000E-03 0.  1.
         11   -1    0    0    0    0 -0.00000000000E+00 -0.00000000000E+00 -0.45593999997E+02  0.45594000000E+02  0.51100000000E-03 0. -1.
    9900012    2    1    2    0    0  0.85930118210E-02  0.18437379458E+00  0.11657568094E+01  0.90007721866E+02  0.89999982994E+02 0.  0.
         12    1    1    2    0    0 -0.85930118210E-02 -0.18437379458E+00 -0.11657568094E+01  0.11802781345E+01  0.00000000000E+00 0. -1.
         11    1    3    3    0    0 -0.22907023202E+02  0.11359286554E+02 -0.26666422389E+02  0.36944054817E+02  0.51100000000E-03 0. -1.
        -11    1    3    3    0    0 -0.74824438301E+01  0.59877094870E+01  0.24167710434E+01  0.98833401798E+01  0.51100000000E-03 0.  1.
        -12    1    3    3    0    0  0.30398060044E+02 -0.17162622247E+02  0.25415408155E+02  0.43180326869E+02  0.00000000000E+00 0.  1.
</event>
<event>
 7    1  0.2490895E-015  0.9000769E+02  0.7816164E-02  0.1186339E+00
        -11   -1    0    0    0    0  0.00000000000E+00  0.00000000000E+00  0.45593999997E+02  0.45594000000E+02  0.51100000000E-03 0. -1.
         11   -1    0    0    0    0 -0.00000000000E+00 -0.00000000000E+00 -0.45593999997E+02  0.45594000000E+02  0.51100000000E-03 0.  1.
    9900012    2    1    2    0    0  0.10532466134E+01  0.35191436550E+00 -0.39994817150E+00  0.90007690427E+02  0.89999951140E+02 0.  0.
         12    1    1    2    0    0 -0.10532466134E+01 -0.35191436550E+00  0.39994817150E+00  0.11803095735E+01  0.00000000000E+00 0. -1.
         11    1    3    3    0    0  0.23241834382E+02 -0.14601604586E+02 -0.69927725671E+01  0.28324699299E+02  0.51100000000E-03 0. -1.
        -11    1    3    3    0    0 -0.14603594993E+02 -0.19666252313E+02 -0.37101871285E+01  0.24774825036E+02  0.51100000000E-03 0.  1.
         12    1    3    3    0    0 -0.75849927760E+01  0.34619771265E+02  0.10303011524E+02  0.36908166092E+02  0.00000000000E+00 0. -1.
</event>
<event>
 7    1  0.2490895E-015  0.9000774E+02  0.7816164E-02  0.1186339E+00
        -11   -1    0    0    0    0  0.00000000000E+00  0.00000000000E+00  0.45593999997E+02  0.45594000000E+02  0.51100000000E-03 0. -1.
         11   -1    0    0    0    0 -0.00000000000E+00 -0.00000000000E+00 -0.45593999997E+02  0.45594000000E+02  0.51100000000E-03 0.  1.
    9900012    2    1    2    0    0 -0.14742629367E+00 -0.38148547765E+00 -0.11071381200E+01  0.90007737106E+02  0.89999998436E+02 0.  0.
         12    1    1    2    0    0  0.14742629367E+00  0.38148547765E+00  0.11071381200E+01  0.11802628938E+01  0.00000000000E+00 0. -1.
         11    1    3    3    0    0 -0.10500173508E+02 -0.12271803870E+02  0.32589826363E+01  0.16476400760E+02  0.51100000000E-03 0. -1.
        -11    1    3    3    0    0 -0.22872504906E+02 -0.97245442082E+01 -0.18994134513E+02  0.31280910903E+02  0.51100000000E-03 0.  1.
         12    1    3    3    0    0  0.33225252121E+02  0.21614862600E+02  0.14628013757E+02  0.42250425444E+02  0.00000000000E+00 0. -1.
</event>
<event>
 7    1  0.2490895E-015  0.9000785E+02  0.7816164E-02  0.1186339E+00
        -11   -1    0    0    0    0  0.00000000000E+00  0.00000000000E+00  0.45593999997E+02  0.45594000000E+02  0.51100000000E-03 0.  1.
         11   -1    0    0    0    0 -0.00000000000E+00 -0.00000000000E+00 -0.45593999997E+02  0.45594000000E+02  0.51100000000E-03 0. -1.
    9900012    2    1    2    0    0 -0.36268293579E+00  0.28129127074E+00  0.10872406333E+01  0.90007849211E+02  0.90000112020E+02 0.  0.
         12    1    1    2    0    0  0.36268293579E+00 -0.28129127074E+00 -0.10872406333E+01  0.11801507894E+01  0.00000000000E+00 0. -1.
         11    1    3    3    0    0  0.17149248586E+02  0.34433958866E+02 -0.17349641929E+02  0.42199577315E+02  0.51100000000E-03 0. -1.
        -11    1    3    3    0    0 -0.58199755678E-01 -0.38961582439E+00  0.85188434339E+01  0.85279470809E+01  0.51100000000E-03 0.  1.
        -12    1    3    3    0    0 -0.17453731766E+02 -0.33763051771E+02  0.99180391284E+01  0.39280324815E+02  0.00000000000E+00 0.  1.
</event>
<event>
 7    1  0.2490895E-015  0.9000771E+02  0.7816164E-02  0.1186339E+00
        -11   -1    0    0    0    0  0.00000000000E+00  0.00000000000E+00  0.45593999997E+02  0.45594000000E+02  0.51100000000E-03 0.  1.
         11   -1    0    0    0    0 -0.00000000000E+00 -0.00000000000E+00 -0.45593999997E+02  0.45594000000E+02  0.51100000000E-03 0. -1.
    9900012    2    1    2    0    0 -0.60559057671E+00  0.10120302905E+01 -0.46202214936E-01  0.90007711942E+02  0.89999972939E+02 0.  0.
         12    1    1    2    0    0  0.60559057671E+00 -0.10120302905E+01  0.46202214936E-01  0.11802880582E+01  0.00000000000E+00 0. -1.
         11    1    3    3    0    0 -0.98280187895E+01  0.43430562786E+01 -0.45556660025E+01  0.11670740514E+02  0.51100000000E-03 0. -1.
        -11    1    3    3    0    0  0.13306240842E+02  0.34773947126E+02  0.12335131158E+02  0.39222938506E+02  0.51100000000E-03 0.  1.
         12    1    3    3    0    0 -0.40838126295E+01 -0.38104973114E+02 -0.78256673709E+01  0.39114032922E+02  0.00000000000E+00 0. -1.
</event>
<event>
 7    1  0.2490895E-015  0.9000777E+02  0.7816164E-02  0.1186339E+00
        -11   -1    0    0    0    0  0.00000000000E+00  0.00000000000E+00  0.45593999997E+02  0.45594000000E+02  0.51100000000E-03 0.  1.
         11   -1    0    0    0    0 -0.00000000000E+00 -0.00000000000E+00 -0.45593999997E+02  0.45594000000E+02  0.51100000000E-03 0. -1.
    9900012    2    1    2    0    0 -0.72051007622E+00 -0.92952751720E+00  0.98982828222E-01  0.90007765373E+02  0.90000027076E+02 0.  0.
         12    1    1    2    0    0  0.72051007622E+00  0.92952751720E+00 -0.98982828222E-01  0.11802346273E+01  0.00000000000E+00 0. -1.
         11    1    3    3    0    0 -0.37042069389E+01  0.70334142897E+01 -0.62581274284E+01  0.10117026480E+02  0.51100000000E-03 0. -1.
        -11    1    3    3    0    0  0.17561783101E+02  0.14587338187E+02  0.34257525176E+02  0.41167762783E+02  0.51100000000E-03 0.  1.
         12    1    3    3    0    0 -0.14578086238E+02 -0.22550279994E+02 -0.27900414919E+02  0.38722976111E+02  0.00000000000E+00 0. -1.
</event>
<event>
 7    1  0.2490895E-015  0.9000763E+02  0.7816164E-02  0.1186339E+00
        -11   -1    0    0    0    0  0.00000000000E+00  0.00000000000E+00  0.45593999997E+02  0.45594000000E+02  0.51100000000E-03 0.  1.
         11   -1    0    0    0    0 -0.00000000000E+00 -0.00000000000E+00 -0.45593999997E+02  0.45594000000E+02  0.51100000000E-03 0. -1.
    9900012    2    1    2    0    0  0.60990285510E+00  0.27756456943E+00  0.97172581013E+00  0.90007629451E+02  0.89999889360E+02 0.  0.
         12    1    1    2    0    0 -0.60990285510E+00 -0.27756456943E+00 -0.97172581013E+00  0.11803705490E+01  0.00000000000E+00 0. -1.
         11    1    3    3    0    0 -0.30020148111E+01 -0.90276285809E+01 -0.22064752547E+01  0.97662021293E+01  0.51100000000E-03 0. -1.
        -11    1    3    3    0    0 -0.33181624510E+02 -0.13654052118E+02 -0.46178702203E+01  0.36177037883E+02  0.51100000000E-03 0.  1.
         12    1    3    3    0    0  0.36793542176E+02  0.22959245268E+02  0.77960712852E+01  0.44064389439E+02  0.00000000000E+00 0. -1.
</event>
<event>
 7    1  0.2490895E-015  0.9000687E+02  0.7816164E-02  0.1186341E+00
        -11   -1    0    0    0    0  0.00000000000E+00  0.00000000000E+00  0.45593999997E+02  0.45594000000E+02  0.51100000000E-03 0. -1.
         11   -1    0    0    0    0 -0.00000000000E+00 -0.00000000000E+00 -0.45593999997E+02  0.45594000000E+02  0.51100000000E-03 0.  1.
    9900012    2    1    2    0    0  0.16394771046E+00  0.11690407645E+01 -0.39195606240E-01  0.90006868569E+02  0.89999118430E+02 0.  0.
         12    1    1    2    0    0 -0.16394771046E+00 -0.11690407645E+01  0.39195606240E-01  0.11811314306E+01  0.00000000000E+00 0. -1.
         11    1    3    3    0    0 -0.33995975090E+02 -0.11970566168E+02  0.16460988621E+02  0.39623035261E+02  0.51100000000E-03 0. -1.
        -11    1    3    3    0    0  0.56569718721E+01 -0.71331990917E+01  0.38865816278E+01  0.98989583823E+01  0.51100000000E-03 0.  1.
        -12    1    3    3    0    0  0.28502950928E+02  0.20272806024E+02 -0.20386765855E+02  0.40484874926E+02  0.00000000000E+00 0.  1.
</event>
<event>
 7    1  0.2490895E-015  0.9000768E+02  0.7816164E-02  0.1186339E+00
        -11   -1    0    0    0    0  0.00000000000E+00  0.00000000000E+00  0.45593999997E+02  0.45594000000E+02  0.51100000000E-03 0.  1.
         11   -1    0    0    0    0 -0.00000000000E+00 -0.00000000000E+00 -0.45593999997E+02  0.45594000000E+02  0.51100000000E-03 0. -1.
    9900012    2    1    2    0    0  0.12708604330E+00 -0.25432270426E+00  0.11455671039E+01  0.90007680175E+02  0.89999940753E+02 0.  0.
         12    1    1    2    0    0 -0.12708604330E+00  0.25432270426E+00 -0.11455671039E+01  0.11803198253E+01  0.00000000000E+00 0. -1.
         11    1    3    3    0    0  0.44473258149E-01  0.31227919153E+02 -0.17087106066E+02  0.35597108119E+02  0.51100000000E-03 0. -1.
        -11    1    3    3    0    0 -0.34460552189E+01  0.83967199795E+01 -0.23768473343E+01  0.93824094185E+01  0.51100000000E-03 0.  1.
        -12    1    3    3    0    0  0.35286680040E+01 -0.39878961836E+02  0.20609520505E+02  0.45028162637E+02  0.00000000000E+00 0.  1.
</event>
<event>
 7    1  0.2490895E-015  0.9000843E+02  0.7816164E-02  0.1186338E+00
        -11   -1    0    0    0    0  0.00000000000E+00  0.00000000000E+00  0.45593999997E+02  0.45594000000E+02  0.51100000000E-03 0.  1.
         11   -1    0    0    0    0 -0.00000000000E+00 -0.00000000000E+00 -0.45593999997E+02  0.45594000000E+02  0.51100000000E-03 0. -1.
    9900012    2    1    2    0    0 -0.51752671544E+00  0.81602449571E+00  0.67650343657E+00  0.90008429409E+02  0.90000699875E+02 0.  0.
         12    1    1    2    0    0  0.51752671544E+00 -0.81602449571E+00 -0.67650343657E+00  0.11795705907E+01  0.00000000000E+00 0. -1.
         11    1    3    3    0    0 -0.29471329779E+02 -0.13047148574E+02 -0.15887010549E+02  0.35933055385E+02  0.51100000000E-03 0. -1.
        -11    1    3    3    0    0 -0.96954315836E+01  0.61753027576E+01  0.45610467241E+00  0.11504077080E+02  0.51100000000E-03 0.  1.
        -12    1    3    3    0    0  0.38649234647E+02  0.76878703122E+01  0.16107409313E+02  0.42571296944E+02  0.00000000000E+00 0.  1.
</event>
<event>
 7    1  0.2490895E-015  0.9000784E+02  0.7816164E-02  0.1186339E+00
        -11   -1    0    0    0    0  0.00000000000E+00  0.00000000000E+00  0.45593999997E+02  0.45594000000E+02  0.51100000000E-03 0.  1.
         11   -1    0    0    0    0 -0.00000000000E+00 -0.00000000000E+00 -0.45593999997E+02  0.45594000000E+02  0.51100000000E-03 0. -1.
    9900012    2    1    2    0    0 -0.99667842389E+00 -0.51197959301E+00  0.37051229920E+00  0.90007843083E+02  0.90000105812E+02 0.  0.
         12    1    1    2    0    0  0.99667842389E+00  0.51197959301E+00 -0.37051229920E+00  0.11801569168E+01  0.00000000000E+00 0. -1.
         11    1    3    3    0    0  0.24495479443E+00  0.10675168390E+02 -0.33357852234E+01  0.11186897976E+02  0.51100000000E-03 0. -1.
        -11    1    3    3    0    0 -0.21304550920E+02  0.25281323656E+02  0.14064878872E+02  0.35928401490E+02  0.51100000000E-03 0.  1.
         12    1    3    3    0    0  0.20062917702E+02 -0.36468471639E+02 -0.10358581350E+02  0.42892543617E+02  0.00000000000E+00 0. -1.
</event>
<event>
 7    1  0.2490895E-015  0.9000751E+02  0.7816164E-02  0.1186339E+00
        -11   -1    0    0    0    0  0.00000000000E+00  0.00000000000E+00  0.45593999997E+02  0.45594000000E+02  0.51100000000E-03 0. -1.
         11   -1    0    0    0    0 -0.00000000000E+00 -0.00000000000E+00 -0.45593999997E+02  0.45594000000E+02  0.51100000000E-03 0.  1.
    9900012    2    1    2    0    0  0.55879441959E+00 -0.12228167653E+00 -0.10326411175E+01  0.90007512097E+02  0.89999770456E+02 0.  0.
         12    1    1    2    0    0 -0.55879441959E+00  0.12228167653E+00  0.10326411175E+01  0.11804879031E+01  0.00000000000E+00 0. -1.
         11    1    3    3    0    0 -0.27968464068E+02 -0.16220554919E+02  0.15061660701E+02  0.35667842765E+02  0.51100000000E-03 0. -1.
        -11    1    3    3    0    0 -0.13752478408E+01  0.12076847247E+02  0.89772434411E+01  0.15110673252E+02  0.51100000000E-03 0.  1.
        -12    1    3    3    0    0  0.29902506328E+02  0.40214259952E+01 -0.25071545260E+02  0.39228996080E+02  0.00000000000E+00 0.  1.
</event>
<event>
 7    1  0.2490895E-015  0.9000770E+02  0.7816164E-02  0.1186339E+00
        -11   -1    0    0    0    0  0.00000000000E+00  0.00000000000E+00  0.45593999997E+02  0.45594000000E+02  0.51100000000E-03 0. -1.
         11   -1    0    0    0    0 -0.00000000000E+00 -0.00000000000E+00 -0.45593999997E+02  0.45594000000E+02  0.51100000000E-03 0.  1.
    9900012    2    1    2    0    0 -0.21432676559E-01 -0.95139871286E+00  0.69819636069E+00  0.90007704686E+02  0.89999965588E+02 0.  0.
         12    1    1    2    0    0  0.21432676559E-01  0.95139871286E+00 -0.69819636069E+00  0.11802953141E+01  0.00000000000E+00 0. -1.
         11    1    3    3    0    0  0.42048885297E+01  0.84519110510E+01 -0.39749241079E+00  0.94484860395E+01  0.51100000000E-03 0. -1.
        -11    1    3    3    0    0 -0.97710024908E+01 -0.97323882498E+01 -0.38334499670E+02  0.40739731662E+02  0.51100000000E-03 0.  1.
         12    1    3    3    0    0  0.55446812846E+01  0.32907848597E+00  0.39430188441E+02  0.39819486984E+02  0.00000000000E+00 0. -1.
</event>
<event>
 7    1  0.2490895E-015  0.9000803E+02  0.7816164E-02  0.1186338E+00
        -11   -1    0    0    0    0  0.00000000000E+00  0.00000000000E+00  0.45593999997E+02  0.45594000000E+02  0.51100000000E-03 0.  1.
         11   -1    0    0    0    0 -0.00000000000E+00 -0.00000000000E+00 -0.45593999997E+02  0.45594000000E+02  0.51100000000E-03 0. -1.
    9900012    2    1    2    0    0  0.65912921470E+00  0.68700785641E+00  0.69706675122E+00  0.90008028317E+02  0.90000293491E+02 0.  0.
         12    1    1    2    0    0 -0.65912921470E+00 -0.68700785641E+00 -0.69706675122E+00  0.11799716828E+01  0.00000000000E+00 0. -1.
         11    1    3    3    0    0  0.45916073524E+01  0.88647344845E+01 -0.64509783342E+01  0.11886189351E+02  0.51100000000E-03 0. -1.
        -11    1    3    3    0    0 -0.22193080085E+02  0.20450379530E+02  0.25512710124E+02  0.39517707482E+02  0.51100000000E-03 0.  1.
         12    1    3    3    0    0  0.18260601947E+02 -0.28628106158E+02 -0.18364665038E+02  0.38604131484E+02  0.00000000000E+00 0. -1.
</event>
<event>
 7    1  0.2490895E-015  0.9000757E+02  0.7816164E-02  0.1186339E+00
        -11   -1    0    0    0    0  0.00000000000E+00  0.00000000000E+00  0.45593999997E+02  0.45594000000E+02  0.51100000000E-03 0. -1.
         11   -1    0    0    0    0 -0.00000000000E+00 -0.00000000000E+00 -0.45593999997E+02  0.45594000000E+02  0.51100000000E-03 0.  1.
    9900012    2    1    2    0    0  0.28807014348E+00  0.40766354640E+00 -0.10696897613E+01  0.90007572044E+02  0.89999831195E+02 0.  0.
         12    1    1    2    0    0 -0.28807014348E+00 -0.40766354640E+00  0.10696897613E+01  0.11804279563E+01  0.00000000000E+00 0. -1.
         11    1    3    3    0    0 -0.37871235504E+02 -0.12758179286E+02 -0.80977510215E+01  0.40774688094E+02  0.51100000000E-03 0. -1.
        -11    1    3    3    0    0  0.20515503854E+01 -0.27902736648E+01  0.90651468222E+01  0.97041935924E+01  0.51100000000E-03 0.  1.
        -12    1    3    3    0    0  0.36107755263E+02  0.15956116497E+02 -0.20370855620E+01  0.39528690357E+02  0.00000000000E+00 0.  1.
</event>
<event>
 7    1  0.2490895E-015  0.9000775E+02  0.7816164E-02  0.1186339E+00
        -11   -1    0    0    0    0  0.00000000000E+00  0.00000000000E+00  0.45593999997E+02  0.45594000000E+02  0.51100000000E-03 0.  1.
         11   -1    0    0    0    0 -0.00000000000E+00 -0.00000000000E+00 -0.45593999997E+02  0.45594000000E+02  0.51100000000E-03 0. -1.
    9900012    2    1    2    0    0 -0.71363421080E+00  0.69950199655E+00  0.62801563162E+00  0.90007754066E+02  0.90000015620E+02 0.  0.
         12    1    1    2    0    0  0.71363421080E+00 -0.69950199655E+00 -0.62801563162E+00  0.11802459335E+01  0.00000000000E+00 0. -1.
         11    1    3    3    0    0  0.69371781923E+00  0.10467691089E+02  0.35108080039E+01  0.11062530192E+02  0.51100000000E-03 0. -1.
        -11    1    3    3    0    0 -0.36395523920E+02 -0.32631840274E+01  0.14531904982E+02  0.39325040293E+02  0.51100000000E-03 0.  1.
         12    1    3    3    0    0  0.34988171890E+02 -0.65050050648E+01 -0.17414697354E+02  0.39620183581E+02  0.00000000000E+00 0. -1.
</event>
<event>
 7    1  0.2490895E-015  0.9000779E+02  0.7816164E-02  0.1186339E+00
        -11   -1    0    0    0    0  0.00000000000E+00  0.00000000000E+00  0.45593999997E+02  0.45594000000E+02  0.51100000000E-03 0. -1.
         11   -1    0    0    0    0 -0.00000000000E+00 -0.00000000000E+00 -0.45593999997E+02  0.45594000000E+02  0.51100000000E-03 0.  1.
    9900012    2    1    2    0    0 -0.47379704658E+00 -0.18918206108E-01 -0.10807615301E+01  0.90007793652E+02  0.90000055728E+02 0.  0.
         12    1    1    2    0    0  0.47379704658E+00  0.18918206108E-01  0.10807615301E+01  0.11802063484E+01  0.00000000000E+00 0. -1.
         11    1    3    3    0    0 -0.37488924294E+01 -0.89912146738E+01  0.36152698335E+02  0.37442138467E+02  0.51100000000E-03 0. -1.
        -11    1    3    3    0    0  0.27093154020E+01 -0.40520705021E+01  0.58142786666E+01  0.75871932871E+01  0.51100000000E-03 0.  1.
        -12    1    3    3    0    0  0.56577998086E+00  0.13024366970E+02 -0.43047738532E+02  0.44978461898E+02  0.00000000000E+00 0.  1.
</event>
<event>
 7    1  0.2490895E-015  0.9000778E+02  0.7816164E-02  0.1186339E+00
        -11   -1    0    0    0    0  0.00000000000E+00  0.00000000000E+00  0.45593999997E+02  0.45594000000E+02  0.51100000000E-03 0.  1.
         11   -1    0    0    0    0 -0.00000000000E+00 -0.00000000000E+00 -0.45593999997E+02  0.45594000000E+02  0.51100000000E-03 0. -1.
    9900012    2    1    2    0    0  0.38229862176E+00 -0.10124980029E+01  0.47076366874E+00  0.90007778464E+02  0.90000040340E+02 0.  0.
         12    1    1    2    0    0 -0.38229862176E+00  0.10124980029E+01 -0.47076366874E+00  0.11802215360E+01  0.00000000000E+00 0. -1.
         11    1    3    3    0    0  0.10060082490E+02  0.34400909787E+02 -0.30864478485E+01  0.35974352176E+02  0.51100000000E-03 0. -1.
        -11    1    3    3    0    0 -0.69931503438E+01  0.75704557819E+01 -0.23274009168E+01  0.10565639960E+02  0.51100000000E-03 0.  1.
        -12    1    3    3    0    0 -0.26846335243E+01 -0.42983863572E+02  0.58846124340E+01  0.43467786328E+02  0.00000000000E+00 0.  1.
</event>
<event>
 7    1  0.2490895E-015  0.9000773E+02  0.7816164E-02  0.1186339E+00
        -11   -1    0    0    0    0  0.00000000000E+00  0.00000000000E+00  0.45593999997E+02  0.45594000000E+02  0.51100000000E-03 0.  1.
         11   -1    0    0    0    0 -0.00000000000E+00 -0.00000000000E+00 -0.45593999997E+02  0.45594000000E+02  0.51100000000E-03 0. -1.
    9900012    2    1    2    0    0  0.72100123580E+00 -0.88529018177E+00  0.29910126135E+00  0.90007727552E+02  0.89999988755E+02 0.  0.
         12    1    1    2    0    0 -0.72100123580E+00  0.88529018177E+00 -0.29910126135E+00  0.11802724484E+01  0.00000000000E+00 0. -1.
         11    1    3    3    0    0 -0.83779565639E+01 -0.32829773183E+01  0.34999112078E+01  0.96549197295E+01  0.51100000000E-03 0. -1.
        -11    1    3    3    0    0  0.16057932997E+02 -0.36911825673E+02 -0.37551528209E+01  0.40428223552E+02  0.51100000000E-03 0.  1.
         12    1    3    3    0    0 -0.69589751972E+01  0.39309512809E+02  0.55434287449E+00  0.39924584270E+02  0.00000000000E+00 0. -1.
</event>
<event>
 7    1  0.2490895E-015  0.9000758E+02  0.7816164E-02  0.1186339E+00
        -11   -1    0    0    0    0  0.00000000000E+00  0.00000000000E+00  0.45593999997E+02  0.45594000000E+02  0.51100000000E-03 0. -1.
         11   -1    0    0    0    0 -0.00000000000E+00 -0.00000000000E+00 -0.45593999997E+02  0.45594000000E+02  0.51100000000E-03 0.  1.
    9900012    2    1    2    0    0  0.48638004798E+00  0.28279717009E+00 -0.10377090448E+01  0.90007584881E+02  0.89999844202E+02 0.  0.
         12    1    1    2    0    0 -0.48638004798E+00 -0.28279717009E+00  0.10377090448E+01  0.11804151186E+01  0.00000000000E+00 0. -1.
         11    1    3    3    0    0  0.26085948420E+00  0.75164331126E+01  0.53290684063E+01  0.92175802002E+01  0.51100000000E-03 0. -1.
        -11    1    3    3    0    0  0.23249186692E+02  0.22145984819E+02 -0.23430115680E+02  0.39748454643E+02  0.51100000000E-03 0.  1.
         12    1    3    3    0    0 -0.23023666128E+02 -0.29379620761E+02  0.17063338229E+02  0.41041550039E+02  0.00000000000E+00 0. -1.
</event>
<event>
 7    1  0.2490895E-015  0.9000775E+02  0.7816164E-02  0.1186339E+00
        -11   -1    0    0    0    0  0.00000000000E+00  0.00000000000E+00  0.45593999997E+02  0.45594000000E+02  0.51100000000E-03 0. -1.
         11   -1    0    0    0    0 -0.00000000000E+00 -0.00000000000E+00 -0.45593999997E+02  0.45594000000E+02  0.51100000000E-03 0.  1.
    9900012    2    1    2    0    0  0.11319513018E+01  0.45784185343E-01 -0.33101343833E+00  0.90007754332E+02  0.90000015889E+02 0.  0.
         12    1    1    2    0    0 -0.11319513018E+01 -0.45784185343E-01  0.33101343833E+00  0.11802456683E+01  0.00000000000E+00 0. -1.
         11    1    3    3    0    0  0.16139465238E+02 -0.25191781458E+02  0.11704253446E+02  0.32126278032E+02  0.51100000000E-03 0. -1.
        -11    1    3    3    0    0 -0.11360251624E+02 -0.11772232598E+02  0.48142414199E+01  0.17053377906E+02  0.51100000000E-03 0.  1.
        -12    1    3    3    0    0 -0.36472623123E+01  0.37009798242E+02 -0.16849508305E+02  0.40828098393E+02  0.00000000000E+00 0.  1.
</event>
<event>
 7    1  0.2490895E-015  0.9000774E+02  0.7816164E-02  0.1186339E+00
        -11   -1    0    0    0    0  0.00000000000E+00  0.00000000000E+00  0.45593999997E+02  0.45594000000E+02  0.51100000000E-03 0.  1.
         11   -1    0    0    0    0 -0.00000000000E+00 -0.00000000000E+00 -0.45593999997E+02  0.45594000000E+02  0.51100000000E-03 0. -1.
    9900012    2    1    2    0    0  0.84625649772E+00  0.78428726699E+00  0.24853204043E+00  0.90007735304E+02  0.89999996610E+02 0.  0.
         12    1    1    2    0    0 -0.84625649772E+00 -0.78428726699E+00 -0.24853204043E+00  0.11802646958E+01  0.00000000000E+00 0. -1.
         11    1    3    3    0    0  0.61585684738E+01  0.83646769704E+01 -0.56379713471E+00  0.10402579196E+02  0.51100000000E-03 0. -1.
        -11    1    3    3    0    0  0.36181517493E+02 -0.11227427882E+02  0.19777295122E+01  0.37935059763E+02  0.51100000000E-03 0.  1.
         12    1    3    3    0    0 -0.41493829469E+02  0.36470381782E+01 -0.11654003370E+01  0.41670096345E+02  0.00000000000E+00 0. -1.
</event>
<event>
 7    1  0.2490895E-015  0.9000775E+02  0.7816164E-02  0.1186339E+00
        -11   -1    0    0    0    0  0.00000000000E+00  0.00000000000E+00  0.45593999997E+02  0.45594000000E+02  0.51100000000E-03 0.  1.
         11   -1    0    0    0    0 -0.00000000000E+00 -0.00000000000E+00 -0.45593999997E+02  0.45594000000E+02  0.51100000000E-03 0. -1.
    9900012    2    1    2    0    0 -0.82523463644E+00 -0.63330745323E+00 -0.55758880062E+00  0.90007747567E+02  0.90000009035E+02 0.  0.
         12    1    1    2    0    0  0.82523463644E+00  0.63330745323E+00  0.55758880062E+00  0.11802524332E+01  0.00000000000E+00 0. -1.
         11    1    3    3    0    0  0.13480047079E+02 -0.12781664327E+02 -0.36730388396E+02  0.41160709958E+02  0.51100000000E-03 0. -1.
        -11    1    3    3    0    0 -0.61773621735E+01 -0.73383726742E+01  0.40626435157E+01  0.10417129620E+02  0.51100000000E-03 0.  1.
        -12    1    3    3    0    0 -0.81279195423E+01  0.19486729548E+02  0.32110156080E+02  0.38429907989E+02  0.00000000000E+00 0.  1.
</event>
<event>
 7    1  0.2490895E-015  0.9000774E+02  0.7816164E-02  0.1186339E+00
        -11   -1    0    0    0    0  0.00000000000E+00  0.00000000000E+00  0.45593999997E+02  0.45594000000E+02  0.51100000000E-03 0.  1.
         11   -1    0    0    0    0 -0.00000000000E+00 -0.00000000000E+00 -0.45593999997E+02  0.45594000000E+02  0.51100000000E-03 0. -1.
    9900012    2    1    2    0    0  0.66337762421E+00  0.99900871720E-02  0.97613271039E+00  0.90007743781E+02  0.90000005199E+02 0.  0.
         12    1    1    2    0    0 -0.66337762421E+00 -0.99900871720E-02 -0.97613271039E+00  0.11802562190E+01  0.00000000000E+00 0. -1.
         11    1    3    3    0    0  0.61198527699E+00  0.10840560413E+02 -0.23170386205E+01  0.11102294550E+02  0.51100000000E-03 0. -1.
        -11    1    3    3    0    0 -0.23364002394E+02  0.80745667005E+01  0.29858311162E+02  0.38763307147E+02  0.51100000000E-03 0.  1.
         12    1    3    3    0    0  0.23415394741E+02 -0.18905137026E+02 -0.26565139831E+02  0.40142142084E+02  0.00000000000E+00 0. -1.
</event>
<event>
 7    1  0.2490895E-015  0.9000779E+02  0.7816164E-02  0.1186339E+00
        -11   -1    0    0    0    0  0.00000000000E+00  0.00000000000E+00  0.45593999997E+02  0.45594000000E+02  0.51100000000E-03 0. -1.
         11   -1    0    0    0    0 -0.00000000000E+00 -0.00000000000E+00 -0.45593999997E+02  0.45594000000E+02  0.51100000000E-03 0.  1.
    9900012    2    1    2    0    0  0.76040006394E+00  0.90119814831E+00  0.50396796983E-01  0.90007785529E+02  0.90000047498E+02 0.  0.
         12    1    1    2    0    0 -0.76040006394E+00 -0.90119814831E+00 -0.50396796983E-01  0.11802144707E+01  0.00000000000E+00 0. -1.
         11    1    3    3    0    0 -0.30162716745E+02  0.22781466238E+02  0.11796309571E+02  0.39597191885E+02  0.51100000000E-03 0. -1.
        -11    1    3    3    0    0  0.21070797542E+01 -0.57379402083E+00  0.88233621182E+01  0.90895953705E+01  0.51100000000E-03 0.  1.
        -12    1    3    3    0    0  0.28816037055E+02 -0.21306474069E+02 -0.20569274892E+02  0.41320998274E+02  0.00000000000E+00 0.  1.
</event>
<event>
 7    1  0.2490895E-015  0.9000775E+02  0.7816164E-02  0.1186339E+00
        -11   -1    0    0    0    0  0.00000000000E+00  0.00000000000E+00  0.45593999997E+02  0.45594000000E+02  0.51100000000E-03 0.  1.
         11   -1    0    0    0    0 -0.00000000000E+00 -0.00000000000E+00 -0.45593999997E+02  0.45594000000E+02  0.51100000000E-03 0. -1.
    9900012    2    1    2    0    0  0.10161131109E+01  0.37910194868E+00  0.46561062072E+00  0.90007746895E+02  0.90000008354E+02 0.  0.
         12    1    1    2    0    0 -0.10161131109E+01 -0.37910194868E+00 -0.46561062072E+00  0.11802531050E+01  0.00000000000E+00 0. -1.
         11    1    3    3    0    0  0.33636160850E+02  0.11518428131E+02 -0.16910723523E+02  0.39370522903E+02  0.51100000000E-03 0. -1.
        -11    1    3    3    0    0  0.53879436798E+01 -0.72188116670E+01  0.98987872903E+00  0.90620659422E+01  0.51100000000E-03 0.  1.
        -12    1    3    3    0    0 -0.38007991419E+02 -0.39205145156E+01  0.16386455414E+02  0.41575158049E+02  0.00000000000E+00 0.  1.
</event>
<event>
 7    1  0.2490895E-015  0.9000791E+02  0.7816164E-02  0.1186339E+00
        -11   -1    0    0    0    0  0.00000000000E+00  0.00000000000E+00  0.45593999997E+02  0.45594000000E+02  0.51100000000E-03 0. -1.
         11   -1    0    0    0    0 -0.00000000000E+00 -0.00000000000E+00 -0.45593999997E+02  0.45594000000E+02  0.51100000000E-03 0.  1.
    9900012    2    1    2    0    0  0.78079404509E+00  0.27733626880E+00  0.84027891432E+00  0.90007905342E+02  0.90000168893E+02 0.  0.
         12    1    1    2    0    0 -0.78079404509E+00 -0.27733626880E+00 -0.84027891432E+00  0.11800946575E+01  0.00000000000E+00 0. -1.
         11    1    3    3    0    0  0.42750768825E+01  0.50678675722E+00  0.75725093913E+01  0.87106838946E+01  0.51100000000E-03 0. -1.
        -11    1    3    3    0    0 -0.15264725406E+02 -0.33159196578E+02 -0.22559216077E+02  0.42912263861E+02  0.51100000000E-03 0.  1.
         12    1    3    3    0    0  0.11770442568E+02  0.32929746090E+02  0.15826985600E+02  0.38384957587E+02  0.00000000000E+00 0. -1.
</event>
<event>
 7    1  0.2490895E-015  0.9000783E+02  0.7816164E-02  0.1186339E+00
        -11   -1    0    0    0    0  0.00000000000E+00  0.00000000000E+00  0.45593999997E+02  0.45594000000E+02  0.51100000000E-03 0. -1.
         11   -1    0    0    0    0 -0.00000000000E+00 -0.00000000000E+00 -0.45593999997E+02  0.45594000000E+02  0.51100000000E-03 0.  1.
    9900012    2    1    2    0    0 -0.25306584695E+00 -0.81698403067E+00  0.81319567684E+00  0.90007833724E+02  0.90000096329E+02 0.  0.
         12    1    1    2    0    0  0.25306584695E+00  0.81698403067E+00 -0.81319567684E+00  0.11801662756E+01  0.00000000000E+00 0. -1.
         11    1    3    3    0    0 -0.70252698155E+01 -0.22483130053E+01  0.80216696722E+01  0.10897546143E+02  0.51100000000E-03 0. -1.
        -11    1    3    3    0    0 -0.32344733768E+01 -0.19867801137E+02 -0.36411757410E+02  0.41605377273E+02  0.51100000000E-03 0.  1.
         12    1    3    3    0    0  0.10006677345E+02  0.21299130112E+02  0.29203283415E+02  0.37504910308E+02  0.00000000000E+00 0. -1.
</event>
<event>
 7    1  0.2490895E-015  0.9000773E+02  0.7816164E-02  0.1186339E+00
        -11   -1    0    0    0    0  0.00000000000E+00  0.00000000000E+00  0.45593999997E+02  0.45594000000E+02  0.51100000000E-03 0. -1.
         11   -1    0    0    0    0 -0.00000000000E+00 -0.00000000000E+00 -0.45593999997E+02  0.45594000000E+02  0.51100000000E-03 0.  1.
    9900012    2    1    2    0    0  0.21604552554E+00  0.20458015253E+00 -0.11421477583E+01  0.90007732992E+02  0.89999994268E+02 0.  0.
         12    1    1    2    0    0 -0.21604552554E+00 -0.20458015253E+00  0.11421477583E+01  0.11802670078E+01  0.00000000000E+00 0. -1.
         11    1    3    3    0    0 -0.31066740090E+02 -0.21720316234E+02 -0.16295859363E+01  0.37941666117E+02  0.51100000000E-03 0. -1.
        -11    1    3    3    0    0 -0.53819563000E+01 -0.43655009613E+01  0.52421594522E+00  0.69496658104E+01  0.51100000000E-03 0.  1.
        -12    1    3    3    0    0  0.36664741916E+02  0.26290397347E+02 -0.36777767264E-01  0.45116401065E+02  0.00000000000E+00 0.  1.
</event>
<event>
 7    1  0.2490895E-015  0.9000776E+02  0.7816164E-02  0.1186339E+00
        -11   -1    0    0    0    0  0.00000000000E+00  0.00000000000E+00  0.45593999997E+02  0.45594000000E+02  0.51100000000E-03 0.  1.
         11   -1    0    0    0    0 -0.00000000000E+00 -0.00000000000E+00 -0.45593999997E+02  0.45594000000E+02  0.51100000000E-03 0. -1.
    9900012    2    1    2    0    0 -0.47892570217E+00 -0.60637205889E+00  0.89214343057E+00  0.90007755617E+02  0.90000017192E+02 0.  0.
         12    1    1    2    0    0  0.47892570217E+00  0.60637205889E+00 -0.89214343057E+00  0.11802443826E+01  0.00000000000E+00 0. -1.
         11    1    3    3    0    0  0.92536679321E+01 -0.13675333970E-01 -0.41927411364E+02  0.42936445838E+02  0.51100000000E-03 0. -1.
        -11    1    3    3    0    0 -0.51857876311E+01 -0.46904465019E+01  0.46114754712E+01  0.83760604120E+01  0.51100000000E-03 0.  1.
        -12    1    3    3    0    0 -0.45468060031E+01  0.40977497770E+01  0.38208079323E+02  0.38695249368E+02  0.00000000000E+00 0.  1.
</event>
<event>
 7    1  0.2490895E-015  0.9000776E+02  0.7816164E-02  0.1186339E+00
        -11   -1    0    0    0    0  0.00000000000E+00  0.00000000000E+00  0.45593999997E+02  0.45594000000E+02  0.51100000000E-03 0.  1.
         11   -1    0    0    0    0 -0.00000000000E+00 -0.00000000000E+00 -0.45593999997E+02  0.45594000000E+02  0.51100000000E-03 0. -1.
    9900012    2    1    2    0    0  0.12589425406E+00  0.93575404260E+00  0.70815336749E+00  0.90007760116E+02  0.90000021750E+02 0.  0.
         12    1    1    2    0    0 -0.12589425406E+00 -0.93575404260E+00 -0.70815336749E+00  0.11802398838E+01  0.00000000000E+00 0. -1.
         11    1    3    3    0    0  0.25932768526E+01  0.38796143503E+02 -0.12925570732E+02  0.40974824156E+02  0.51100000000E-03 0. -1.
        -11    1    3    3    0    0  0.72840031064E+01 -0.52533073044E+00 -0.17204901368E+01  0.75028501386E+01  0.51100000000E-03 0.  1.
        -12    1    3    3    0    0 -0.97513857049E+01 -0.37335058730E+02  0.15354214236E+02  0.41530085822E+02  0.00000000000E+00 0.  1.
</event>
<event>
 7    1  0.2490895E-015  0.9000771E+02  0.7816164E-02  0.1186339E+00
        -11   -1    0    0    0    0  0.00000000000E+00  0.00000000000E+00  0.45593999997E+02  0.45594000000E+02  0.51100000000E-03 0.  1.
         11   -1    0    0    0    0 -0.00000000000E+00 -0.00000000000E+00 -0.45593999997E+02  0.45594000000E+02  0.51100000000E-03 0. -1.
    9900012    2    1    2    0    0 -0.84963044107E+00  0.76696979738E+00 -0.28803175155E+00  0.90007713236E+02  0.89999974250E+02 0.  0.
         12    1    1    2    0    0  0.84963044107E+00 -0.76696979738E+00  0.28803175155E+00  0.11802867645E+01  0.00000000000E+00 0. -1.
         11    1    3    3    0    0  0.98429424814E+00  0.71964533953E+01 -0.71134234296E+01  0.10166541683E+02  0.51100000000E-03 0. -1.
        -11    1    3    3    0    0  0.29172056687E+02  0.22472722175E+02  0.68365198473E+01  0.37453573090E+02  0.51100000000E-03 0.  1.
         12    1    3    3    0    0 -0.31005981377E+02 -0.28902205772E+02 -0.11128169292E-01  0.42387598463E+02  0.00000000000E+00 0. -1.
</event>
<event>
 7    1  0.2490895E-015  0.9000771E+02  0.7816164E-02  0.1186339E+00
        -11   -1    0    0    0    0  0.00000000000E+00  0.00000000000E+00  0.45593999997E+02  0.45594000000E+02  0.51100000000E-03 0.  1.
         11   -1    0    0    0    0 -0.00000000000E+00 -0.00000000000E+00 -0.45593999997E+02  0.45594000000E+02  0.51100000000E-03 0. -1.
    9900012    2    1    2    0    0  0.64541345388E+00 -0.54919350973E+00 -0.82152606425E+00  0.90007713123E+02  0.89999974136E+02 0.  0.
         12    1    1    2    0    0 -0.64541345388E+00  0.54919350973E+00  0.82152606425E+00  0.11802868769E+01  0.00000000000E+00 0. -1.
         11    1    3    3    0    0  0.52588301797E+01 -0.37244372080E+00 -0.14149480183E+01  0.54585792418E+01  0.51100000000E-03 0. -1.
        -11    1    3    3    0    0 -0.35737114177E+02 -0.19717515509E+02  0.17112182557E+02  0.44257751182E+02  0.51100000000E-03 0.  1.
         12    1    3    3    0    0  0.31123697452E+02  0.19540765720E+02 -0.16518760603E+02  0.40291382699E+02  0.00000000000E+00 0. -1.
</event>
<event>
 7    1  0.2490895E-015  0.9000771E+02  0.7816164E-02  0.1186339E+00
        -11   -1    0    0    0    0  0.00000000000E+00  0.00000000000E+00  0.45593999997E+02  0.45594000000E+02  0.51100000000E-03 0.  1.
         11   -1    0    0    0    0 -0.00000000000E+00 -0.00000000000E+00 -0.45593999997E+02  0.45594000000E+02  0.51100000000E-03 0. -1.
    9900012    2    1    2    0    0  0.33336544704E-01  0.96557748154E+00  0.67797059138E+00  0.90007705409E+02  0.89999966321E+02 0.  0.
         12    1    1    2    0    0 -0.33336544704E-01 -0.96557748154E+00 -0.67797059138E+00  0.11802945907E+01  0.00000000000E+00 0. -1.
         11    1    3    3    0    0  0.27579362537E+00 -0.87796075243E+01  0.92336519319E+01  0.12744328098E+02  0.51100000000E-03 0. -1.
        -11    1    3    3    0    0  0.22308757368E+02  0.18539895094E+02  0.23334162728E+02  0.37227563926E+02  0.51100000000E-03 0.  1.
         12    1    3    3    0    0 -0.22551214449E+02 -0.87947100877E+01 -0.31889844069E+02  0.40035813385E+02  0.00000000000E+00 0. -1.
</event>
<event>
 7    1  0.2490895E-015  0.9000773E+02  0.7816164E-02  0.1186339E+00
        -11   -1    0    0    0    0  0.00000000000E+00  0.00000000000E+00  0.45593999997E+02  0.45594000000E+02  0.51100000000E-03 0.  1.
         11   -1    0    0    0    0 -0.00000000000E+00 -0.00000000000E+00 -0.45593999997E+02  0.45594000000E+02  0.51100000000E-03 0. -1.
    9900012    2    1    2    0    0 -0.87306319185E+00 -0.21469288283E+00  0.76466420710E+00  0.90007727269E+02  0.89999988469E+02 0.  0.
         12    1    1    2    0    0  0.87306319185E+00  0.21469288283E+00 -0.76466420710E+00  0.11802727314E+01  0.00000000000E+00 0. -1.
         11    1    3    3    0    0  0.30844925668E+02  0.18708578401E+02 -0.77705071620E+01  0.36902589707E+02  0.51100000000E-03 0. -1.
        -11    1    3    3    0    0  0.56999267242E+01 -0.59745154362E+01 -0.67469283640E+01  0.10663256631E+02  0.51100000000E-03 0.  1.
        -12    1    3    3    0    0 -0.37417915584E+02 -0.12948755848E+02  0.15282099733E+02  0.42441880931E+02  0.00000000000E+00 0.  1.
</event>
<event>
 7    1  0.2490895E-015  0.9000777E+02  0.7816164E-02  0.1186339E+00
        -11   -1    0    0    0    0  0.00000000000E+00  0.00000000000E+00  0.45593999997E+02  0.45594000000E+02  0.51100000000E-03 0. -1.
         11   -1    0    0    0    0 -0.00000000000E+00 -0.00000000000E+00 -0.45593999997E+02  0.45594000000E+02  0.51100000000E-03 0.  1.
    9900012    2    1    2    0    0  0.64855009092E+00  0.82785599576E+00  0.53570806018E+00  0.90007768711E+02  0.90000030458E+02 0.  0.
         12    1    1    2    0    0 -0.64855009092E+00 -0.82785599576E+00 -0.53570806018E+00  0.11802312891E+01  0.00000000000E+00 0. -1.
         11    1    3    3    0    0  0.64142484407E+01 -0.44035775490E+01  0.13244370860E+01  0.78922881438E+01  0.51100000000E-03 0. -1.
        -11    1    3    3    0    0  0.36796029158E+02  0.12535782001E+02  0.11260529926E+01  0.38889093429E+02  0.51100000000E-03 0.  1.
         12    1    3    3    0    0 -0.42561727507E+02 -0.73043484565E+01 -0.19147820184E+01  0.43226387138E+02  0.00000000000E+00 0. -1.
</event>
<event>
 7    1  0.2490895E-015  0.9000778E+02  0.7816164E-02  0.1186339E+00
        -11   -1    0    0    0    0  0.00000000000E+00  0.00000000000E+00  0.45593999997E+02  0.45594000000E+02  0.51100000000E-03 0.  1.
         11   -1    0    0    0    0 -0.00000000000E+00 -0.00000000000E+00 -0.45593999997E+02  0.45594000000E+02  0.51100000000E-03 0. -1.
    9900012    2    1    2    0    0  0.88268624384E+00  0.35171528280E+00  0.70006569333E+00  0.90007775182E+02  0.90000037015E+02 0.  0.
         12    1    1    2    0    0 -0.88268624384E+00 -0.35171528280E+00 -0.70006569333E+00  0.11802248176E+01  0.00000000000E+00 0. -1.
         11    1    3    3    0    0  0.43809317694E+01  0.34686153291E+02  0.18278442892E+02  0.39451530618E+02  0.51100000000E-03 0. -1.
        -11    1    3    3    0    0 -0.82300298015E+00 -0.21662663772E+01  0.86559112686E+01  0.89607390361E+01  0.51100000000E-03 0.  1.
        -12    1    3    3    0    0 -0.26752425454E+01 -0.32168171631E+02 -0.26234288467E+02  0.41595505528E+02  0.00000000000E+00 0.  1.
</event>
<event>
 7    1  0.2490895E-015  0.9000776E+02  0.7816164E-02  0.1186339E+00
        -11   -1    0    0    0    0  0.00000000000E+00  0.00000000000E+00  0.45593999997E+02  0.45594000000E+02  0.51100000000E-03 0. -1.
         11   -1    0    0    0    0 -0.00000000000E+00 -0.00000000000E+00 -0.45593999997E+02  0.45594000000E+02  0.51100000000E-03 0.  1.
    9900012    2    1    2    0    0  0.11092851457E+01  0.35492593767E+00 -0.19102217605E+00  0.90007756200E+02  0.90000017782E+02 0.  0.
         12    1    1    2    0    0 -0.11092851457E+01 -0.35492593767E+00  0.19102217605E+00  0.11802438000E+01  0.00000000000E+00 0. -1.
         11    1    3    3    0    0 -0.19670112512E+02 -0.30701405563E+02  0.16352532970E+02  0.39961168208E+02  0.51100000000E-03 0. -1.
        -11    1    3    3    0    0  0.37081578572E+01 -0.33987046578E+00  0.65234961360E+01  0.75114545013E+01  0.51100000000E-03 0.  1.
        -12    1    3    3    0    0  0.17071239801E+02  0.31396201966E+02 -0.23067051282E+02  0.42535133491E+02  0.00000000000E+00 0.  1.
</event>
<event>
 7    1  0.2490895E-015  0.9000771E+02  0.7816164E-02  0.1186339E+00
        -11   -1    0    0    0    0  0.00000000000E+00  0.00000000000E+00  0.45593999997E+02  0.45594000000E+02  0.51100000000E-03 0.  1.
         11   -1    0    0    0    0 -0.00000000000E+00 -0.00000000000E+00 -0.45593999997E+02  0.45594000000E+02  0.51100000000E-03 0. -1.
    9900012    2    1    2    0    0  0.10423997471E+01  0.26607997470E+00  0.48547335227E+00  0.90007711831E+02  0.89999972827E+02 0.  0.
         12    1    1    2    0    0 -0.10423997471E+01 -0.26607997470E+00 -0.48547335227E+00  0.11802881688E+01  0.00000000000E+00 0. -1.
         11    1    3    3    0    0  0.24356044308E+02 -0.12094795243E+02 -0.31172973149E+02  0.41367320695E+02  0.51100000000E-03 0. -1.
        -11    1    3    3    0    0 -0.60823281740E+01  0.59673521261E+01 -0.33059870142E+01  0.91396694586E+01  0.51100000000E-03 0.  1.
        -12    1    3    3    0    0 -0.17231316386E+02  0.63935230913E+01  0.34964433516E+02  0.39500721677E+02  0.00000000000E+00 0.  1.
</event>
<event>
 7    1  0.2490895E-015  0.9000773E+02  0.7816164E-02  0.1186339E+00
        -11   -1    0    0    0    0  0.00000000000E+00  0.00000000000E+00  0.45593999997E+02  0.45594000000E+02  0.51100000000E-03 0.  1.
         11   -1    0    0    0    0 -0.00000000000E+00 -0.00000000000E+00 -0.45593999997E+02  0.45594000000E+02  0.51100000000E-03 0. -1.
    9900012    2    1    2    0    0  0.54936113384E+00 -0.10437591273E+01  0.42441368084E-01  0.90007732216E+02  0.89999993482E+02 0.  0.
         12    1    1    2    0    0 -0.54936113384E+00  0.10437591273E+01 -0.42441368084E-01  0.11802677835E+01  0.00000000000E+00 0. -1.
         11    1    3    3    0    0  0.27378706221E+02 -0.17243360896E+02 -0.18830747290E+02  0.37436934878E+02  0.51100000000E-03 0. -1.
        -11    1    3    3    0    0  0.88083642137E+01  0.13035268187E+01 -0.12930320875E+01  0.89976882880E+01  0.51100000000E-03 0.  1.
        -12    1    3    3    0    0 -0.35637709301E+02  0.14896074950E+02  0.20166220746E+02  0.43573109050E+02  0.00000000000E+00 0.  1.
</event>
<event>
 7    1  0.2490895E-015  0.9000776E+02  0.7816164E-02  0.1186339E+00
        -11   -1    0    0    0    0  0.00000000000E+00  0.00000000000E+00  0.45593999997E+02  0.45594000000E+02  0.51100000000E-03 0. -1.
         11   -1    0    0    0    0 -0.00000000000E+00 -0.00000000000E+00 -0.45593999997E+02  0.45594000000E+02  0.51100000000E-03 0.  1.
    9900012    2    1    2    0    0 -0.27769536874E+00  0.10244678150E+01 -0.51606813487E+00  0.90007756236E+02  0.90000017819E+02 0.  0.
         12    1    1    2    0    0  0.27769536874E+00 -0.10244678150E+01  0.51606813487E+00  0.11802437637E+01  0.00000000000E+00 0. -1.
         11    1    3    3    0    0 -0.95879696928E+01  0.35030667639E+02  0.21590226451E+01  0.36383213397E+02  0.51100000000E-03 0. -1.
        -11    1    3    3    0    0 -0.63515431066E+01  0.68763084349E+01  0.20741032628E+01  0.95878893471E+01  0.51100000000E-03 0.  1.
        -12    1    3    3    0    0  0.15661817431E+02 -0.40882508259E+02 -0.47491940428E+01  0.44036653492E+02  0.00000000000E+00 0.  1.
</event>
<event>
 7    1  0.2490895E-015  0.9000817E+02  0.7816164E-02  0.1186338E+00
        -11   -1    0    0    0    0  0.00000000000E+00  0.00000000000E+00  0.45593999997E+02  0.45594000000E+02  0.51100000000E-03 0. -1.
         11   -1    0    0    0    0 -0.00000000000E+00 -0.00000000000E+00 -0.45593999997E+02  0.45594000000E+02  0.51100000000E-03 0.  1.
    9900012    2    1    2    0    0 -0.18130758111E+00 -0.73457813892E+00 -0.90527079877E+00  0.90008172597E+02  0.90000439674E+02 0.  0.
         12    1    1    2    0    0  0.18130758111E+00  0.73457813892E+00  0.90527079877E+00  0.11798274027E+01  0.00000000000E+00 0. -1.
         11    1    3    3    0    0  0.63405480917E+01 -0.57997394703E+01  0.19697958819E+01  0.88158734170E+01  0.51100000000E-03 0. -1.
        -11    1    3    3    0    0  0.43885985204E+01  0.24210928629E+02 -0.34666027838E+02  0.42510732156E+02  0.51100000000E-03 0.  1.
         12    1    3    3    0    0 -0.10910454193E+02 -0.19145767298E+02  0.31790961158E+02  0.38681567024E+02  0.00000000000E+00 0. -1.
</event>
<event>
 7    1  0.2490895E-015  0.9000775E+02  0.7816164E-02  0.1186339E+00
        -11   -1    0    0    0    0  0.00000000000E+00  0.00000000000E+00  0.45593999997E+02  0.45594000000E+02  0.51100000000E-03 0.  1.
         11   -1    0    0    0    0 -0.00000000000E+00 -0.00000000000E+00 -0.45593999997E+02  0.45594000000E+02  0.51100000000E-03 0. -1.
    9900012    2    1    2    0    0  0.11386045672E-01 -0.80434293634E+00 -0.86365119481E+00  0.90007749778E+02  0.90000011275E+02 0.  0.
         12    1    1    2    0    0 -0.11386045672E-01  0.80434293634E+00  0.86365119481E+00  0.11802502224E+01  0.00000000000E+00 0. -1.
         11    1    3    3    0    0  0.71312361871E+01  0.36811390022E+02  0.13003044637E+02  0.39686422552E+02  0.51100000000E-03 0. -1.
        -11    1    3    3    0    0  0.81224050063E+01 -0.37231596888E+00 -0.22589873627E+01  0.84389043385E+01  0.51100000000E-03 0.  1.
        -12    1    3    3    0    0 -0.15242255148E+02 -0.37243416989E+02 -0.11607708469E+02  0.41882422887E+02  0.00000000000E+00 0.  1.
</event>
<event>
 7    1  0.2490895E-015  0.9000785E+02  0.7816164E-02  0.1186339E+00
        -11   -1    0    0    0    0  0.00000000000E+00  0.00000000000E+00  0.45593999997E+02  0.45594000000E+02  0.51100000000E-03 0.  1.
         11   -1    0    0    0    0 -0.00000000000E+00 -0.00000000000E+00 -0.45593999997E+02  0.45594000000E+02  0.51100000000E-03 0. -1.
    9900012    2    1    2    0    0  0.98236134271E+00  0.57880911071E+00  0.30445618417E+00  0.90007852822E+02  0.90000115679E+02 0.  0.
         12    1    1    2    0    0 -0.98236134271E+00 -0.57880911071E+00 -0.30445618417E+00  0.11801471783E+01  0.00000000000E+00 0. -1.
         11    1    3    3    0    0  0.33570068029E+02  0.15480615564E+02 -0.15273053977E+02  0.39998313762E+02  0.51100000000E-03 0. -1.
        -11    1    3    3    0    0 -0.64392906386E+01  0.17390406466E+01  0.17727310247E+02  0.18940598067E+02  0.51100000000E-03 0.  1.
        -12    1    3    3    0    0 -0.26148416048E+02 -0.16640847099E+02 -0.21498000860E+01  0.31068940993E+02  0.00000000000E+00 0.  1.
</event>
<event>
 7    1  0.2490895E-015  0.9000768E+02  0.7816164E-02  0.1186339E+00
        -11   -1    0    0    0    0  0.00000000000E+00  0.00000000000E+00  0.45593999997E+02  0.45594000000E+02  0.51100000000E-03 0. -1.
         11   -1    0    0    0    0 -0.00000000000E+00 -0.00000000000E+00 -0.45593999997E+02  0.45594000000E+02  0.51100000000E-03 0.  1.
    9900012    2    1    2    0    0  0.34363254867E-01 -0.40396609932E+00 -0.11085015077E+01  0.90007684349E+02  0.89999944983E+02 0.  0.
         12    1    1    2    0    0 -0.34363254867E-01  0.40396609932E+00  0.11085015077E+01  0.11803156506E+01  0.00000000000E+00 0. -1.
         11    1    3    3    0    0 -0.39836812168E+01 -0.88366023077E+01 -0.71754463339E+01  0.12059945553E+02  0.51100000000E-03 0. -1.
        -11    1    3    3    0    0  0.34301288190E+02 -0.16339886125E+02 -0.18117127063E+01  0.38037515077E+02  0.51100000000E-03 0.  1.
         12    1    3    3    0    0 -0.30283243718E+02  0.24772522333E+02  0.78786575325E+01  0.39910223720E+02  0.00000000000E+00 0. -1.
</event>
<event>
 7    1  0.2490895E-015  0.9000771E+02  0.7816164E-02  0.1186339E+00
        -11   -1    0    0    0    0  0.00000000000E+00  0.00000000000E+00  0.45593999997E+02  0.45594000000E+02  0.51100000000E-03 0.  1.
         11   -1    0    0    0    0 -0.00000000000E+00 -0.00000000000E+00 -0.45593999997E+02  0.45594000000E+02  0.51100000000E-03 0. -1.
    9900012    2    1    2    0    0 -0.11444540471E+01  0.17818998177E+00  0.22704538544E+00  0.90007713449E+02  0.89999974467E+02 0.  0.
         12    1    1    2    0    0  0.11444540471E+01 -0.17818998177E+00 -0.22704538544E+00  0.11802865510E+01  0.00000000000E+00 0. -1.
         11    1    3    3    0    0 -0.30193015651E+02  0.26224559502E+02  0.80280102347E+01  0.40789639172E+02  0.51100000000E-03 0. -1.
        -11    1    3    3    0    0  0.12464654071E+02 -0.95576638072E+01  0.11029816546E+02  0.19193055824E+02  0.51100000000E-03 0.  1.
        -12    1    3    3    0    0  0.16583907533E+02 -0.16488705713E+02 -0.18830781395E+02  0.30025018453E+02  0.00000000000E+00 0.  1.
</event>
<event>
 7    1  0.2490895E-015  0.9000774E+02  0.7816164E-02  0.1186339E+00
        -11   -1    0    0    0    0  0.00000000000E+00  0.00000000000E+00  0.45593999997E+02  0.45594000000E+02  0.51100000000E-03 0.  1.
         11   -1    0    0    0    0 -0.00000000000E+00 -0.00000000000E+00 -0.45593999997E+02  0.45594000000E+02  0.51100000000E-03 0. -1.
    9900012    2    1    2    0    0  0.38078273749E+00  0.50567106684E+00  0.99614614582E+00  0.90007743306E+02  0.90000004717E+02 0.  0.
         12    1    1    2    0    0 -0.38078273749E+00 -0.50567106684E+00 -0.99614614582E+00  0.11802566945E+01  0.00000000000E+00 0. -1.
         11    1    3    3    0    0 -0.66850777481E+01  0.70973002350E+01 -0.27093890379E+01  0.10119423123E+02  0.51100000000E-03 0. -1.
        -11    1    3    3    0    0  0.27076013529E+02  0.32766508961E+01  0.33161529675E+02  0.42936394823E+02  0.51100000000E-03 0.  1.
         12    1    3    3    0    0 -0.20010153044E+02 -0.98682800643E+01 -0.29455994492E+02  0.36951925359E+02  0.00000000000E+00 0. -1.
</event>
<event>
 7    1  0.2490895E-015  0.9000760E+02  0.7816164E-02  0.1186339E+00
        -11   -1    0    0    0    0  0.00000000000E+00  0.00000000000E+00  0.45593999997E+02  0.45594000000E+02  0.51100000000E-03 0. -1.
         11   -1    0    0    0    0 -0.00000000000E+00 -0.00000000000E+00 -0.45593999997E+02  0.45594000000E+02  0.51100000000E-03 0.  1.
    9900012    2    1    2    0    0  0.76200004969E+00  0.41582353781E+00  0.79987482430E+00  0.90007596245E+02  0.89999855715E+02 0.  0.
         12    1    1    2    0    0 -0.76200004969E+00 -0.41582353781E+00 -0.79987482430E+00  0.11804037550E+01  0.00000000000E+00 0. -1.
         11    1    3    3    0    0  0.29864934377E+01 -0.82779126375E+01 -0.19287650518E+01  0.90090574188E+01  0.51100000000E-03 0. -1.
        -11    1    3    3    0    0  0.12022418618E+02 -0.33915963193E+02  0.24852273724E+01  0.36069481062E+02  0.51100000000E-03 0.  1.
         12    1    3    3    0    0 -0.14246912006E+02  0.42609699368E+02  0.24341250369E+00  0.44929057764E+02  0.00000000000E+00 0. -1.
</event>
<event>
 7    1  0.2490895E-015  0.9000777E+02  0.7816164E-02  0.1186339E+00
        -11   -1    0    0    0    0  0.00000000000E+00  0.00000000000E+00  0.45593999997E+02  0.45594000000E+02  0.51100000000E-03 0.  1.
         11   -1    0    0    0    0 -0.00000000000E+00 -0.00000000000E+00 -0.45593999997E+02  0.45594000000E+02  0.51100000000E-03 0. -1.
    9900012    2    1    2    0    0  0.10393353164E+01  0.20227283466E+00 -0.52135438931E+00  0.90007770108E+02  0.90000031873E+02 0.  0.
         12    1    1    2    0    0 -0.10393353164E+01 -0.20227283466E+00  0.52135438931E+00  0.11802298924E+01  0.00000000000E+00 0. -1.
         11    1    3    3    0    0 -0.14289226178E+02  0.35611197326E+02  0.17661261399E+02  0.42240496141E+02  0.51100000000E-03 0. -1.
        -11    1    3    3    0    0 -0.47344046891E+01 -0.37415155018E+01 -0.55765748661E+01  0.82165511931E+01  0.51100000000E-03 0.  1.
        -12    1    3    3    0    0  0.20062966184E+02 -0.31667408990E+02 -0.12606040922E+02  0.39550722774E+02  0.00000000000E+00 0.  1.
</event>
<event>
 7    1  0.2490895E-015  0.9000773E+02  0.7816164E-02  0.1186339E+00
        -11   -1    0    0    0    0  0.00000000000E+00  0.00000000000E+00  0.45593999997E+02  0.45594000000E+02  0.51100000000E-03 0.  1.
         11   -1    0    0    0    0 -0.00000000000E+00 -0.00000000000E+00 -0.45593999997E+02  0.45594000000E+02  0.51100000000E-03 0. -1.
    9900012    2    1    2    0    0 -0.43777645553E+00  0.99863961626E+00 -0.45177152644E+00  0.90007734428E+02  0.89999995723E+02 0.  0.
         12    1    1    2    0    0  0.43777645553E+00 -0.99863961626E+00  0.45177152644E+00  0.11802655719E+01  0.00000000000E+00 0. -1.
         11    1    3    3    0    0 -0.74008903961E+01  0.11223986806E+02 -0.10781788363E+02  0.17233630466E+02  0.51100000000E-03 0. -1.
        -11    1    3    3    0    0 -0.28434883125E+02 -0.72420947679E+01  0.20534273410E+02  0.35814060084E+02  0.51100000000E-03 0.  1.
         12    1    3    3    0    0  0.35397997066E+02 -0.29832524217E+01 -0.10204256574E+02  0.36960043878E+02  0.00000000000E+00 0. -1.
</event>
<event>
 7    1  0.2490895E-015  0.9000776E+02  0.7816164E-02  0.1186339E+00
        -11   -1    0    0    0    0  0.00000000000E+00  0.00000000000E+00  0.45593999997E+02  0.45594000000E+02  0.51100000000E-03 0.  1.
         11   -1    0    0    0    0 -0.00000000000E+00 -0.00000000000E+00 -0.45593999997E+02  0.45594000000E+02  0.51100000000E-03 0. -1.
    9900012    2    1    2    0    0  0.76368957996E+00 -0.89751179620E+00 -0.64914334734E-01  0.90007761435E+02  0.90000023086E+02 0.  0.
         12    1    1    2    0    0 -0.76368957996E+00  0.89751179620E+00  0.64914334734E-01  0.11802385647E+01  0.00000000000E+00 0. -1.
         11    1    3    3    0    0  0.27156714950E+02 -0.22821046844E+02  0.14636120141E+02  0.38373211476E+02  0.51100000000E-03 0. -1.
        -11    1    3    3    0    0  0.80004693422E+01  0.15886404459E+01 -0.74091456561E+01  0.11019379646E+02  0.51100000000E-03 0.  1.
        -12    1    3    3    0    0 -0.34393494713E+02  0.20334894602E+02 -0.72918888197E+01  0.40615170313E+02  0.00000000000E+00 0.  1.
</event>
<event>
 7    1  0.2490895E-015  0.9000771E+02  0.7816164E-02  0.1186339E+00
        -11   -1    0    0    0    0  0.00000000000E+00  0.00000000000E+00  0.45593999997E+02  0.45594000000E+02  0.51100000000E-03 0. -1.
         11   -1    0    0    0    0 -0.00000000000E+00 -0.00000000000E+00 -0.45593999997E+02  0.45594000000E+02  0.51100000000E-03 0.  1.
    9900012    2    1    2    0    0 -0.80030979579E+00 -0.84300167715E+00 -0.20479085885E+00  0.90007708980E+02  0.89999969938E+02 0.  0.
         12    1    1    2    0    0  0.80030979579E+00  0.84300167715E+00  0.20479085885E+00  0.11802910204E+01  0.00000000000E+00 0. -1.
         11    1    3    3    0    0  0.26828108338E+02  0.20208448003E+02  0.17922987881E+02  0.38070490705E+02  0.51100000000E-03 0. -1.
        -11    1    3    3    0    0  0.64198409436E+01 -0.11347455863E+02 -0.71539196488E+01  0.14871371117E+02  0.51100000000E-03 0.  1.
        -12    1    3    3    0    0 -0.34048259077E+02 -0.97039938174E+01 -0.10973859091E+02  0.37065847158E+02  0.00000000000E+00 0.  1.
</event>
<event>
 7    1  0.2490895E-015  0.9000776E+02  0.7816164E-02  0.1186339E+00
        -11   -1    0    0    0    0  0.00000000000E+00  0.00000000000E+00  0.45593999997E+02  0.45594000000E+02  0.51100000000E-03 0.  1.
         11   -1    0    0    0    0 -0.00000000000E+00 -0.00000000000E+00 -0.45593999997E+02  0.45594000000E+02  0.51100000000E-03 0. -1.
    9900012    2    1    2    0    0 -0.66289443996E+00 -0.42852660017E+00  0.87744141252E+00  0.90007759551E+02  0.90000021177E+02 0.  0.
         12    1    1    2    0    0  0.66289443996E+00  0.42852660017E+00 -0.87744141252E+00  0.11802404492E+01  0.00000000000E+00 0. -1.
         11    1    3    3    0    0  0.22198038332E+02  0.27269608337E+02  0.11016746990E+02  0.36847702223E+02  0.51100000000E-03 0. -1.
        -11    1    3    3    0    0  0.52889224349E+01  0.45195995046E+00  0.78483110697E+01  0.94748591138E+01  0.51100000000E-03 0.  1.
        -12    1    3    3    0    0 -0.28149855207E+02 -0.28150094888E+02 -0.17987616647E+02  0.43685198214E+02  0.00000000000E+00 0.  1.
</event>
<event>
 7    1  0.2490895E-015  0.9000783E+02  0.7816164E-02  0.1186339E+00
        -11   -1    0    0    0    0  0.00000000000E+00  0.00000000000E+00  0.45593999997E+02  0.45594000000E+02  0.51100000000E-03 0.  1.
         11   -1    0    0    0    0 -0.00000000000E+00 -0.00000000000E+00 -0.45593999997E+02  0.45594000000E+02  0.51100000000E-03 0. -1.
    9900012    2    1    2    0    0  0.45211437734E-01  0.11748121143E+01  0.10282098303E+00  0.90007830634E+02  0.90000093198E+02 0.  0.
         12    1    1    2    0    0 -0.45211437734E-01 -0.11748121143E+01 -0.10282098303E+00  0.11801693661E+01  0.00000000000E+00 0. -1.
         11    1    3    3    0    0  0.48934518631E+01 -0.17027696093E+01  0.96162956221E+01  0.10923297910E+02  0.51100000000E-03 0. -1.
        -11    1    3    3    0    0  0.20258627036E+02  0.10307360540E+02  0.26273989491E+02  0.34741562640E+02  0.51100000000E-03 0.  1.
         12    1    3    3    0    0 -0.25106867461E+02 -0.74297788165E+01 -0.35787464130E+02  0.44342970083E+02  0.00000000000E+00 0. -1.
</event>
<event>
 7    1  0.2490895E-015  0.9000788E+02  0.7816164E-02  0.1186339E+00
        -11   -1    0    0    0    0  0.00000000000E+00  0.00000000000E+00  0.45593999997E+02  0.45594000000E+02  0.51100000000E-03 0. -1.
         11   -1    0    0    0    0 -0.00000000000E+00 -0.00000000000E+00 -0.45593999997E+02  0.45594000000E+02  0.51100000000E-03 0.  1.
    9900012    2    1    2    0    0  0.62281438698E+00 -0.32638597302E+00 -0.94775916623E+00  0.90007884327E+02  0.90000147600E+02 0.  0.
         12    1    1    2    0    0 -0.62281438698E+00  0.32638597302E+00  0.94775916623E+00  0.11801156728E+01  0.00000000000E+00 0. -1.
         11    1    3    3    0    0  0.12152851277E+02  0.32756670295E+01 -0.47085506120E+01  0.13438461139E+02  0.51100000000E-03 0. -1.
        -11    1    3    3    0    0 -0.33493597050E+02 -0.89332930138E+01 -0.22954912424E+02  0.41575867664E+02  0.51100000000E-03 0.  1.
         12    1    3    3    0    0  0.21963560159E+02  0.53312400113E+01  0.26715703870E+02  0.34993555524E+02  0.00000000000E+00 0. -1.
</event>
<event>
 7    1  0.2490895E-015  0.9000797E+02  0.7816164E-02  0.1186339E+00
        -11   -1    0    0    0    0  0.00000000000E+00  0.00000000000E+00  0.45593999997E+02  0.45594000000E+02  0.51100000000E-03 0. -1.
         11   -1    0    0    0    0 -0.00000000000E+00 -0.00000000000E+00 -0.45593999997E+02  0.45594000000E+02  0.51100000000E-03 0.  1.
    9900012    2    1    2    0    0 -0.15613526937E+00 -0.25122495372E+00 -0.11423576596E+01  0.90007968974E+02  0.90000233364E+02 0.  0.
         12    1    1    2    0    0  0.15613526937E+00  0.25122495372E+00  0.11423576596E+01  0.11800310259E+01  0.00000000000E+00 0. -1.
         11    1    3    3    0    0  0.27481498970E+02  0.10994567626E+02  0.20954683593E+02  0.36265852639E+02  0.51100000000E-03 0. -1.
        -11    1    3    3    0    0  0.68543268258E+01  0.34911105362E+01  0.33773967290E+01  0.84009795819E+01  0.51100000000E-03 0.  1.
        -12    1    3    3    0    0 -0.34491961065E+02 -0.14736903115E+02 -0.25474437982E+02  0.45341136753E+02  0.00000000000E+00 0.  1.
</event>
<event>
 7    1  0.2490895E-015  0.9000787E+02  0.7816164E-02  0.1186339E+00
        -11   -1    0    0    0    0  0.00000000000E+00  0.00000000000E+00  0.45593999997E+02  0.45594000000E+02  0.51100000000E-03 0.  1.
         11   -1    0    0    0    0 -0.00000000000E+00 -0.00000000000E+00 -0.45593999997E+02  0.45594000000E+02  0.51100000000E-03 0. -1.
    9900012    2    1    2    0    0 -0.13109257739E-01  0.11747608637E+01 -0.11163358755E+00  0.90007874160E+02  0.90000137299E+02 0.  0.
         12    1    1    2    0    0  0.13109257739E-01 -0.11747608637E+01  0.11163358755E+00  0.11801258396E+01  0.00000000000E+00 0. -1.
         11    1    3    3    0    0  0.31594049577E+02  0.11599507774E+02 -0.21194239182E+02  0.39773462560E+02  0.51100000000E-03 0. -1.
        -11    1    3    3    0    0  0.12506753419E+01  0.77786321617E+01  0.52697009249E+01  0.94784521531E+01  0.51100000000E-03 0.  1.
        -12    1    3    3    0    0 -0.32857834176E+02 -0.18203379072E+02  0.15812904669E+02  0.40755959447E+02  0.00000000000E+00 0.  1.
</event>
<event>
 7    1  0.2490895E-015  0.9000778E+02  0.7816164E-02  0.1186339E+00
        -11   -1    0    0    0    0  0.00000000000E+00  0.00000000000E+00  0.45593999997E+02  0.45594000000E+02  0.51100000000E-03 0. -1.
         11   -1    0    0    0    0 -0.00000000000E+00 -0.00000000000E+00 -0.45593999997E+02  0.45594000000E+02  0.51100000000E-03 0.  1.
    9900012    2    1    2    0    0 -0.46369937709E+00  0.90131798741E+00 -0.60458683712E+00  0.90007781177E+02  0.90000043088E+02 0.  0.
         12    1    1    2    0    0  0.46369937709E+00 -0.90131798741E+00  0.60458683712E+00  0.11802188231E+01  0.00000000000E+00 0. -1.
         11    1    3    3    0    0 -0.15532159777E+02  0.23046785906E+02 -0.23742841686E+02  0.36553041727E+02  0.51100000000E-03 0. -1.
        -11    1    3    3    0    0 -0.12373402172E+02 -0.25530954329E+01  0.13051133254E+00  0.12634730352E+02  0.51100000000E-03 0.  1.
        -12    1    3    3    0    0  0.27441862572E+02 -0.19592372486E+02  0.23007743516E+02  0.40820009098E+02  0.00000000000E+00 0.  1.
</event>
<event>
 8    1  0.2490895E-015  0.9000774E+02  0.7816164E-02  0.1186339E+00
        -11   -1    0    0    0    0  0.00000000000E+00  0.00000000000E+00  0.45593999997E+02  0.45594000000E+02  0.51100000000E-03 0. -1.
         11   -1    0    0    0    0 -0.00000000000E+00 -0.00000000000E+00 -0.45593999997E+02  0.45594000000E+02  0.51100000000E-03 0.  1.
    9900012    2    1    2    0    0 -0.54937378293E+00 -0.97827161895E+00 -0.36632207231E+00  0.90007737837E+02  0.89999999176E+02 0.  0.
         23    2    3    3    0    0 -0.26011893768E+02 -0.50230698193E+01 -0.35578632998E+01  0.64029164899E+02  0.58182692604E+02 0.  0.
         12    1    1    2    0    0  0.54937378293E+00  0.97827161895E+00  0.36632207231E+00  0.11802621634E+01  0.00000000000E+00 0. -1.
         11    1    4    4    0    0 -0.87564801898E+01 -0.13825255957E+01  0.27181360186E+02  0.28590447079E+02  0.51100000000E-03 0. -1.
        -11    1    4    4    0    0 -0.17255413578E+02 -0.36405442236E+01 -0.30739223486E+02  0.35438717821E+02  0.51100000000E-03 0.  1.
         12    1    3    3    0    0  0.25462519985E+02  0.40447982003E+01  0.31915412275E+01  0.25978572937E+02  0.00000000000E+00 0. -1.
</event>
<event>
 7    1  0.2490895E-015  0.9000755E+02  0.7816164E-02  0.1186339E+00
        -11   -1    0    0    0    0  0.00000000000E+00  0.00000000000E+00  0.45593999997E+02  0.45594000000E+02  0.51100000000E-03 0. -1.
         11   -1    0    0    0    0 -0.00000000000E+00 -0.00000000000E+00 -0.45593999997E+02  0.45594000000E+02  0.51100000000E-03 0.  1.
    9900012    2    1    2    0    0  0.56732502533E+00 -0.67134042266E+00 -0.78798183473E+00  0.90007546265E+02  0.89999805076E+02 0.  0.
         12    1    1    2    0    0 -0.56732502533E+00  0.67134042266E+00  0.78798183473E+00  0.11804537345E+01  0.00000000000E+00 0. -1.
         11    1    3    3    0    0 -0.38064452076E+02  0.53850614346E+01  0.10826156268E+02  0.39938791397E+02  0.51100000000E-03 0. -1.
        -11    1    3    3    0    0  0.22944394779E+01  0.46057093661E+01  0.63346837534E+01  0.81612027177E+01  0.51100000000E-03 0.  1.
        -12    1    3    3    0    0  0.36337337623E+02 -0.10662111223E+02 -0.17948821856E+02  0.41907552151E+02  0.00000000000E+00 0.  1.
</event>
<event>
 7    1  0.2490895E-015  0.9000791E+02  0.7816164E-02  0.1186339E+00
        -11   -1    0    0    0    0  0.00000000000E+00  0.00000000000E+00  0.45593999997E+02  0.45594000000E+02  0.51100000000E-03 0.  1.
         11   -1    0    0    0    0 -0.00000000000E+00 -0.00000000000E+00 -0.45593999997E+02  0.45594000000E+02  0.51100000000E-03 0. -1.
    9900012    2    1    2    0    0 -0.30720593073E+00 -0.71647123822E+00  0.88594457437E+00  0.90007913432E+02  0.90000177089E+02 0.  0.
         12    1    1    2    0    0  0.30720593073E+00  0.71647123822E+00 -0.88594457437E+00  0.11800865680E+01  0.00000000000E+00 0. -1.
         11    1    3    3    0    0  0.25885582424E+00 -0.59119831058E+01  0.64409602155E+01  0.87466861919E+01  0.51100000000E-03 0. -1.
        -11    1    3    3    0    0 -0.29610343249E+02 -0.11465637320E+02  0.21387359962E+02  0.38283840362E+02  0.51100000000E-03 0.  1.
         12    1    3    3    0    0  0.29044281494E+02  0.16661149188E+02 -0.26942375603E+02  0.42977386878E+02  0.00000000000E+00 0. -1.
</event>
<event>
 7    1  0.2490895E-015  0.9000783E+02  0.7816164E-02  0.1186339E+00
        -11   -1    0    0    0    0  0.00000000000E+00  0.00000000000E+00  0.45593999997E+02  0.45594000000E+02  0.51100000000E-03 0. -1.
         11   -1    0    0    0    0 -0.00000000000E+00 -0.00000000000E+00 -0.45593999997E+02  0.45594000000E+02  0.51100000000E-03 0.  1.
    9900012    2    1    2    0    0  0.86339068263E+00 -0.77208636600E+00 -0.22638662003E+00  0.90007825551E+02  0.90000088049E+02 0.  0.
         12    1    1    2    0    0 -0.86339068263E+00  0.77208636600E+00  0.22638662003E+00  0.11801744486E+01  0.00000000000E+00 0. -1.
         11    1    3    3    0    0  0.18391289608E+02  0.31698949458E+02 -0.20742604033E+02  0.42110789027E+02  0.51100000000E-03 0. -1.
        -11    1    3    3    0    0  0.61694068838E+00  0.12160132952E+01  0.72842469551E+01  0.74107731116E+01  0.51100000000E-03 0.  1.
        -12    1    3    3    0    0 -0.18144839613E+02 -0.33687049119E+02  0.13231970458E+02  0.40486263413E+02  0.00000000000E+00 0.  1.
</event>
<event>
 7    1  0.2490895E-015  0.9000769E+02  0.7816164E-02  0.1186339E+00
        -11   -1    0    0    0    0  0.00000000000E+00  0.00000000000E+00  0.45593999997E+02  0.45594000000E+02  0.51100000000E-03 0.  1.
         11   -1    0    0    0    0 -0.00000000000E+00 -0.00000000000E+00 -0.45593999997E+02  0.45594000000E+02  0.51100000000E-03 0. -1.
    9900012    2    1    2    0    0 -0.42877497927E+00  0.48538405692E+00  0.98676031037E+00  0.90007685815E+02  0.89999946468E+02 0.  0.
         12    1    1    2    0    0  0.42877497927E+00 -0.48538405692E+00 -0.98676031037E+00  0.11803141852E+01  0.00000000000E+00 0. -1.
         11    1    3    3    0    0  0.56410884968E+01  0.54170166355E+01  0.30203025297E+01  0.83838044043E+01  0.51100000000E-03 0. -1.
        -11    1    3    3    0    0 -0.87978460218E+01  0.32165497678E+02  0.19513268337E+02  0.38636627402E+02  0.51100000000E-03 0.  1.
         12    1    3    3    0    0  0.27279825458E+01 -0.37097130257E+02 -0.21546810557E+02  0.42987254009E+02  0.00000000000E+00 0. -1.
</event>
<event>
 7    1  0.2490895E-015  0.9000791E+02  0.7816164E-02  0.1186339E+00
        -11   -1    0    0    0    0  0.00000000000E+00  0.00000000000E+00  0.45593999997E+02  0.45594000000E+02  0.51100000000E-03 0. -1.
         11   -1    0    0    0    0 -0.00000000000E+00 -0.00000000000E+00 -0.45593999997E+02  0.45594000000E+02  0.51100000000E-03 0.  1.
    9900012    2    1    2    0    0 -0.79545765112E+00 -0.37054642061E+00 -0.78901778497E+00  0.90007912465E+02  0.90000176110E+02 0.  0.
         12    1    1    2    0    0  0.79545765112E+00  0.37054642061E+00  0.78901778497E+00  0.11800875347E+01  0.00000000000E+00 0. -1.
         11    1    3    3    0    0  0.42345961443E+01  0.77605498335E+01  0.25476070495E+01  0.92004478241E+01  0.51100000000E-03 0. -1.
        -11    1    3    3    0    0  0.20385985387E+02  0.17962030085E+02 -0.26245858639E+02  0.37776553852E+02  0.51100000000E-03 0.  1.
         12    1    3    3    0    0 -0.25416039183E+02 -0.26093126339E+02  0.22909233804E+02  0.43030910789E+02  0.00000000000E+00 0. -1.
</event>
<event>
 7    1  0.2490895E-015  0.9000737E+02  0.7816164E-02  0.1186340E+00
        -11   -1    0    0    0    0  0.00000000000E+00  0.00000000000E+00  0.45593999997E+02  0.45594000000E+02  0.51100000000E-03 0. -1.
         11   -1    0    0    0    0 -0.00000000000E+00 -0.00000000000E+00 -0.45593999997E+02  0.45594000000E+02  0.51100000000E-03 0.  1.
    9900012    2    1    2    0    0 -0.11761153705E+01  0.32163187495E-01  0.97978413967E-01  0.90007372368E+02  0.89999628883E+02 0.  0.
         12    1    1    2    0    0  0.11761153705E+01 -0.32163187495E-01 -0.97978413967E-01  0.11806276318E+01  0.00000000000E+00 0. -1.
         11    1    3    3    0    0  0.13498298571E+02  0.64271798681E+01  0.36935973715E+02  0.39846942918E+02  0.51100000000E-03 0. -1.
        -11    1    3    3    0    0  0.30755726795E+01 -0.10722959182E+02 -0.27565788801E+01  0.11490854116E+02  0.51100000000E-03 0.  1.
        -12    1    3    3    0    0 -0.17749986621E+02  0.43279425013E+01 -0.34081416421E+02  0.38669575335E+02  0.00000000000E+00 0.  1.
</event>
<event>
 7    1  0.2490895E-015  0.9000779E+02  0.7816164E-02  0.1186339E+00
        -11   -1    0    0    0    0  0.00000000000E+00  0.00000000000E+00  0.45593999997E+02  0.45594000000E+02  0.51100000000E-03 0. -1.
         11   -1    0    0    0    0 -0.00000000000E+00 -0.00000000000E+00 -0.45593999997E+02  0.45594000000E+02  0.51100000000E-03 0.  1.
    9900012    2    1    2    0    0  0.61264611368E+00  0.48042448006E+00 -0.88699278224E+00  0.90007788520E+02  0.90000050529E+02 0.  0.
         12    1    1    2    0    0 -0.61264611368E+00 -0.48042448006E+00  0.88699278224E+00  0.11802114799E+01  0.00000000000E+00 0. -1.
         11    1    3    3    0    0  0.11681073430E+01 -0.47023500093E+01 -0.74256548472E+01  0.88666183264E+01  0.51100000000E-03 0. -1.
        -11    1    3    3    0    0 -0.74492440043E+01 -0.28372508798E+02  0.28135042442E+02  0.40645677570E+02  0.51100000000E-03 0.  1.
         12    1    3    3    0    0  0.68937827750E+01  0.33555283287E+02 -0.21596380377E+02  0.40495492623E+02  0.00000000000E+00 0. -1.
</event>
<event>
 7    1  0.2870109E-015  0.9000767E+02  0.7816164E-02  0.1186339E+00
        -11   -1    0    0    0    0  0.00000000000E+00  0.00000000000E+00  0.45593999997E+02  0.45594000000E+02  0.51100000000E-03 0.  1.
         11   -1    0    0    0    0 -0.00000000000E+00 -0.00000000000E+00 -0.45593999997E+02  0.45594000000E+02  0.51100000000E-03 0. -1.
    9900012    2    1    2    0    0  0.85278993451E+00 -0.76169265448E+00  0.29283337761E+00  0.90007670487E+02  0.89999930937E+02 0.  0.
         12    1    1    2    0    0 -0.85278993451E+00  0.76169265448E+00 -0.29283337761E+00  0.11803295130E+01  0.00000000000E+00 0. -1.
         11    1    3    3    0    0  0.17367544005E+02 -0.36041389867E+02  0.73986112139E+01  0.40686027288E+02  0.51100000000E-03 0. -1.
        -11    1    3    3    0    0 -0.29648449564E+01 -0.22794759574E+01 -0.85865265785E+01  0.93656155804E+01  0.51100000000E-03 0.  1.
        -12    1    3    3    0    0 -0.13549909114E+02  0.37559173170E+02  0.14807487422E+01  0.39956027619E+02  0.00000000000E+00 0.  1.
</event>
<event>
 7    1  0.2810041E-015  0.9000774E+02  0.7816164E-02  0.1186339E+00
        -11   -1    0    0    0    0  0.00000000000E+00  0.00000000000E+00  0.45593999997E+02  0.45594000000E+02  0.51100000000E-03 0.  1.
         11   -1    0    0    0    0 -0.00000000000E+00 -0.00000000000E+00 -0.45593999997E+02  0.45594000000E+02  0.51100000000E-03 0. -1.
    9900012    2    1    2    0    0 -0.77612808007E+00 -0.46365758052E+00  0.75872504251E+00  0.90007738657E+02  0.90000000007E+02 0.  0.
         12    1    1    2    0    0  0.77612808007E+00  0.46365758052E+00 -0.75872504251E+00  0.11802613434E+01  0.00000000000E+00 0. -1.
         11    1    3    3    0    0  0.87474211439E+01  0.31747493176E+02 -0.23534217809E+02  0.40475673037E+02  0.51100000000E-03 0. -1.
        -11    1    3    3    0    0 -0.92638496739E+00 -0.83217740043E+01 -0.57802863009E+01  0.10174567395E+02  0.51100000000E-03 0.  1.
        -12    1    3    3    0    0 -0.85971642565E+01 -0.23889376752E+02  0.30073229153E+02  0.39357498225E+02  0.00000000000E+00 0.  1.
</event>
<event>
 7    1  0.2490895E-015  0.9000772E+02  0.7816164E-02  0.1186339E+00
        -11   -1    0    0    0    0  0.00000000000E+00  0.00000000000E+00  0.45593999997E+02  0.45594000000E+02  0.51100000000E-03 0. -1.
         11   -1    0    0    0    0 -0.00000000000E+00 -0.00000000000E+00 -0.45593999997E+02  0.45594000000E+02  0.51100000000E-03 0.  1.
    9900012    2    1    2    0    0 -0.65747350715E+00 -0.63622010098E+00 -0.74565974974E+00  0.90007722112E+02  0.89999983244E+02 0.  0.
         12    1    1    2    0    0  0.65747350715E+00  0.63622010098E+00  0.74565974974E+00  0.11802778876E+01  0.00000000000E+00 0. -1.
         11    1    3    3    0    0 -0.20229088788E+01  0.76053729382E+01 -0.57781420284E+01  0.97632363191E+01  0.51100000000E-03 0. -1.
        -11    1    3    3    0    0 -0.15047895387E+02 -0.16774665486E+02 -0.31830553677E+02  0.39000162889E+02  0.51100000000E-03 0.  1.
         12    1    3    3    0    0  0.16413330759E+02  0.85330724469E+01  0.36863035955E+02  0.41244322904E+02  0.00000000000E+00 0. -1.
</event>
<event>
 7    1  0.2490895E-015  0.9000773E+02  0.7816164E-02  0.1186339E+00
        -11   -1    0    0    0    0  0.00000000000E+00  0.00000000000E+00  0.45593999997E+02  0.45594000000E+02  0.51100000000E-03 0.  1.
         11   -1    0    0    0    0 -0.00000000000E+00 -0.00000000000E+00 -0.45593999997E+02  0.45594000000E+02  0.51100000000E-03 0. -1.
    9900012    2    1    2    0    0  0.26615964870E+00 -0.16136279526E-01  0.11497555659E+01  0.90007729184E+02  0.89999990409E+02 0.  0.
         12    1    1    2    0    0 -0.26615964870E+00  0.16136279526E-01 -0.11497555659E+01  0.11802708162E+01  0.00000000000E+00 0. -1.
         11    1    3    3    0    0  0.18294191275E+02 -0.18181254871E+02 -0.25021577632E+02  0.35934869007E+02  0.51100000000E-03 0. -1.
        -11    1    3    3    0    0  0.67677565007E+01 -0.53731309709E+01 -0.29824338853E+01  0.91415522000E+01  0.51100000000E-03 0.  1.
        -12    1    3    3    0    0 -0.24795788128E+02  0.23538249563E+02  0.29153767083E+02  0.44931307977E+02  0.00000000000E+00 0.  1.
</event>
<event>
 7    1  0.2490895E-015  0.9000778E+02  0.7816164E-02  0.1186339E+00
        -11   -1    0    0    0    0  0.00000000000E+00  0.00000000000E+00  0.45593999997E+02  0.45594000000E+02  0.51100000000E-03 0.  1.
         11   -1    0    0    0    0 -0.00000000000E+00 -0.00000000000E+00 -0.45593999997E+02  0.45594000000E+02  0.51100000000E-03 0. -1.
    9900012    2    1    2    0    0  0.44350271138E-01  0.11790801076E+01 -0.26766437417E-01  0.90007782525E+02  0.90000044454E+02 0.  0.
         12    1    1    2    0    0 -0.44350271138E-01 -0.11790801076E+01  0.26766437417E-01  0.11802174753E+01  0.00000000000E+00 0. -1.
         11    1    3    3    0    0 -0.28062072270E+02 -0.18116887121E+02 -0.23011115226E+02  0.40561224380E+02  0.51100000000E-03 0. -1.
        -11    1    3    3    0    0  0.75780498245E+01 -0.20562393929E+01 -0.44910697015E+01  0.90456988071E+01  0.51100000000E-03 0.  1.
        -12    1    3    3    0    0  0.20528372717E+02  0.21352206622E+02  0.27475418490E+02  0.40400859337E+02  0.00000000000E+00 0.  1.
</event>
<event>
 7    1  0.2490895E-015  0.9000769E+02  0.7816164E-02  0.1186339E+00
        -11   -1    0    0    0    0  0.00000000000E+00  0.00000000000E+00  0.45593999997E+02  0.45594000000E+02  0.51100000000E-03 0.  1.
         11   -1    0    0    0    0 -0.00000000000E+00 -0.00000000000E+00 -0.45593999997E+02  0.45594000000E+02  0.51100000000E-03 0. -1.
    9900012    2    1    2    0    0 -0.41311207116E+00  0.51928359807E+00  0.97612623800E+00  0.90007686706E+02  0.89999947371E+02 0.  0.
         12    1    1    2    0    0  0.41311207116E+00 -0.51928359807E+00 -0.97612623800E+00  0.11803132936E+01  0.00000000000E+00 0. -1.
         11    1    3    3    0    0 -0.31593677349E+02 -0.25362871511E+02  0.18354478685E+02  0.44478338411E+02  0.51100000000E-03 0. -1.
        -11    1    3    3    0    0  0.36846037162E+01  0.68913995792E+01  0.10516883068E+00  0.78152897227E+01  0.51100000000E-03 0.  1.
        -12    1    3    3    0    0  0.27495961561E+02  0.18990755530E+02 -0.17483521278E+02  0.37714058573E+02  0.00000000000E+00 0.  1.
</event>
<event>
 7    1  0.2490895E-015  0.9000774E+02  0.7816164E-02  0.1186339E+00
        -11   -1    0    0    0    0  0.00000000000E+00  0.00000000000E+00  0.45593999997E+02  0.45594000000E+02  0.51100000000E-03 0.  1.
         11   -1    0    0    0    0 -0.00000000000E+00 -0.00000000000E+00 -0.45593999997E+02  0.45594000000E+02  0.51100000000E-03 0. -1.
    9900012    2    1    2    0    0  0.20788725867E+00  0.70193056664E+00  0.92579254177E+00  0.90007739239E+02  0.90000000597E+02 0.  0.
         12    1    1    2    0    0 -0.20788725867E+00 -0.70193056664E+00 -0.92579254177E+00  0.11802607606E+01  0.00000000000E+00 0. -1.
         11    1    3    3    0    0  0.12174290355E+01 -0.10641289424E+02 -0.39492710845E+02  0.40919352197E+02  0.51100000000E-03 0. -1.
        -11    1    3    3    0    0 -0.77104913491E+01  0.69675018927E+01  0.29899447371E+01  0.10813765730E+02  0.51100000000E-03 0.  1.
        -12    1    3    3    0    0  0.67009495722E+01  0.43757180982E+01  0.37428558650E+02  0.38274621313E+02  0.00000000000E+00 0.  1.
</event>
<event>
 7    1  0.2490895E-015  0.9000777E+02  0.7816164E-02  0.1186339E+00
        -11   -1    0    0    0    0  0.00000000000E+00  0.00000000000E+00  0.45593999997E+02  0.45594000000E+02  0.51100000000E-03 0.  1.
         11   -1    0    0    0    0 -0.00000000000E+00 -0.00000000000E+00 -0.45593999997E+02  0.45594000000E+02  0.51100000000E-03 0. -1.
    9900012    2    1    2    0    0 -0.10314640133E+01  0.50579836120E+00  0.27053930625E+00  0.90007770569E+02  0.90000032341E+02 0.  0.
         12    1    1    2    0    0  0.10314640133E+01 -0.50579836120E+00 -0.27053930625E+00  0.11802294307E+01  0.00000000000E+00 0. -1.
         11    1    3    3    0    0 -0.19095983855E+02  0.31302165005E+02  0.40431259645E+01  0.36889415843E+02  0.51100000000E-03 0. -1.
        -11    1    3    3    0    0  0.12818545495E+01  0.84540093720E+01  0.44600330568E+01  0.96439266213E+01  0.51100000000E-03 0.  1.
        -12    1    3    3    0    0  0.16782665293E+02 -0.39250376016E+02 -0.82326197151E+01  0.43474428105E+02  0.00000000000E+00 0.  1.
</event>
<event>
 7    1  0.2490895E-015  0.9000782E+02  0.7816164E-02  0.1186339E+00
        -11   -1    0    0    0    0  0.00000000000E+00  0.00000000000E+00  0.45593999997E+02  0.45594000000E+02  0.51100000000E-03 0. -1.
         11   -1    0    0    0    0 -0.00000000000E+00 -0.00000000000E+00 -0.45593999997E+02  0.45594000000E+02  0.51100000000E-03 0.  1.
    9900012    2    1    2    0    0 -0.39053572723E+00 -0.11136388837E+01 -0.10817372757E-01  0.90007819195E+02  0.90000081608E+02 0.  0.
         12    1    1    2    0    0  0.39053572723E+00  0.11136388837E+01  0.10817372757E-01  0.11801808053E+01  0.00000000000E+00 0. -1.
         11    1    3    3    0    0  0.44517008246E+01 -0.82463091809E+01  0.22869622112E+00  0.93739830148E+01  0.51100000000E-03 0. -1.
        -11    1    3    3    0    0  0.40507374548E+01 -0.10337615256E+01 -0.39417008510E+02  0.39638083921E+02  0.51100000000E-03 0.  1.
         12    1    3    3    0    0 -0.88929740066E+01  0.81664318228E+01  0.39177494916E+02  0.40995752259E+02  0.00000000000E+00 0. -1.
</event>
<event>
 7    1  0.2490895E-015  0.9000777E+02  0.7816164E-02  0.1186339E+00
        -11   -1    0    0    0    0  0.00000000000E+00  0.00000000000E+00  0.45593999997E+02  0.45594000000E+02  0.51100000000E-03 0.  1.
         11   -1    0    0    0    0 -0.00000000000E+00 -0.00000000000E+00 -0.45593999997E+02  0.45594000000E+02  0.51100000000E-03 0. -1.
    9900012    2    1    2    0    0 -0.45654581662E+00 -0.71205089771E+00  0.82309576647E+00  0.90007772393E+02  0.90000034189E+02 0.  0.
         12    1    1    2    0    0  0.45654581662E+00  0.71205089771E+00 -0.82309576647E+00  0.11802276070E+01  0.00000000000E+00 0. -1.
         11    1    3    3    0    0 -0.45589817651E+01 -0.14033766213E+02  0.15314168187E+02  0.21266279796E+02  0.51100000000E-03 0. -1.
        -11    1    3    3    0    0  0.63995897374E+00  0.22084772490E+02  0.21924884442E+02  0.31126311723E+02  0.51100000000E-03 0.  1.
         12    1    3    3    0    0  0.34624769747E+01 -0.87630571751E+01 -0.36415956863E+02  0.37615180873E+02  0.00000000000E+00 0. -1.
</event>
<event>
 7    1  0.2490895E-015  0.9000770E+02  0.7816164E-02  0.1186339E+00
        -11   -1    0    0    0    0  0.00000000000E+00  0.00000000000E+00  0.45593999997E+02  0.45594000000E+02  0.51100000000E-03 0.  1.
         11   -1    0    0    0    0 -0.00000000000E+00 -0.00000000000E+00 -0.45593999997E+02  0.45594000000E+02  0.51100000000E-03 0. -1.
    9900012    2    1    2    0    0  0.11130968723E+01  0.21198643118E+00  0.33043587694E+00  0.90007698868E+02  0.89999959693E+02 0.  0.
         12    1    1    2    0    0 -0.11130968723E+01 -0.21198643118E+00 -0.33043587694E+00  0.11803011323E+01  0.00000000000E+00 0. -1.
         11    1    3    3    0    0  0.63108043824E+00  0.84689072766E+01 -0.45998457467E+01  0.96581175254E+01  0.51100000000E-03 0. -1.
        -11    1    3    3    0    0  0.13725537846E+02  0.32306901886E+02 -0.75224408731E+01  0.35898654788E+02  0.51100000000E-03 0.  1.
         12    1    3    3    0    0 -0.13243521412E+02 -0.40563822731E+02  0.12452722497E+02  0.44450926554E+02  0.00000000000E+00 0. -1.
</event>
<event>
 7    1  0.2490895E-015  0.9000761E+02  0.7816164E-02  0.1186339E+00
        -11   -1    0    0    0    0  0.00000000000E+00  0.00000000000E+00  0.45593999997E+02  0.45594000000E+02  0.51100000000E-03 0. -1.
         11   -1    0    0    0    0 -0.00000000000E+00 -0.00000000000E+00 -0.45593999997E+02  0.45594000000E+02  0.51100000000E-03 0.  1.
    9900012    2    1    2    0    0 -0.35273716024E+00  0.75130196006E+00 -0.83930900479E+00  0.90007611189E+02  0.89999870857E+02 0.  0.
         12    1    1    2    0    0  0.35273716024E+00 -0.75130196006E+00  0.83930900479E+00  0.11803888109E+01  0.00000000000E+00 0. -1.
         11    1    3    3    0    0 -0.29616655390E+00 -0.78808038046E+01  0.35917997737E+01  0.86657838139E+01  0.51100000000E-03 0. -1.
        -11    1    3    3    0    0 -0.71187407674E+01  0.44229044480E+02 -0.47527942613E+01  0.45049682566E+02  0.51100000000E-03 0.  1.
         12    1    3    3    0    0  0.70621701610E+01 -0.35596938716E+02  0.32168548280E+00  0.36292144809E+02  0.00000000000E+00 0. -1.
</event>
<event>
 7    1  0.2490895E-015  0.9000794E+02  0.7816164E-02  0.1186339E+00
        -11   -1    0    0    0    0  0.00000000000E+00  0.00000000000E+00  0.45593999997E+02  0.45594000000E+02  0.51100000000E-03 0.  1.
         11   -1    0    0    0    0 -0.00000000000E+00 -0.00000000000E+00 -0.45593999997E+02  0.45594000000E+02  0.51100000000E-03 0. -1.
    9900012    2    1    2    0    0  0.32406541361E+00  0.79170749773E-01  0.11319297021E+01  0.90007935913E+02  0.90000199866E+02 0.  0.
         12    1    1    2    0    0 -0.32406541361E+00 -0.79170749773E-01 -0.11319297021E+01  0.11800640875E+01  0.00000000000E+00 0. -1.
         11    1    3    3    0    0 -0.19811420684E+02  0.37224363549E+02 -0.32857741385E+01  0.42295885652E+02  0.51100000000E-03 0. -1.
        -11    1    3    3    0    0 -0.21211247963E+01 -0.40469370284E-01 -0.31394672117E+01  0.37890714966E+01  0.51100000000E-03 0.  1.
        -12    1    3    3    0    0  0.22256610894E+02 -0.37104723429E+02  0.75571710524E+01  0.43922978764E+02  0.00000000000E+00 0.  1.
</event>
<event>
 7    1  0.2490895E-015  0.9000776E+02  0.7816164E-02  0.1186339E+00
        -11   -1    0    0    0    0  0.00000000000E+00  0.00000000000E+00  0.45593999997E+02  0.45594000000E+02  0.51100000000E-03 0.  1.
         11   -1    0    0    0    0 -0.00000000000E+00 -0.00000000000E+00 -0.45593999997E+02  0.45594000000E+02  0.51100000000E-03 0. -1.
    9900012    2    1    2    0    0 -0.46011146781E+00  0.42698270546E+00  0.99947275696E+00  0.90007761640E+02  0.90000023294E+02 0.  0.
         12    1    1    2    0    0  0.46011146781E+00 -0.42698270546E+00 -0.99947275696E+00  0.11802383596E+01  0.00000000000E+00 0. -1.
         11    1    3    3    0    0 -0.36199156904E+02 -0.25271148221E+01 -0.17636755224E+02  0.40346256394E+02  0.51100000000E-03 0. -1.
        -11    1    3    3    0    0 -0.89878766091E+00  0.88727982202E+01  0.34758152222E+01  0.95716069307E+01  0.51100000000E-03 0.  1.
        -12    1    3    3    0    0  0.36637833097E+02 -0.59187006927E+01  0.15160412759E+02  0.40089898316E+02  0.00000000000E+00 0.  1.
</event>
<event>
 7    1  0.2490895E-015  0.9000774E+02  0.7816164E-02  0.1186339E+00
        -11   -1    0    0    0    0  0.00000000000E+00  0.00000000000E+00  0.45593999997E+02  0.45594000000E+02  0.51100000000E-03 0.  1.
         11   -1    0    0    0    0 -0.00000000000E+00 -0.00000000000E+00 -0.45593999997E+02  0.45594000000E+02  0.51100000000E-03 0. -1.
    9900012    2    1    2    0    0 -0.38408742749E+00 -0.41830307025E+00  0.10346611596E+01  0.90007735485E+02  0.89999996793E+02 0.  0.
         12    1    1    2    0    0  0.38408742749E+00  0.41830307025E+00 -0.10346611596E+01  0.11802645152E+01  0.00000000000E+00 0. -1.
         11    1    3    3    0    0  0.30872291372E+02  0.15510738650E+02 -0.91737320549E+01  0.35746870466E+02  0.51100000000E-03 0. -1.
        -11    1    3    3    0    0  0.71615329535E+01 -0.28174827144E+01 -0.67793131238E+01  0.10255966545E+02  0.51100000000E-03 0.  1.
        -12    1    3    3    0    0 -0.38417911753E+02 -0.13111559006E+02  0.16987706338E+02  0.44004898473E+02  0.00000000000E+00 0.  1.
</event>
<event>
 7    1  0.2490895E-015  0.9000776E+02  0.7816164E-02  0.1186339E+00
        -11   -1    0    0    0    0  0.00000000000E+00  0.00000000000E+00  0.45593999997E+02  0.45594000000E+02  0.51100000000E-03 0. -1.
         11   -1    0    0    0    0 -0.00000000000E+00 -0.00000000000E+00 -0.45593999997E+02  0.45594000000E+02  0.51100000000E-03 0.  1.
    9900012    2    1    2    0    0 -0.66188231080E+00  0.89503528953E+00 -0.39217449248E+00  0.90007755451E+02  0.90000017023E+02 0.  0.
         12    1    1    2    0    0  0.66188231080E+00 -0.89503528953E+00  0.39217449248E+00  0.11802445490E+01  0.00000000000E+00 0. -1.
         11    1    3    3    0    0 -0.41455743884E+01  0.37925120718E+01 -0.65042413636E+01  0.85950038279E+01  0.51100000000E-03 0. -1.
        -11    1    3    3    0    0  0.13649502212E+02  0.19707845593E+02 -0.29507281652E+02  0.38018255606E+02  0.51100000000E-03 0.  1.
         12    1    3    3    0    0 -0.10165810134E+02 -0.22605322375E+02  0.35619348523E+02  0.43394496017E+02  0.00000000000E+00 0. -1.
</event>
<event>
 7    1  0.2490895E-015  0.9000784E+02  0.7816164E-02  0.1186339E+00
        -11   -1    0    0    0    0  0.00000000000E+00  0.00000000000E+00  0.45593999997E+02  0.45594000000E+02  0.51100000000E-03 0.  1.
         11   -1    0    0    0    0 -0.00000000000E+00 -0.00000000000E+00 -0.45593999997E+02  0.45594000000E+02  0.51100000000E-03 0. -1.
    9900012    2    1    2    0    0 -0.36453058810E+00  0.87280495783E+00  0.70577398943E+00  0.90007835618E+02  0.90000098248E+02 0.  0.
         12    1    1    2    0    0  0.36453058810E+00 -0.87280495783E+00 -0.70577398943E+00  0.11801643819E+01  0.00000000000E+00 0. -1.
         11    1    3    3    0    0 -0.67742060193E+01 -0.67660162222E+01  0.37869126432E+01  0.10296093936E+02  0.51100000000E-03 0. -1.
        -11    1    3    3    0    0 -0.32889365996E+02  0.38560583012E+01  0.14920366144E+02  0.36320750369E+02  0.51100000000E-03 0.  1.
         12    1    3    3    0    0  0.39299041428E+02  0.37827628788E+01 -0.18001504797E+02  0.43390991313E+02  0.00000000000E+00 0. -1.
</event>
<event>
 7    1  0.2490895E-015  0.9000797E+02  0.7816164E-02  0.1186339E+00
        -11   -1    0    0    0    0  0.00000000000E+00  0.00000000000E+00  0.45593999997E+02  0.45594000000E+02  0.51100000000E-03 0.  1.
         11   -1    0    0    0    0 -0.00000000000E+00 -0.00000000000E+00 -0.45593999997E+02  0.45594000000E+02  0.51100000000E-03 0. -1.
    9900012    2    1    2    0    0  0.11629526111E+01  0.16356866720E+00  0.11510584898E+00  0.90007973373E+02  0.90000237821E+02 0.  0.
         12    1    1    2    0    0 -0.11629526111E+01 -0.16356866720E+00 -0.11510584898E+00  0.11800266272E+01  0.00000000000E+00 0. -1.
         11    1    3    3    0    0 -0.43831675819E+01  0.27427404972E+02  0.22427736186E+02  0.35699832664E+02  0.51100000000E-03 0. -1.
        -11    1    3    3    0    0  0.85643699639E+01 -0.18481490789E+02  0.85407289852E+01  0.22087507476E+02  0.51100000000E-03 0.  1.
        -12    1    3    3    0    0 -0.30182497709E+01 -0.87823455161E+01 -0.30853359322E+02  0.32220633232E+02  0.00000000000E+00 0.  1.
</event>
<event>
 7    1  0.2490895E-015  0.9000775E+02  0.7816164E-02  0.1186339E+00
        -11   -1    0    0    0    0  0.00000000000E+00  0.00000000000E+00  0.45593999997E+02  0.45594000000E+02  0.51100000000E-03 0.  1.
         11   -1    0    0    0    0 -0.00000000000E+00 -0.00000000000E+00 -0.45593999997E+02  0.45594000000E+02  0.51100000000E-03 0. -1.
    9900012    2    1    2    0    0 -0.76680665888E+00  0.60993313213E+00  0.65801772712E+00  0.90007746550E+02  0.90000008004E+02 0.  0.
         12    1    1    2    0    0  0.76680665888E+00 -0.60993313213E+00 -0.65801772712E+00  0.11802534503E+01  0.00000000000E+00 0. -1.
         11    1    3    3    0    0  0.64226493325E+00 -0.81257557466E+00  0.83490076135E+01  0.84130084809E+01  0.51100000000E-03 0. -1.
        -11    1    3    3    0    0 -0.23292766018E+01  0.40252526308E+02  0.52375945414E+01  0.40658625167E+02  0.51100000000E-03 0.  1.
         12    1    3    3    0    0  0.92020500969E+00 -0.38830017601E+02 -0.12928584428E+02  0.40936112901E+02  0.00000000000E+00 0. -1.
</event>
<event>
 7    1  0.2490895E-015  0.9000772E+02  0.7816164E-02  0.1186339E+00
        -11   -1    0    0    0    0  0.00000000000E+00  0.00000000000E+00  0.45593999997E+02  0.45594000000E+02  0.51100000000E-03 0.  1.
         11   -1    0    0    0    0 -0.00000000000E+00 -0.00000000000E+00 -0.45593999997E+02  0.45594000000E+02  0.51100000000E-03 0. -1.
    9900012    2    1    2    0    0  0.70206297953E-01  0.64864544714E+00 -0.98356470393E+00  0.90007716404E+02  0.89999977460E+02 0.  0.
         12    1    1    2    0    0 -0.70206297953E-01 -0.64864544714E+00  0.98356470393E+00  0.11802835961E+01  0.00000000000E+00 0. -1.
         11    1    3    3    0    0  0.17362755543E+02 -0.94365206165E+01 -0.34859816706E+02  0.40071436491E+02  0.51100000000E-03 0. -1.
        -11    1    3    3    0    0 -0.23944694399E+00 -0.93606620731E+01  0.33940320875E+01  0.99598586013E+01  0.51100000000E-03 0.  1.
        -12    1    3    3    0    0 -0.17053102302E+02  0.19445828137E+02  0.30482219914E+02  0.39976421312E+02  0.00000000000E+00 0.  1.
</event>
<event>
 7    1  0.2490895E-015  0.9000775E+02  0.7816164E-02  0.1186339E+00
        -11   -1    0    0    0    0  0.00000000000E+00  0.00000000000E+00  0.45593999997E+02  0.45594000000E+02  0.51100000000E-03 0.  1.
         11   -1    0    0    0    0 -0.00000000000E+00 -0.00000000000E+00 -0.45593999997E+02  0.45594000000E+02  0.51100000000E-03 0. -1.
    9900012    2    1    2    0    0  0.14622984107E+00  0.89868307195E+00  0.75098267789E+00  0.90007750275E+02  0.90000011779E+02 0.  0.
         12    1    1    2    0    0 -0.14622984107E+00 -0.89868307195E+00 -0.75098267789E+00  0.11802497247E+01  0.00000000000E+00 0. -1.
         11    1    3    3    0    0  0.16406561239E+02  0.12377783703E+02 -0.31840086325E+02  0.37896911201E+02  0.51100000000E-03 0. -1.
        -11    1    3    3    0    0 -0.10274529128E+02  0.13863020546E+00 -0.56302722508E+01  0.11716873859E+02  0.51100000000E-03 0.  1.
        -12    1    3    3    0    0 -0.59858022696E+01 -0.11617730837E+02  0.38221341254E+02  0.40393965216E+02  0.00000000000E+00 0.  1.
</event>
<event>
 7    1  0.2490895E-015  0.9000767E+02  0.7816164E-02  0.1186339E+00
        -11   -1    0    0    0    0  0.00000000000E+00  0.00000000000E+00  0.45593999997E+02  0.45594000000E+02  0.51100000000E-03 0.  1.
         11   -1    0    0    0    0 -0.00000000000E+00 -0.00000000000E+00 -0.45593999997E+02  0.45594000000E+02  0.51100000000E-03 0. -1.
    9900012    2    1    2    0    0  0.75361813380E-01 -0.10284771444E+01  0.57421943117E+00  0.90007672675E+02  0.89999933154E+02 0.  0.
         12    1    1    2    0    0 -0.75361813380E-01  0.10284771444E+01 -0.57421943117E+00  0.11803273252E+01  0.00000000000E+00 0. -1.
         11    1    3    3    0    0 -0.19927460351E+01 -0.24293041975E+02 -0.33523655309E+02  0.41448261612E+02  0.51100000000E-03 0. -1.
        -11    1    3    3    0    0  0.25862765054E+00  0.98959716068E+01 -0.19325638050E+01  0.10086225529E+02  0.51100000000E-03 0.  1.
        -12    1    3    3    0    0  0.18094801980E+01  0.13368593224E+02  0.36030438545E+02  0.38473185533E+02  0.00000000000E+00 0.  1.
</event>
<event>
 7    1  0.2490895E-015  0.9000774E+02  0.7816164E-02  0.1186339E+00
        -11   -1    0    0    0    0  0.00000000000E+00  0.00000000000E+00  0.45593999997E+02  0.45594000000E+02  0.51100000000E-03 0.  1.
         11   -1    0    0    0    0 -0.00000000000E+00 -0.00000000000E+00 -0.45593999997E+02  0.45594000000E+02  0.51100000000E-03 0. -1.
    9900012    2    1    2    0    0 -0.69344240339E+00 -0.70458802126E+00  0.64476051346E+00  0.90007736146E+02  0.89999997463E+02 0.  0.
         12    1    1    2    0    0  0.69344240339E+00  0.70458802126E+00 -0.64476051346E+00  0.11802638545E+01  0.00000000000E+00 0. -1.
         11    1    3    3    0    0  0.23865582280E+02 -0.76797523478E+01 -0.26742906268E+02  0.36656890888E+02  0.51100000000E-03 0. -1.
        -11    1    3    3    0    0  0.64829536566E+01  0.73453927862E+01 -0.26546023066E+01  0.10150389006E+02  0.51100000000E-03 0.  1.
        -12    1    3    3    0    0 -0.31041978340E+02 -0.37022845962E+00  0.30042269088E+02  0.43200456251E+02  0.00000000000E+00 0.  1.
</event>
<event>
 7    1  0.2490895E-015  0.9000749E+02  0.7816164E-02  0.1186340E+00
        -11   -1    0    0    0    0  0.00000000000E+00  0.00000000000E+00  0.45593999997E+02  0.45594000000E+02  0.51100000000E-03 0.  1.
         11   -1    0    0    0    0 -0.00000000000E+00 -0.00000000000E+00 -0.45593999997E+02  0.45594000000E+02  0.51100000000E-03 0. -1.
    9900012    2    1    2    0    0 -0.82487072639E+00 -0.74378158445E+00  0.39996718847E+00  0.90007493112E+02  0.89999751221E+02 0.  0.
         12    1    1    2    0    0  0.82487072639E+00  0.74378158445E+00 -0.39996718847E+00  0.11805068879E+01  0.00000000000E+00 0. -1.
         11    1    3    3    0    0 -0.10529506790E+02 -0.33795658205E+01 -0.28111656861E+01  0.11410286199E+02  0.51100000000E-03 0. -1.
        -11    1    3    3    0    0 -0.15753779128E+02 -0.21594098850E+01  0.34492538856E+02  0.37981309152E+02  0.51100000000E-03 0.  1.
         12    1    3    3    0    0  0.25458415192E+02  0.47951941211E+01 -0.31281405982E+02  0.40615897761E+02  0.00000000000E+00 0. -1.
</event>
<event>
 7    1  0.2490895E-015  0.9000773E+02  0.7816164E-02  0.1186339E+00
        -11   -1    0    0    0    0  0.00000000000E+00  0.00000000000E+00  0.45593999997E+02  0.45594000000E+02  0.51100000000E-03 0.  1.
         11   -1    0    0    0    0 -0.00000000000E+00 -0.00000000000E+00 -0.45593999997E+02  0.45594000000E+02  0.51100000000E-03 0. -1.
    9900012    2    1    2    0    0  0.90645545104E-01  0.60412690477E+00 -0.10098792285E+01  0.90007728003E+02  0.89999989212E+02 0.  0.
         12    1    1    2    0    0 -0.90645545104E-01 -0.60412690477E+00  0.10098792285E+01  0.11802719975E+01  0.00000000000E+00 0. -1.
         11    1    3    3    0    0 -0.27542439065E+02  0.43856198347E+01 -0.27140571193E+02  0.38915680849E+02  0.51100000000E-03 0. -1.
        -11    1    3    3    0    0 -0.33514896742E+01  0.84189904770E+01  0.50911833582E+00  0.90758517743E+01  0.51100000000E-03 0.  1.
        -12    1    3    3    0    0  0.30984574285E+02 -0.12200483407E+02  0.25621573628E+02  0.42016195379E+02  0.00000000000E+00 0.  1.
</event>
<event>
 7    1  0.2490895E-015  0.9000771E+02  0.7816164E-02  0.1186339E+00
        -11   -1    0    0    0    0  0.00000000000E+00  0.00000000000E+00  0.45593999997E+02  0.45594000000E+02  0.51100000000E-03 0.  1.
         11   -1    0    0    0    0 -0.00000000000E+00 -0.00000000000E+00 -0.45593999997E+02  0.45594000000E+02  0.51100000000E-03 0. -1.
    9900012    2    1    2    0    0 -0.47972623982E+00  0.91282763634E+00  0.57419892095E+00  0.90007705139E+02  0.89999966047E+02 0.  0.
         12    1    1    2    0    0  0.47972623982E+00 -0.91282763634E+00 -0.57419892095E+00  0.11802948613E+01  0.00000000000E+00 0. -1.
         11    1    3    3    0    0  0.23395474674E+02 -0.23239468785E+02 -0.12279778801E+02  0.35188266685E+02  0.51100000000E-03 0. -1.
        -11    1    3    3    0    0 -0.10166177591E+01 -0.11046793026E+02  0.65681638637E+00  0.11112900425E+02  0.51100000000E-03 0.  1.
        -12    1    3    3    0    0 -0.22858583155E+02  0.35199089447E+02  0.12197161336E+02  0.43706538028E+02  0.00000000000E+00 0.  1.
</event>
<event>
 7    1  0.2490895E-015  0.9000781E+02  0.7816164E-02  0.1186339E+00
        -11   -1    0    0    0    0  0.00000000000E+00  0.00000000000E+00  0.45593999997E+02  0.45594000000E+02  0.51100000000E-03 0. -1.
         11   -1    0    0    0    0 -0.00000000000E+00 -0.00000000000E+00 -0.45593999997E+02  0.45594000000E+02  0.51100000000E-03 0.  1.
    9900012    2    1    2    0    0 -0.33749455692E-01  0.64686272657E+00  0.98654459850E+00  0.90007813295E+02  0.90000075631E+02 0.  0.
         12    1    1    2    0    0  0.33749455692E-01 -0.64686272657E+00 -0.98654459850E+00  0.11801867046E+01  0.00000000000E+00 0. -1.
         11    1    3    3    0    0  0.17561706303E+02  0.16593901961E+02  0.26910777200E+02  0.36165744017E+02  0.51100000000E-03 0. -1.
        -11    1    3    3    0    0  0.81121019259E+01  0.61590813746E+00  0.56352367579E+01  0.98965364683E+01  0.51100000000E-03 0.  1.
        -12    1    3    3    0    0 -0.25707557684E+02 -0.16562947372E+02 -0.31559469359E+02  0.43945532810E+02  0.00000000000E+00 0.  1.
</event>
<event>
 7    1  0.2490895E-015  0.9000774E+02  0.7816164E-02  0.1186339E+00
        -11   -1    0    0    0    0  0.00000000000E+00  0.00000000000E+00  0.45593999997E+02  0.45594000000E+02  0.51100000000E-03 0. -1.
         11   -1    0    0    0    0 -0.00000000000E+00 -0.00000000000E+00 -0.45593999997E+02  0.45594000000E+02  0.51100000000E-03 0.  1.
    9900012    2    1    2    0    0  0.15398979969E+00  0.11822307069E+00 -0.11641888354E+01  0.90007735116E+02  0.89999996419E+02 0.  0.
         12    1    1    2    0    0 -0.15398979969E+00 -0.11822307069E+00  0.11641888354E+01  0.11802648844E+01  0.00000000000E+00 0. -1.
         11    1    3    3    0    0 -0.14491812626E+02 -0.26143524660E+01  0.30886031226E+02  0.34216872990E+02  0.51100000000E-03 0. -1.
        -11    1    3    3    0    0  0.64353725245E+01 -0.80109729827E+01  0.83166338628E+01  0.13219535042E+02  0.51100000000E-03 0.  1.
        -12    1    3    3    0    0  0.82104299016E+01  0.10743548519E+02 -0.40366853924E+02  0.42571327084E+02  0.00000000000E+00 0.  1.
</event>
<event>
 7    1  0.2490895E-015  0.9000776E+02  0.7816164E-02  0.1186339E+00
        -11   -1    0    0    0    0  0.00000000000E+00  0.00000000000E+00  0.45593999997E+02  0.45594000000E+02  0.51100000000E-03 0.  1.
         11   -1    0    0    0    0 -0.00000000000E+00 -0.00000000000E+00 -0.45593999997E+02  0.45594000000E+02  0.51100000000E-03 0. -1.
    9900012    2    1    2    0    0  0.42409357661E-01 -0.11066616261E+01  0.40800199908E+00  0.90007760982E+02  0.90000022627E+02 0.  0.
         12    1    1    2    0    0 -0.42409357661E-01  0.11066616261E+01 -0.40800199908E+00  0.11802390180E+01  0.00000000000E+00 0. -1.
         11    1    3    3    0    0 -0.27013362678E+01 -0.71900577704E+01  0.12933930257E+02  0.15042629442E+02  0.51100000000E-03 0. -1.
        -11    1    3    3    0    0  0.20871608730E+02 -0.22093720940E+01  0.24897383837E+02  0.32563554754E+02  0.51100000000E-03 0.  1.
         12    1    3    3    0    0 -0.18127863105E+02  0.82927682382E+01 -0.37423312095E+02  0.42401576786E+02  0.00000000000E+00 0. -1.
</event>
<event>
 7    1  0.2490895E-015  0.9000777E+02  0.7816164E-02  0.1186339E+00
        -11   -1    0    0    0    0  0.00000000000E+00  0.00000000000E+00  0.45593999997E+02  0.45594000000E+02  0.51100000000E-03 0. -1.
         11   -1    0    0    0    0 -0.00000000000E+00 -0.00000000000E+00 -0.45593999997E+02  0.45594000000E+02  0.51100000000E-03 0.  1.
    9900012    2    1    2    0    0 -0.18308023378E+00 -0.10241606579E+01 -0.55725130576E+00  0.90007765937E+02  0.90000027648E+02 0.  0.
         12    1    1    2    0    0  0.18308023378E+00  0.10241606579E+01  0.55725130576E+00  0.11802340628E+01  0.00000000000E+00 0. -1.
         11    1    3    3    0    0 -0.10231377067E+02 -0.34527706946E+01 -0.32699597358E+01  0.11282523613E+02  0.51100000000E-03 0. -1.
        -11    1    3    3    0    0  0.15820625835E+01  0.39859084702E+02 -0.26400262983E+01  0.39977734984E+02  0.51100000000E-03 0.  1.
         12    1    3    3    0    0  0.84662342492E+01 -0.37430474665E+02  0.53527347284E+01  0.38747507340E+02  0.00000000000E+00 0. -1.
</event>
<event>
 7    1  0.2490895E-015  0.9000770E+02  0.7816164E-02  0.1186339E+00
        -11   -1    0    0    0    0  0.00000000000E+00  0.00000000000E+00  0.45593999997E+02  0.45594000000E+02  0.51100000000E-03 0. -1.
         11   -1    0    0    0    0 -0.00000000000E+00 -0.00000000000E+00 -0.45593999997E+02  0.45594000000E+02  0.51100000000E-03 0.  1.
    9900012    2    1    2    0    0 -0.72396666452E+00 -0.25414163576E+00 -0.89688217807E+00  0.90007697774E+02  0.89999958585E+02 0.  0.
         12    1    1    2    0    0  0.72396666452E+00  0.25414163576E+00  0.89688217807E+00  0.11803022256E+01  0.00000000000E+00 0. -1.
         11    1    3    3    0    0 -0.16987359346E+02  0.26780252326E+02  0.19051694088E+02  0.36996207104E+02  0.51100000000E-03 0. -1.
        -11    1    3    3    0    0  0.46715106979E+01  0.95612361373E+01 -0.30572239409E+01  0.11071895373E+02  0.51100000000E-03 0.  1.
        -12    1    3    3    0    0  0.11591881984E+02 -0.36595630099E+02 -0.16891352325E+02  0.41939595297E+02  0.00000000000E+00 0.  1.
</event>
<event>
 7    1  0.2490895E-015  0.9000781E+02  0.7816164E-02  0.1186339E+00
        -11   -1    0    0    0    0  0.00000000000E+00  0.00000000000E+00  0.45593999997E+02  0.45594000000E+02  0.51100000000E-03 0. -1.
         11   -1    0    0    0    0 -0.00000000000E+00 -0.00000000000E+00 -0.45593999997E+02  0.45594000000E+02  0.51100000000E-03 0.  1.
    9900012    2    1    2    0    0 -0.58308498068E+00 -0.11760571902E+00 -0.10193332181E+01  0.90007805351E+02  0.90000067582E+02 0.  0.
         12    1    1    2    0    0  0.58308498068E+00  0.11760571902E+00  0.10193332181E+01  0.11801946490E+01  0.00000000000E+00 0. -1.
         11    1    3    3    0    0 -0.11195508333E+02 -0.14664469734E+01  0.37876940978E+01  0.11909513021E+02  0.51100000000E-03 0. -1.
        -11    1    3    3    0    0 -0.22226694184E+02  0.27588441613E+02  0.21429400280E+01  0.35492819516E+02  0.51100000000E-03 0.  1.
         12    1    3    3    0    0  0.32839117537E+02 -0.26239600358E+02 -0.69499673439E+01  0.42605472813E+02  0.00000000000E+00 0. -1.
</event>
<event>
 7    1  0.2490895E-015  0.9000768E+02  0.7816164E-02  0.1186339E+00
        -11   -1    0    0    0    0  0.00000000000E+00  0.00000000000E+00  0.45593999997E+02  0.45594000000E+02  0.51100000000E-03 0. -1.
         11   -1    0    0    0    0 -0.00000000000E+00 -0.00000000000E+00 -0.45593999997E+02  0.45594000000E+02  0.51100000000E-03 0.  1.
    9900012    2    1    2    0    0  0.67096204168E+00 -0.30068971354E+00 -0.92333651819E+00  0.90007680259E+02  0.89999940838E+02 0.  0.
         12    1    1    2    0    0 -0.67096204168E+00  0.30068971354E+00  0.92333651819E+00  0.11803197410E+01  0.00000000000E+00 0. -1.
         11    1    3    3    0    0 -0.26209703841E+02 -0.17779557839E+02 -0.18262950563E+02  0.36559494196E+02  0.51100000000E-03 0. -1.
        -11    1    3    3    0    0 -0.82806793701E+01 -0.48043561455E+00 -0.32633789935E+01  0.89134792268E+01  0.51100000000E-03 0.  1.
        -12    1    3    3    0    0  0.35161345252E+02  0.17959303741E+02  0.20602993038E+02  0.44534706836E+02  0.00000000000E+00 0.  1.
</event>
<event>
 7    1  0.2490895E-015  0.9000824E+02  0.7816164E-02  0.1186338E+00
        -11   -1    0    0    0    0  0.00000000000E+00  0.00000000000E+00  0.45593999997E+02  0.45594000000E+02  0.51100000000E-03 0.  1.
         11   -1    0    0    0    0 -0.00000000000E+00 -0.00000000000E+00 -0.45593999997E+02  0.45594000000E+02  0.51100000000E-03 0. -1.
    9900012    2    1    2    0    0 -0.10339597564E+01 -0.28038388138E+00 -0.49412011588E+00  0.90008236215E+02  0.90000504132E+02 0.  0.
         12    1    1    2    0    0  0.10339597564E+01  0.28038388138E+00  0.49412011588E+00  0.11797637847E+01  0.00000000000E+00 0. -1.
         11    1    3    3    0    0 -0.60579596188E+01 -0.49205298823E+01 -0.65795512501E+01  0.10207888321E+02  0.51100000000E-03 0. -1.
        -11    1    3    3    0    0 -0.18850388446E+02 -0.31122768045E+02  0.10267801370E+00  0.36386458722E+02  0.51100000000E-03 0.  1.
         12    1    3    3    0    0  0.23874388308E+02  0.35762914046E+02  0.59827531205E+01  0.43413889172E+02  0.00000000000E+00 0. -1.
</event>
<event>
 7    1  0.2490895E-015  0.9000758E+02  0.7816164E-02  0.1186339E+00
        -11   -1    0    0    0    0  0.00000000000E+00  0.00000000000E+00  0.45593999997E+02  0.45594000000E+02  0.51100000000E-03 0.  1.
         11   -1    0    0    0    0 -0.00000000000E+00 -0.00000000000E+00 -0.45593999997E+02  0.45594000000E+02  0.51100000000E-03 0. -1.
    9900012    2    1    2    0    0  0.26556554517E+00 -0.96644377640E+00 -0.62357302100E+00  0.90007583995E+02  0.89999843304E+02 0.  0.
         12    1    1    2    0    0 -0.26556554517E+00  0.96644377640E+00  0.62357302100E+00  0.11804160047E+01  0.00000000000E+00 0. -1.
         11    1    3    3    0    0  0.38293512487E+02  0.63413380430E+01 -0.11875685703E+02  0.40591102201E+02  0.51100000000E-03 0. -1.
        -11    1    3    3    0    0 -0.19653002426E+01  0.81342496552E+01 -0.72367188903E+00  0.83995311632E+01  0.51100000000E-03 0.  1.
        -12    1    3    3    0    0 -0.36062646699E+02 -0.15442031475E+02  0.11975784571E+02  0.41016950631E+02  0.00000000000E+00 0.  1.
</event>
<event>
 7    1  0.2490895E-015  0.9000769E+02  0.7816164E-02  0.1186339E+00
        -11   -1    0    0    0    0  0.00000000000E+00  0.00000000000E+00  0.45593999997E+02  0.45594000000E+02  0.51100000000E-03 0.  1.
         11   -1    0    0    0    0 -0.00000000000E+00 -0.00000000000E+00 -0.45593999997E+02  0.45594000000E+02  0.51100000000E-03 0. -1.
    9900012    2    1    2    0    0  0.91371982526E-02  0.99879665897E+00  0.62885880265E+00  0.90007685784E+02  0.89999946437E+02 0.  0.
         12    1    1    2    0    0 -0.91371982526E-02 -0.99879665897E+00 -0.62885880265E+00  0.11803142158E+01  0.00000000000E+00 0. -1.
         11    1    3    3    0    0 -0.36451271791E+02 -0.57979450132E+01 -0.21196454546E+02  0.42562907175E+02  0.51100000000E-03 0. -1.
        -11    1    3    3    0    0  0.89348233211E+01 -0.11967854893E+01 -0.30258014188E+01  0.95088820465E+01  0.51100000000E-03 0.  1.
        -12    1    3    3    0    0  0.27525585668E+02  0.79935271615E+01  0.24851114767E+02  0.37935896563E+02  0.00000000000E+00 0.  1.
</event>
<event>
 7    1  0.2490895E-015  0.9000777E+02  0.7816164E-02  0.1186339E+00
        -11   -1    0    0    0    0  0.00000000000E+00  0.00000000000E+00  0.45593999997E+02  0.45594000000E+02  0.51100000000E-03 0.  1.
         11   -1    0    0    0    0 -0.00000000000E+00 -0.00000000000E+00 -0.45593999997E+02  0.45594000000E+02  0.51100000000E-03 0. -1.
    9900012    2    1    2    0    0 -0.75907224406E-01 -0.76907425842E+00  0.89202094528E+00  0.90007771849E+02  0.90000033637E+02 0.  0.
         12    1    1    2    0    0  0.75907224406E-01  0.76907425842E+00 -0.89202094528E+00  0.11802281510E+01  0.00000000000E+00 0. -1.
         11    1    3    3    0    0 -0.39812981318E+01  0.31657611461E+01 -0.90373857474E+01  0.10370492749E+02  0.51100000000E-03 0. -1.
        -11    1    3    3    0    0  0.37009674851E+02 -0.36186233120E+01 -0.12970271581E+02  0.39383225012E+02  0.51100000000E-03 0.  1.
         12    1    3    3    0    0 -0.33104283943E+02 -0.31621209249E+00  0.22899678273E+02  0.40254054088E+02  0.00000000000E+00 0. -1.
</event>
<event>
 7    1  0.2490895E-015  0.9000771E+02  0.7816164E-02  0.1186339E+00
        -11   -1    0    0    0    0  0.00000000000E+00  0.00000000000E+00  0.45593999997E+02  0.45594000000E+02  0.51100000000E-03 0. -1.
         11   -1    0    0    0    0 -0.00000000000E+00 -0.00000000000E+00 -0.45593999997E+02  0.45594000000E+02  0.51100000000E-03 0.  1.
    9900012    2    1    2    0    0  0.85324024907E+00 -0.73520363222E+00 -0.35290949085E+00  0.90007708336E+02  0.89999969286E+02 0.  0.
         12    1    1    2    0    0 -0.85324024907E+00  0.73520363222E+00  0.35290949085E+00  0.11802916640E+01  0.00000000000E+00 0. -1.
         11    1    3    3    0    0  0.71945502798E+01  0.60301885793E+01 -0.29172493529E+01  0.98303139359E+01  0.51100000000E-03 0. -1.
        -11    1    3    3    0    0 -0.11691369584E+02  0.34314431091E+02  0.11034419380E+02  0.37893623674E+02  0.51100000000E-03 0.  1.
         12    1    3    3    0    0  0.53500595530E+01 -0.41079823302E+02 -0.84700795184E+01  0.42283770726E+02  0.00000000000E+00 0. -1.
</event>
<event>
 7    1  0.2490895E-015  0.9000793E+02  0.7816164E-02  0.1186339E+00
        -11   -1    0    0    0    0  0.00000000000E+00  0.00000000000E+00  0.45593999997E+02  0.45594000000E+02  0.51100000000E-03 0. -1.
         11   -1    0    0    0    0 -0.00000000000E+00 -0.00000000000E+00 -0.45593999997E+02  0.45594000000E+02  0.51100000000E-03 0.  1.
    9900012    2    1    2    0    0  0.40366927689E+00 -0.85122299525E+00 -0.71065639270E+00  0.90007931366E+02  0.90000195260E+02 0.  0.
         12    1    1    2    0    0 -0.40366927689E+00  0.85122299525E+00  0.71065639270E+00  0.11800686341E+01  0.00000000000E+00 0. -1.
         11    1    3    3    0    0 -0.24689113533E+01  0.87468384868E+01  0.25138784121E+00  0.90920791292E+01  0.51100000000E-03 0. -1.
        -11    1    3    3    0    0  0.15598486279E+02 -0.30688623373E+01 -0.38011152269E+02  0.41201679423E+02  0.51100000000E-03 0.  1.
         12    1    3    3    0    0 -0.12725905649E+02 -0.65291991447E+01  0.37049108035E+02  0.39714172813E+02  0.00000000000E+00 0. -1.
</event>
<event>
 7    1  0.2490895E-015  0.9000780E+02  0.7816164E-02  0.1186339E+00
        -11   -1    0    0    0    0  0.00000000000E+00  0.00000000000E+00  0.45593999997E+02  0.45594000000E+02  0.51100000000E-03 0.  1.
         11   -1    0    0    0    0 -0.00000000000E+00 -0.00000000000E+00 -0.45593999997E+02  0.45594000000E+02  0.51100000000E-03 0. -1.
    9900012    2    1    2    0    0  0.85182910609E+00  0.76335056278E+00  0.29080214806E+00  0.90007795443E+02  0.90000057543E+02 0.  0.
         12    1    1    2    0    0 -0.85182910609E+00 -0.76335056278E+00 -0.29080214806E+00  0.11802045573E+01  0.00000000000E+00 0. -1.
         11    1    3    3    0    0  0.51070424446E+01  0.85380212003E+01 -0.54406150788E+00  0.99637187703E+01  0.51100000000E-03 0. -1.
        -11    1    3    3    0    0 -0.35273642884E+02 -0.49661245650E+01  0.22474738139E+02  0.42118952149E+02  0.51100000000E-03 0.  1.
         12    1    3    3    0    0  0.31018429545E+02 -0.28085460725E+01 -0.21639874483E+02  0.37925124523E+02  0.00000000000E+00 0. -1.
</event>
<event>
 7    1  0.2490895E-015  0.9000772E+02  0.7816164E-02  0.1186339E+00
        -11   -1    0    0    0    0  0.00000000000E+00  0.00000000000E+00  0.45593999997E+02  0.45594000000E+02  0.51100000000E-03 0.  1.
         11   -1    0    0    0    0 -0.00000000000E+00 -0.00000000000E+00 -0.45593999997E+02  0.45594000000E+02  0.51100000000E-03 0. -1.
    9900012    2    1    2    0    0  0.61123820257E+00 -0.72264584608E-01  0.10070903921E+01  0.90007718098E+02  0.89999979177E+02 0.  0.
         12    1    1    2    0    0 -0.61123820257E+00  0.72264584608E-01 -0.10070903921E+01  0.11802819020E+01  0.00000000000E+00 0. -1.
         11    1    3    3    0    0 -0.90196937691E+01 -0.86513685860E+01 -0.11226928346E+02  0.16800148048E+02  0.51100000000E-03 0. -1.
        -11    1    3    3    0    0  0.22336545361E+02 -0.54450398680E+01  0.36069386723E+02  0.42773477491E+02  0.51100000000E-03 0.  1.
         12    1    3    3    0    0 -0.12705613389E+02  0.14024143869E+02 -0.23835367985E+02  0.30434092559E+02  0.00000000000E+00 0. -1.
</event>
<event>
 7    1  0.2490895E-015  0.9000769E+02  0.7816164E-02  0.1186339E+00
        -11   -1    0    0    0    0  0.00000000000E+00  0.00000000000E+00  0.45593999997E+02  0.45594000000E+02  0.51100000000E-03 0.  1.
         11   -1    0    0    0    0 -0.00000000000E+00 -0.00000000000E+00 -0.45593999997E+02  0.45594000000E+02  0.51100000000E-03 0. -1.
    9900012    2    1    2    0    0  0.87178530421E+00 -0.77760030838E+00  0.16868789370E+00  0.90007691794E+02  0.89999952525E+02 0.  0.
         12    1    1    2    0    0 -0.87178530421E+00  0.77760030838E+00 -0.16868789370E+00  0.11803082062E+01  0.00000000000E+00 0. -1.
         11    1    3    3    0    0 -0.20739572136E+02  0.13546108803E+02  0.29407348988E+02  0.38450215745E+02  0.51100000000E-03 0. -1.
        -11    1    3    3    0    0 -0.69761843158E+01 -0.76056384015E+01 -0.29456106734E+00  0.10324710630E+02  0.51100000000E-03 0.  1.
        -12    1    3    3    0    0  0.28587541756E+02 -0.67180707097E+01 -0.28944100027E+02  0.41232765419E+02  0.00000000000E+00 0.  1.
</event>
<event>
 7    1  0.2490895E-015  0.9000775E+02  0.7816164E-02  0.1186339E+00
        -11   -1    0    0    0    0  0.00000000000E+00  0.00000000000E+00  0.45593999997E+02  0.45594000000E+02  0.51100000000E-03 0.  1.
         11   -1    0    0    0    0 -0.00000000000E+00 -0.00000000000E+00 -0.45593999997E+02  0.45594000000E+02  0.51100000000E-03 0. -1.
    9900012    2    1    2    0    0 -0.61892888963E+00 -0.49204283848E+00  0.87624911482E+00  0.90007749333E+02  0.90000010824E+02 0.  0.
         12    1    1    2    0    0  0.61892888963E+00  0.49204283848E+00 -0.87624911482E+00  0.11802506668E+01  0.00000000000E+00 0. -1.
         11    1    3    3    0    0  0.26876395991E+01  0.62124061783E+01 -0.56696354360E+01  0.88296185295E+01  0.51100000000E-03 0. -1.
        -11    1    3    3    0    0  0.25915616680E+02 -0.24963271563E+02  0.23295172972E+02  0.42865477941E+02  0.51100000000E-03 0.  1.
         12    1    3    3    0    0 -0.29222185168E+02  0.18258822546E+02 -0.16749288421E+02  0.38312652863E+02  0.00000000000E+00 0. -1.
</event>
<event>
 7    1  0.2490895E-015  0.9000725E+02  0.7816164E-02  0.1186340E+00
        -11   -1    0    0    0    0  0.00000000000E+00  0.00000000000E+00  0.45593999997E+02  0.45594000000E+02  0.51100000000E-03 0. -1.
         11   -1    0    0    0    0 -0.00000000000E+00 -0.00000000000E+00 -0.45593999997E+02  0.45594000000E+02  0.51100000000E-03 0.  1.
    9900012    2    1    2    0    0  0.11033345273E+01  0.39349375567E-01 -0.41865760386E+00  0.90007250390E+02  0.89999505294E+02 0.  0.
         12    1    1    2    0    0 -0.11033345273E+01 -0.39349375567E-01  0.41865760386E+00  0.11807496101E+01  0.00000000000E+00 0. -1.
         11    1    3    3    0    0 -0.56583690230E+01  0.60826410766E+01 -0.41659608541E+01  0.92935941684E+01  0.51100000000E-03 0. -1.
        -11    1    3    3    0    0 -0.31049980439E+02  0.14423918766E+00 -0.18759791229E+02  0.36277429036E+02  0.51100000000E-03 0.  1.
         12    1    3    3    0    0  0.37811683989E+02 -0.61875308887E+01  0.22507094479E+02  0.44436227186E+02  0.00000000000E+00 0. -1.
</event>
<event>
 7    1  0.2490895E-015  0.9000776E+02  0.7816164E-02  0.1186339E+00
        -11   -1    0    0    0    0  0.00000000000E+00  0.00000000000E+00  0.45593999997E+02  0.45594000000E+02  0.51100000000E-03 0. -1.
         11   -1    0    0    0    0 -0.00000000000E+00 -0.00000000000E+00 -0.45593999997E+02  0.45594000000E+02  0.51100000000E-03 0.  1.
    9900012    2    1    2    0    0 -0.11076608325E+01 -0.12567466508E+00 -0.38762497135E+00  0.90007762838E+02  0.90000024507E+02 0.  0.
         12    1    1    2    0    0  0.11076608325E+01  0.12567466508E+00  0.38762497135E+00  0.11802371625E+01  0.00000000000E+00 0. -1.
         11    1    3    3    0    0 -0.28323568017E+02 -0.21375882222E+02  0.18576516917E+02  0.40052962774E+02  0.51100000000E-03 0. -1.
        -11    1    3    3    0    0  0.83312740202E+00  0.66661225885E+01  0.73374188673E+01  0.99483168188E+01  0.51100000000E-03 0.  1.
        -12    1    3    3    0    0  0.26382779782E+02  0.14584084969E+02 -0.26301560755E+02  0.40006483244E+02  0.00000000000E+00 0.  1.
</event>
<event>
 7    1  0.2490895E-015  0.9000770E+02  0.7816164E-02  0.1186339E+00
        -11   -1    0    0    0    0  0.00000000000E+00  0.00000000000E+00  0.45593999997E+02  0.45594000000E+02  0.51100000000E-03 0.  1.
         11   -1    0    0    0    0 -0.00000000000E+00 -0.00000000000E+00 -0.45593999997E+02  0.45594000000E+02  0.51100000000E-03 0. -1.
    9900012    2    1    2    0    0  0.86737721325E+00  0.45949909388E+00  0.65545787111E+00  0.90007700179E+02  0.89999961021E+02 0.  0.
         12    1    1    2    0    0 -0.86737721325E+00 -0.45949909388E+00 -0.65545787111E+00  0.11802998213E+01  0.00000000000E+00 0. -1.
         11    1    3    3    0    0  0.83037620137E+01  0.22905581870E+01  0.40829351270E+01  0.95325484473E+01  0.51100000000E-03 0. -1.
        -11    1    3    3    0    0 -0.34213881293E+02 -0.23796501387E+02  0.10768871356E+02  0.43044532080E+02  0.51100000000E-03 0.  1.
         12    1    3    3    0    0  0.26777496493E+02  0.21965442294E+02 -0.14196348612E+02  0.37430619652E+02  0.00000000000E+00 0. -1.
</event>
<event>
 7    1  0.2490895E-015  0.9000774E+02  0.7816164E-02  0.1186339E+00
        -11   -1    0    0    0    0  0.00000000000E+00  0.00000000000E+00  0.45593999997E+02  0.45594000000E+02  0.51100000000E-03 0. -1.
         11   -1    0    0    0    0 -0.00000000000E+00 -0.00000000000E+00 -0.45593999997E+02  0.45594000000E+02  0.51100000000E-03 0.  1.
    9900012    2    1    2    0    0 -0.79186896021E+00 -0.24644333110E+00 -0.83977838969E+00  0.90007737949E+02  0.89999999290E+02 0.  0.
         12    1    1    2    0    0  0.79186896021E+00  0.24644333110E+00  0.83977838969E+00  0.11802620511E+01  0.00000000000E+00 0. -1.
         11    1    3    3    0    0  0.33367038586E+02 -0.15059744035E+02  0.10174434380E+02  0.37995713833E+02  0.51100000000E-03 0. -1.
        -11    1    3    3    0    0  0.53504183270E+01  0.90664921480E+01 -0.49348575522E+01  0.11626739675E+02  0.51100000000E-03 0.  1.
        -12    1    3    3    0    0 -0.39509325874E+02  0.57468085564E+01 -0.60793552174E+01  0.40385284442E+02  0.00000000000E+00 0.  1.
</event>
<event>
 7    1  0.2490895E-015  0.9000779E+02  0.7816164E-02  0.1186339E+00
        -11   -1    0    0    0    0  0.00000000000E+00  0.00000000000E+00  0.45593999997E+02  0.45594000000E+02  0.51100000000E-03 0.  1.
         11   -1    0    0    0    0 -0.00000000000E+00 -0.00000000000E+00 -0.45593999997E+02  0.45594000000E+02  0.51100000000E-03 0. -1.
    9900012    2    1    2    0    0  0.11751671338E+01 -0.33285739449E-01 -0.10380431256E+00  0.90007787702E+02  0.90000049700E+02 0.  0.
         12    1    1    2    0    0 -0.11751671338E+01  0.33285739449E-01  0.10380431256E+00  0.11802122979E+01  0.00000000000E+00 0. -1.
         11    1    3    3    0    0  0.10692202599E+02 -0.10453536147E+02 -0.37892108694E+02  0.40735875048E+02  0.51100000000E-03 0. -1.
        -11    1    3    3    0    0 -0.34003802996E+00 -0.84231136139E+01  0.35914550852E+01  0.91631336728E+01  0.51100000000E-03 0.  1.
        -12    1    3    3    0    0 -0.91769974349E+01  0.18843364021E+02  0.34196849296E+02  0.40108778981E+02  0.00000000000E+00 0.  1.
</event>
<event>
 7    1  0.2490895E-015  0.9000790E+02  0.7816164E-02  0.1186339E+00
        -11   -1    0    0    0    0  0.00000000000E+00  0.00000000000E+00  0.45593999997E+02  0.45594000000E+02  0.51100000000E-03 0. -1.
         11   -1    0    0    0    0 -0.00000000000E+00 -0.00000000000E+00 -0.45593999997E+02  0.45594000000E+02  0.51100000000E-03 0.  1.
    9900012    2    1    2    0    0 -0.69456737132E+00 -0.92540507463E+00  0.23203922214E+00  0.90007898061E+02  0.90000161515E+02 0.  0.
         12    1    1    2    0    0  0.69456737132E+00  0.92540507463E+00 -0.23203922214E+00  0.11801019388E+01  0.00000000000E+00 0. -1.
         11    1    3    3    0    0 -0.87801893561E+01 -0.41485510341E+01 -0.33225492659E+01  0.10263602423E+02  0.51100000000E-03 0. -1.
        -11    1    3    3    0    0 -0.35993735544E+01 -0.21701457279E+02 -0.29454987986E+02  0.36762821648E+02  0.51100000000E-03 0.  1.
         12    1    3    3    0    0  0.11684995539E+02  0.24924603239E+02  0.33009576474E+02  0.42981473990E+02  0.00000000000E+00 0. -1.
</event>
<event>
 7    1  0.2490895E-015  0.9000772E+02  0.7816164E-02  0.1186339E+00
        -11   -1    0    0    0    0  0.00000000000E+00  0.00000000000E+00  0.45593999997E+02  0.45594000000E+02  0.51100000000E-03 0.  1.
         11   -1    0    0    0    0 -0.00000000000E+00 -0.00000000000E+00 -0.45593999997E+02  0.45594000000E+02  0.51100000000E-03 0. -1.
    9900012    2    1    2    0    0  0.62983181998E+00  0.99772102076E+00 -0.30278236778E-01  0.90007723707E+02  0.89999984860E+02 0.  0.
         12    1    1    2    0    0 -0.62983181998E+00 -0.99772102076E+00  0.30278236778E-01  0.11802762932E+01  0.00000000000E+00 0. -1.
         11    1    3    3    0    0 -0.24607972651E+01  0.26760751723E+01  0.45416191864E+01  0.58174914356E+01  0.51100000000E-03 0. -1.
        -11    1    3    3    0    0 -0.37090017240E+01  0.35601356680E+02  0.18017964277E+02  0.40073187148E+02  0.51100000000E-03 0.  1.
         12    1    3    3    0    0  0.67996308090E+01 -0.37279710831E+02 -0.22589861700E+02  0.44117045124E+02  0.00000000000E+00 0. -1.
</event>
<event>
 7    1  0.2490895E-015  0.9000780E+02  0.7816164E-02  0.1186339E+00
        -11   -1    0    0    0    0  0.00000000000E+00  0.00000000000E+00  0.45593999997E+02  0.45594000000E+02  0.51100000000E-03 0.  1.
         11   -1    0    0    0    0 -0.00000000000E+00 -0.00000000000E+00 -0.45593999997E+02  0.45594000000E+02  0.51100000000E-03 0. -1.
    9900012    2    1    2    0    0 -0.75287420927E+00  0.83472472294E+00  0.35957281886E+00  0.90007797666E+02  0.90000059795E+02 0.  0.
         12    1    1    2    0    0  0.75287420927E+00 -0.83472472294E+00 -0.35957281886E+00  0.11802023344E+01  0.00000000000E+00 0. -1.
         11    1    3    3    0    0  0.30987220016E+02  0.17231475041E+02 -0.16418119750E+02  0.39072831901E+02  0.51100000000E-03 0. -1.
        -11    1    3    3    0    0  0.64202778359E+01 -0.20586308056E+01  0.53253660507E+01  0.85917083353E+01  0.51100000000E-03 0.  1.
        -12    1    3    3    0    0 -0.38160372061E+02 -0.14338119513E+02  0.11452326518E+02  0.42343257429E+02  0.00000000000E+00 0.  1.
</event>
<event>
 7    1  0.2490895E-015  0.9000800E+02  0.7816164E-02  0.1186339E+00
        -11   -1    0    0    0    0  0.00000000000E+00  0.00000000000E+00  0.45593999997E+02  0.45594000000E+02  0.51100000000E-03 0.  1.
         11   -1    0    0    0    0 -0.00000000000E+00 -0.00000000000E+00 -0.45593999997E+02  0.45594000000E+02  0.51100000000E-03 0. -1.
    9900012    2    1    2    0    0 -0.11451376434E+01 -0.11399553872E+00  0.26090492622E+00  0.90007997209E+02  0.90000261972E+02 0.  0.
         12    1    1    2    0    0  0.11451376434E+01  0.11399553872E+00 -0.26090492622E+00  0.11800027906E+01  0.00000000000E+00 0. -1.
         11    1    3    3    0    0 -0.15792452866E+02  0.36385959244E+01 -0.27898048932E+01  0.16444572339E+02  0.51100000000E-03 0. -1.
        -11    1    3    3    0    0  0.15310677010E+02 -0.30674472273E+02 -0.18605027826E+02  0.39006244890E+02  0.51100000000E-03 0.  1.
         12    1    3    3    0    0 -0.66336178741E+00  0.26921880810E+02  0.21655737646E+02  0.34557179980E+02  0.00000000000E+00 0. -1.
</event>
<event>
 7    1  0.3114957E-015  0.9000778E+02  0.7816164E-02  0.1186339E+00
        -11   -1    0    0    0    0  0.00000000000E+00  0.00000000000E+00  0.45593999997E+02  0.45594000000E+02  0.51100000000E-03 0. -1.
         11   -1    0    0    0    0 -0.00000000000E+00 -0.00000000000E+00 -0.45593999997E+02  0.45594000000E+02  0.51100000000E-03 0.  1.
    9900012    2    1    2    0    0 -0.31854702593E+00 -0.42960563740E+00 -0.10520843232E+01  0.90007781955E+02  0.90000043876E+02 0.  0.
         12    1    1    2    0    0  0.31854702593E+00  0.42960563740E+00  0.10520843232E+01  0.11802180453E+01  0.00000000000E+00 0. -1.
         11    1    3    3    0    0 -0.67173230752E+01 -0.33970418571E+02  0.14315326598E+02  0.37470526325E+02  0.51100000000E-03 0. -1.
        -11    1    3    3    0    0  0.77874360626E+01 -0.53949783699E+01  0.23141478389E+01  0.97521911652E+01  0.51100000000E-03 0.  1.
        -12    1    3    3    0    0 -0.13886600133E+01  0.38935791304E+02 -0.17681558760E+02  0.42785064465E+02  0.00000000000E+00 0.  1.
</event>
<event>
 7    1  0.2490895E-015  0.9000791E+02  0.7816164E-02  0.1186339E+00
        -11   -1    0    0    0    0  0.00000000000E+00  0.00000000000E+00  0.45593999997E+02  0.45594000000E+02  0.51100000000E-03 0.  1.
         11   -1    0    0    0    0 -0.00000000000E+00 -0.00000000000E+00 -0.45593999997E+02  0.45594000000E+02  0.51100000000E-03 0. -1.
    9900012    2    1    2    0    0  0.11556903650E+01 -0.23801090321E+00 -0.18464462573E-01  0.90007910874E+02  0.90000174497E+02 0.  0.
         12    1    1    2    0    0 -0.11556903650E+01  0.23801090321E+00  0.18464462573E-01  0.11800891263E+01  0.00000000000E+00 0. -1.
         11    1    3    3    0    0  0.25871185808E+01  0.74607875055E+01 -0.33753752179E+02  0.34665145596E+02  0.51100000000E-03 0. -1.
        -11    1    3    3    0    0 -0.42743699973E+01  0.17349815368E+01 -0.97334960797E+01  0.10771320532E+02  0.51100000000E-03 0.  1.
        -12    1    3    3    0    0  0.28429417816E+01 -0.94337799455E+01  0.43468783796E+02  0.44571444746E+02  0.00000000000E+00 0.  1.
</event>
<event>
 7    1  0.2490895E-015  0.9000775E+02  0.7816164E-02  0.1186339E+00
        -11   -1    0    0    0    0  0.00000000000E+00  0.00000000000E+00  0.45593999997E+02  0.45594000000E+02  0.51100000000E-03 0.  1.
         11   -1    0    0    0    0 -0.00000000000E+00 -0.00000000000E+00 -0.45593999997E+02  0.45594000000E+02  0.51100000000E-03 0. -1.
    9900012    2    1    2    0    0 -0.79780992977E+00 -0.13879349637E+00  0.85861487450E+00  0.90007752644E+02  0.90000014179E+02 0.  0.
         12    1    1    2    0    0  0.79780992977E+00  0.13879349637E+00 -0.85861487450E+00  0.11802473560E+01  0.00000000000E+00 0. -1.
         11    1    3    3    0    0 -0.20026367988E+02  0.17053831342E+02 -0.25745872882E+02  0.36806773140E+02  0.51100000000E-03 0. -1.
        -11    1    3    3    0    0 -0.92085670725E+01  0.41072270640E+01  0.29075351854E+01  0.10493844996E+02  0.51100000000E-03 0.  1.
        -12    1    3    3    0    0  0.28437125131E+02 -0.21299851903E+02  0.23696952571E+02  0.42707134508E+02  0.00000000000E+00 0.  1.
</event>
<event>
 7    1  0.2490895E-015  0.9000769E+02  0.7816164E-02  0.1186339E+00
        -11   -1    0    0    0    0  0.00000000000E+00  0.00000000000E+00  0.45593999997E+02  0.45594000000E+02  0.51100000000E-03 0. -1.
         11   -1    0    0    0    0 -0.00000000000E+00 -0.00000000000E+00 -0.45593999997E+02  0.45594000000E+02  0.51100000000E-03 0.  1.
    9900012    2    1    2    0    0  0.43164494450E+00  0.74352233653E+00 -0.80869571169E+00  0.90007690050E+02  0.89999950759E+02 0.  0.
         12    1    1    2    0    0 -0.43164494450E+00 -0.74352233653E+00  0.80869571169E+00  0.11803099496E+01  0.00000000000E+00 0. -1.
         11    1    3    3    0    0 -0.10170902132E+02  0.35113743563E+02  0.34657532882E+01  0.36721025085E+02  0.51100000000E-03 0. -1.
        -11    1    3    3    0    0  0.22161313102E+01  0.84033834504E+01  0.27950461823E+01  0.91290949618E+01  0.51100000000E-03 0.  1.
        -12    1    3    3    0    0  0.83864157659E+01 -0.42773604677E+02 -0.70694951822E+01  0.44157570003E+02  0.00000000000E+00 0.  1.
</event>
<event>
 7    1  0.2490895E-015  0.9000768E+02  0.7816164E-02  0.1186339E+00
        -11   -1    0    0    0    0  0.00000000000E+00  0.00000000000E+00  0.45593999997E+02  0.45594000000E+02  0.51100000000E-03 0.  1.
         11   -1    0    0    0    0 -0.00000000000E+00 -0.00000000000E+00 -0.45593999997E+02  0.45594000000E+02  0.51100000000E-03 0. -1.
    9900012    2    1    2    0    0  0.49876842496E+00  0.16833913207E+00  0.10564288633E+01  0.90007682268E+02  0.89999942874E+02 0.  0.
         12    1    1    2    0    0 -0.49876842496E+00 -0.16833913207E+00 -0.10564288633E+01  0.11803177319E+01  0.00000000000E+00 0. -1.
         11    1    3    3    0    0  0.26404101201E+01  0.49428514404E+00  0.75077174416E+01  0.79738262365E+01  0.51100000000E-03 0. -1.
        -11    1    3    3    0    0  0.14318523091E+02 -0.28377765109E+02  0.22134179262E+02  0.38732925890E+02  0.51100000000E-03 0.  1.
         12    1    3    3    0    0 -0.16460164786E+02  0.28051819097E+02 -0.28585467840E+02  0.43300930142E+02  0.00000000000E+00 0. -1.
</event>
<event>
 7    1  0.2490895E-015  0.9000770E+02  0.7816164E-02  0.1186339E+00
        -11   -1    0    0    0    0  0.00000000000E+00  0.00000000000E+00  0.45593999997E+02  0.45594000000E+02  0.51100000000E-03 0. -1.
         11   -1    0    0    0    0 -0.00000000000E+00 -0.00000000000E+00 -0.45593999997E+02  0.45594000000E+02  0.51100000000E-03 0.  1.
    9900012    2    1    2    0    0 -0.17353599540E+00 -0.50089701006E+00 -0.10545572956E+01  0.90007701883E+02  0.89999962747E+02 0.  0.
         12    1    1    2    0    0  0.17353599540E+00  0.50089701006E+00  0.10545572956E+01  0.11802981175E+01  0.00000000000E+00 0. -1.
         11    1    3    3    0    0 -0.14691515991E+01  0.41359264177E+02  0.98763355974E+01  0.42547492814E+02  0.51100000000E-03 0. -1.
        -11    1    3    3    0    0 -0.35523325239E+01 -0.74711191967E+01  0.45450640217E+01  0.94389774676E+01  0.51100000000E-03 0.  1.
        -12    1    3    3    0    0  0.48479481275E+01 -0.34389041990E+02 -0.15475956915E+02  0.38021231601E+02  0.00000000000E+00 0.  1.
</event>
<event>
 7    1  0.2490895E-015  0.9000770E+02  0.7816164E-02  0.1186339E+00
        -11   -1    0    0    0    0  0.00000000000E+00  0.00000000000E+00  0.45593999997E+02  0.45594000000E+02  0.51100000000E-03 0.  1.
         11   -1    0    0    0    0 -0.00000000000E+00 -0.00000000000E+00 -0.45593999997E+02  0.45594000000E+02  0.51100000000E-03 0. -1.
    9900012    2    1    2    0    0 -0.20712263574E+00  0.50588215905E+00  0.10460800204E+01  0.90007703447E+02  0.89999964332E+02 0.  0.
         12    1    1    2    0    0  0.20712263574E+00 -0.50588215905E+00 -0.10460800204E+01  0.11802965535E+01  0.00000000000E+00 0. -1.
         11    1    3    3    0    0  0.77602057361E+01 -0.28156493654E+02 -0.23888146172E+02  0.37731319295E+02  0.51100000000E-03 0. -1.
        -11    1    3    3    0    0  0.35627453697E+00  0.40924648483E+01 -0.88055308498E+01  0.97166132931E+01  0.51100000000E-03 0.  1.
        -12    1    3    3    0    0 -0.83236029088E+01  0.24569910965E+02  0.33739757043E+02  0.42559770858E+02  0.00000000000E+00 0.  1.
</event>
<event>
 7    1  0.2490895E-015  0.9000773E+02  0.7816164E-02  0.1186339E+00
        -11   -1    0    0    0    0  0.00000000000E+00  0.00000000000E+00  0.45593999997E+02  0.45594000000E+02  0.51100000000E-03 0.  1.
         11   -1    0    0    0    0 -0.00000000000E+00 -0.00000000000E+00 -0.45593999997E+02  0.45594000000E+02  0.51100000000E-03 0. -1.
    9900012    2    1    2    0    0 -0.72328226187E+00  0.89005849375E+00  0.27873243639E+00  0.90007731758E+02  0.89999993017E+02 0.  0.
         12    1    1    2    0    0  0.72328226187E+00 -0.89005849375E+00 -0.27873243639E+00  0.11802682423E+01  0.00000000000E+00 0. -1.
         11    1    3    3    0    0 -0.12826522935E+01 -0.15641383284E+02 -0.16906616980E+02  0.23067981401E+02  0.51100000000E-03 0. -1.
        -11    1    3    3    0    0 -0.20169053905E+02  0.19476259256E+02 -0.12431355829E+02  0.30670083437E+02  0.51100000000E-03 0.  1.
         12    1    3    3    0    0  0.20728423937E+02 -0.29448174783E+01  0.29616705245E+02  0.36269666920E+02  0.00000000000E+00 0. -1.
</event>
<event>
 7    1  0.2490895E-015  0.9000775E+02  0.7816164E-02  0.1186339E+00
        -11   -1    0    0    0    0  0.00000000000E+00  0.00000000000E+00  0.45593999997E+02  0.45594000000E+02  0.51100000000E-03 0.  1.
         11   -1    0    0    0    0 -0.00000000000E+00 -0.00000000000E+00 -0.45593999997E+02  0.45594000000E+02  0.51100000000E-03 0. -1.
    9900012    2    1    2    0    0  0.60725766907E+00 -0.62222859450E+00  0.79816647176E+00  0.90007745783E+02  0.90000007227E+02 0.  0.
         12    1    1    2    0    0 -0.60725766907E+00  0.62222859450E+00 -0.79816647176E+00  0.11802542171E+01  0.00000000000E+00 0. -1.
         11    1    3    3    0    0 -0.60665231302E+01 -0.21455786485E+02 -0.33419050323E+02  0.40174449608E+02  0.51100000000E-03 0. -1.
        -11    1    3    3    0    0  0.12647084074E+02  0.11901277236E+01  0.40324860490E+01  0.13327643587E+02  0.51100000000E-03 0.  1.
        -12    1    3    3    0    0 -0.59733032752E+01  0.19643430166E+02  0.30184730745E+02  0.36505652588E+02  0.00000000000E+00 0.  1.
</event>
<event>
 7    1  0.2490895E-015  0.9000772E+02  0.7816164E-02  0.1186339E+00
        -11   -1    0    0    0    0  0.00000000000E+00  0.00000000000E+00  0.45593999997E+02  0.45594000000E+02  0.51100000000E-03 0.  1.
         11   -1    0    0    0    0 -0.00000000000E+00 -0.00000000000E+00 -0.45593999997E+02  0.45594000000E+02  0.51100000000E-03 0. -1.
    9900012    2    1    2    0    0 -0.37924582774E+00  0.26781836122E+00  0.10851273556E+01  0.90007722299E+02  0.89999983434E+02 0.  0.
         12    1    1    2    0    0  0.37924582774E+00 -0.26781836122E+00 -0.10851273556E+01  0.11802777005E+01  0.00000000000E+00 0. -1.
         11    1    3    3    0    0  0.12178230122E+01 -0.83533914182E+01 -0.37956850282E+01  0.92557801491E+01  0.51100000000E-03 0. -1.
        -11    1    3    3    0    0  0.97271349428E+00  0.32055538705E+01  0.42513274130E+02  0.42645049240E+02  0.51100000000E-03 0.  1.
         12    1    3    3    0    0 -0.25697823342E+01  0.54156559089E+01 -0.37632461746E+02  0.38106892910E+02  0.00000000000E+00 0. -1.
</event>
<event>
 7    1  0.2490895E-015  0.9000774E+02  0.7816164E-02  0.1186339E+00
        -11   -1    0    0    0    0  0.00000000000E+00  0.00000000000E+00  0.45593999997E+02  0.45594000000E+02  0.51100000000E-03 0.  1.
         11   -1    0    0    0    0 -0.00000000000E+00 -0.00000000000E+00 -0.45593999997E+02  0.45594000000E+02  0.51100000000E-03 0. -1.
    9900012    2    1    2    0    0 -0.80196373706E+00  0.76263201820E+00 -0.41018136173E+00  0.90007744866E+02  0.90000006299E+02 0.  0.
         12    1    1    2    0    0  0.80196373706E+00 -0.76263201820E+00  0.41018136173E+00  0.11802551335E+01  0.00000000000E+00 0. -1.
         11    1    3    3    0    0  0.70947673410E+01 -0.43258453157E+01  0.41672734162E+01  0.92959576862E+01  0.51100000000E-03 0. -1.
        -11    1    3    3    0    0  0.60727163970E+00  0.53397200360E+01  0.37449099385E+02  0.37832742882E+02  0.51100000000E-03 0.  1.
         12    1    3    3    0    0 -0.85040027177E+01 -0.25124270208E+00 -0.42026554163E+02  0.42879044299E+02  0.00000000000E+00 0. -1.
</event>
<event>
 7    1  0.2490895E-015  0.9000774E+02  0.7816164E-02  0.1186339E+00
        -11   -1    0    0    0    0  0.00000000000E+00  0.00000000000E+00  0.45593999997E+02  0.45594000000E+02  0.51100000000E-03 0.  1.
         11   -1    0    0    0    0 -0.00000000000E+00 -0.00000000000E+00 -0.45593999997E+02  0.45594000000E+02  0.51100000000E-03 0. -1.
    9900012    2    1    2    0    0 -0.26369526315E+00  0.23806492874E+00 -0.11255226686E+01  0.90007740969E+02  0.90000002350E+02 0.  0.
         12    1    1    2    0    0  0.26369526315E+00 -0.23806492874E+00  0.11255226686E+01  0.11802590308E+01  0.00000000000E+00 0. -1.
         11    1    3    3    0    0  0.35402915503E+02  0.20360077716E+02 -0.12199935459E+02  0.42623205137E+02  0.51100000000E-03 0. -1.
        -11    1    3    3    0    0 -0.58311400295E+01 -0.44987353541E+01 -0.61153260736E+01  0.95727753070E+01  0.51100000000E-03 0.  1.
        -12    1    3    3    0    0 -0.29835470737E+02 -0.15623277433E+02  0.17189738864E+02  0.37811760525E+02  0.00000000000E+00 0.  1.
</event>
<event>
 7    1  0.2490895E-015  0.9000770E+02  0.7816164E-02  0.1186339E+00
        -11   -1    0    0    0    0  0.00000000000E+00  0.00000000000E+00  0.45593999997E+02  0.45594000000E+02  0.51100000000E-03 0.  1.
         11   -1    0    0    0    0 -0.00000000000E+00 -0.00000000000E+00 -0.45593999997E+02  0.45594000000E+02  0.51100000000E-03 0. -1.
    9900012    2    1    2    0    0 -0.10268841860E+01  0.57083473278E+00 -0.11299310005E+00  0.90007698825E+02  0.89999959649E+02 0.  0.
         12    1    1    2    0    0  0.10268841860E+01 -0.57083473278E+00  0.11299310005E+00  0.11803011752E+01  0.00000000000E+00 0. -1.
         11    1    3    3    0    0  0.22554386553E+01 -0.35056201248E+02 -0.20008166298E+02  0.40427106851E+02  0.51100000000E-03 0. -1.
        -11    1    3    3    0    0 -0.84677701908E+01  0.42351065857E+00 -0.63028003645E+00  0.85017496121E+01  0.51100000000E-03 0.  1.
        -12    1    3    3    0    0  0.51854473495E+01  0.35203525322E+02  0.20525453234E+02  0.41078842362E+02  0.00000000000E+00 0.  1.
</event>
<event>
 7    1  0.2490895E-015  0.9000798E+02  0.7816164E-02  0.1186339E+00
        -11   -1    0    0    0    0  0.00000000000E+00  0.00000000000E+00  0.45593999997E+02  0.45594000000E+02  0.51100000000E-03 0. -1.
         11   -1    0    0    0    0 -0.00000000000E+00 -0.00000000000E+00 -0.45593999997E+02  0.45594000000E+02  0.51100000000E-03 0.  1.
    9900012    2    1    2    0    0  0.54793193764E+00  0.10411110026E+01 -0.91114838498E-01  0.90007981593E+02  0.90000246149E+02 0.  0.
         12    1    1    2    0    0 -0.54793193764E+00 -0.10411110026E+01  0.91114838498E-01  0.11800184074E+01  0.00000000000E+00 0. -1.
         11    1    3    3    0    0  0.27811184744E+02  0.19752152118E+02  0.25510434364E+02  0.42595677854E+02  0.51100000000E-03 0. -1.
        -11    1    3    3    0    0 -0.72818802545E+01  0.46184589922E+01 -0.25005220659E+01  0.89782266827E+01  0.51100000000E-03 0.  1.
        -12    1    3    3    0    0 -0.19981372552E+02 -0.23329500108E+02 -0.23101027136E+02  0.38434077055E+02  0.00000000000E+00 0.  1.
</event>
<event>
 7    1  0.2490895E-015  0.9000771E+02  0.7816164E-02  0.1186339E+00
        -11   -1    0    0    0    0  0.00000000000E+00  0.00000000000E+00  0.45593999997E+02  0.45594000000E+02  0.51100000000E-03 0.  1.
         11   -1    0    0    0    0 -0.00000000000E+00 -0.00000000000E+00 -0.45593999997E+02  0.45594000000E+02  0.51100000000E-03 0. -1.
    9900012    2    1    2    0    0 -0.17603701217E+00  0.10218041688E+01  0.56393018161E+00  0.90007707647E+02  0.89999968588E+02 0.  0.
         12    1    1    2    0    0  0.17603701217E+00 -0.10218041688E+01 -0.56393018161E+00  0.11802923531E+01  0.00000000000E+00 0. -1.
         11    1    3    3    0    0  0.25598185273E+02  0.28446338755E+02 -0.18876675120E+02  0.42670717614E+02  0.51100000000E-03 0. -1.
        -11    1    3    3    0    0  0.17373714816E+01  0.27860082644E+00 -0.21050868503E+01  0.27436233332E+01  0.51100000000E-03 0.  1.
        -12    1    3    3    0    0 -0.27511593767E+02 -0.27703135413E+02  0.21545692152E+02  0.44593366700E+02  0.00000000000E+00 0.  1.
</event>
<event>
 7    1  0.2490895E-015  0.9000778E+02  0.7816164E-02  0.1186339E+00
        -11   -1    0    0    0    0  0.00000000000E+00  0.00000000000E+00  0.45593999997E+02  0.45594000000E+02  0.51100000000E-03 0.  1.
         11   -1    0    0    0    0 -0.00000000000E+00 -0.00000000000E+00 -0.45593999997E+02  0.45594000000E+02  0.51100000000E-03 0. -1.
    9900012    2    1    2    0    0 -0.13313793906E+00 -0.42290827428E+00  0.10937782144E+01  0.90007776334E+02  0.90000038182E+02 0.  0.
         12    1    1    2    0    0  0.13313793906E+00  0.42290827428E+00 -0.10937782144E+01  0.11802236659E+01  0.00000000000E+00 0. -1.
         11    1    3    3    0    0 -0.67677722468E+01 -0.48451673519E+01 -0.32295322176E+02  0.33350655505E+02  0.51100000000E-03 0. -1.
        -11    1    3    3    0    0 -0.71629186931E+01 -0.73550285976E+00 -0.91479263805E+01  0.11641860933E+02  0.51100000000E-03 0.  1.
        -12    1    3    3    0    0  0.13797553001E+02  0.51577619374E+01  0.42537026771E+02  0.45015259896E+02  0.00000000000E+00 0.  1.
</event>
<event>
 7    1  0.2490895E-015  0.9000732E+02  0.7816164E-02  0.1186340E+00
        -11   -1    0    0    0    0  0.00000000000E+00  0.00000000000E+00  0.45593999997E+02  0.45594000000E+02  0.51100000000E-03 0.  1.
         11   -1    0    0    0    0 -0.00000000000E+00 -0.00000000000E+00 -0.45593999997E+02  0.45594000000E+02  0.51100000000E-03 0. -1.
    9900012    2    1    2    0    0 -0.64920922517E+00  0.94087095532E+00  0.29545704402E+00  0.90007319841E+02  0.89999575662E+02 0.  0.
         12    1    1    2    0    0  0.64920922517E+00 -0.94087095532E+00 -0.29545704402E+00  0.11806801588E+01  0.00000000000E+00 0. -1.
         11    1    3    3    0    0 -0.24783752810E+02  0.30065911415E+02 -0.74211829623E+01  0.39664434817E+02  0.51100000000E-03 0. -1.
        -11    1    3    3    0    0 -0.26180160346E+01  0.14301827552E+01  0.92327741057E+01  0.97027598455E+01  0.51100000000E-03 0.  1.
        -12    1    3    3    0    0  0.26752559619E+02 -0.30555223215E+02 -0.15161340994E+01  0.40640125178E+02  0.00000000000E+00 0.  1.
</event>
<event>
 7    1  0.2490895E-015  0.9000777E+02  0.7816164E-02  0.1186339E+00
        -11   -1    0    0    0    0  0.00000000000E+00  0.00000000000E+00  0.45593999997E+02  0.45594000000E+02  0.51100000000E-03 0.  1.
         11   -1    0    0    0    0 -0.00000000000E+00 -0.00000000000E+00 -0.45593999997E+02  0.45594000000E+02  0.51100000000E-03 0. -1.
    9900012    2    1    2    0    0 -0.12381937322E+00  0.52020470868E-01  0.11725637134E+01  0.90007769926E+02  0.90000031689E+02 0.  0.
         12    1    1    2    0    0  0.12381937322E+00 -0.52020470868E-01 -0.11725637134E+01  0.11802300744E+01  0.00000000000E+00 0. -1.
         11    1    3    3    0    0  0.67905197731E+01 -0.55088936670E+01  0.10593507417E+01  0.88080243232E+01  0.51100000000E-03 0. -1.
        -11    1    3    3    0    0 -0.13085591722E+02 -0.33464520683E+02  0.15055034524E+02  0.38958451202E+02  0.51100000000E-03 0.  1.
         12    1    3    3    0    0  0.61712525754E+01  0.39025434821E+02 -0.14941821552E+02  0.42241294401E+02  0.00000000000E+00 0. -1.
</event>
<event>
 7    1  0.3709348E-015  0.9000750E+02  0.7816164E-02  0.1186340E+00
        -11   -1    0    0    0    0  0.00000000000E+00  0.00000000000E+00  0.45593999997E+02  0.45594000000E+02  0.51100000000E-03 0. -1.
         11   -1    0    0    0    0 -0.00000000000E+00 -0.00000000000E+00 -0.45593999997E+02  0.45594000000E+02  0.51100000000E-03 0.  1.
    9900012    2    1    2    0    0 -0.54123039102E+00 -0.50915218298E+00 -0.91728821282E+00  0.90007498434E+02  0.89999756613E+02 0.  0.
         12    1    1    2    0    0  0.54123039102E+00  0.50915218298E+00  0.91728821282E+00  0.11805015658E+01  0.00000000000E+00 0. -1.
         11    1    3    3    0    0 -0.23576790587E+02 -0.26206024327E+02  0.11715506464E+02  0.37146653381E+02  0.51100000000E-03 0. -1.
        -11    1    3    3    0    0 -0.79070517090E+01  0.74485625167E+00  0.49901208854E+01  0.93796366815E+01  0.51100000000E-03 0.  1.
        -12    1    3    3    0    0  0.30942611905E+02  0.24952015892E+02 -0.17622915562E+02  0.43481208372E+02  0.00000000000E+00 0.  1.
</event>
<event>
 7    1  0.2490895E-015  0.9000778E+02  0.7816164E-02  0.1186339E+00
        -11   -1    0    0    0    0  0.00000000000E+00  0.00000000000E+00  0.45593999997E+02  0.45594000000E+02  0.51100000000E-03 0.  1.
         11   -1    0    0    0    0 -0.00000000000E+00 -0.00000000000E+00 -0.45593999997E+02  0.45594000000E+02  0.51100000000E-03 0. -1.
    9900012    2    1    2    0    0 -0.66560348920E+00  0.60080268211E+00  0.76741994284E+00  0.90007777463E+02  0.90000039326E+02 0.  0.
         12    1    1    2    0    0  0.66560348920E+00 -0.60080268211E+00 -0.76741994284E+00  0.11802225368E+01  0.00000000000E+00 0. -1.
         11    1    3    3    0    0 -0.92868051848E+01  0.14240015084E+01 -0.30779361182E+01  0.98866688953E+01  0.51100000000E-03 0. -1.
        -11    1    3    3    0    0  0.76209734095E+01  0.36014556777E+02  0.17578827210E+02  0.40793905205E+02  0.51100000000E-03 0.  1.
         12    1    3    3    0    0  0.10002282861E+01 -0.36837755604E+02 -0.13733471149E+02  0.39327203363E+02  0.00000000000E+00 0. -1.
</event>
<event>
 7    1  0.2490895E-015  0.9000673E+02  0.7816164E-02  0.1186341E+00
        -11   -1    0    0    0    0  0.00000000000E+00  0.00000000000E+00  0.45593999997E+02  0.45594000000E+02  0.51100000000E-03 0.  1.
         11   -1    0    0    0    0 -0.00000000000E+00 -0.00000000000E+00 -0.45593999997E+02  0.45594000000E+02  0.51100000000E-03 0. -1.
    9900012    2    1    2    0    0 -0.69471573783E+00  0.89321293902E+00  0.33901830617E+00  0.90006732578E+02  0.89998980642E+02 0.  0.
         12    1    1    2    0    0  0.69471573783E+00 -0.89321293902E+00 -0.33901830617E+00  0.11812674222E+01  0.00000000000E+00 0. -1.
         11    1    3    3    0    0  0.80619874573E+01 -0.27180466822E+01  0.63502886299E+01  0.10616477074E+02  0.51100000000E-03 0. -1.
        -11    1    3    3    0    0  0.87725229998E+01 -0.28001263417E+02 -0.25008885675E+02  0.38554795755E+02  0.51100000000E-03 0.  1.
         12    1    3    3    0    0 -0.17529226195E+02  0.31612523038E+02  0.18997615352E+02  0.40835459748E+02  0.00000000000E+00 0. -1.
</event>
<event>
 7    1  0.2490895E-015  0.9000727E+02  0.7816164E-02  0.1186340E+00
        -11   -1    0    0    0    0  0.00000000000E+00  0.00000000000E+00  0.45593999997E+02  0.45594000000E+02  0.51100000000E-03 0. -1.
         11   -1    0    0    0    0 -0.00000000000E+00 -0.00000000000E+00 -0.45593999997E+02  0.45594000000E+02  0.51100000000E-03 0.  1.
    9900012    2    1    2    0    0  0.31330343033E+00 -0.83547881665E+00 -0.77326030799E+00  0.90007273361E+02  0.89999528568E+02 0.  0.
         12    1    1    2    0    0 -0.31330343033E+00  0.83547881665E+00  0.77326030799E+00  0.11807266392E+01  0.00000000000E+00 0. -1.
         11    1    3    3    0    0 -0.23178685898E+02  0.55850231537E+01 -0.15041602666E+02  0.28190313488E+02  0.51100000000E-03 0. -1.
        -11    1    3    3    0    0 -0.12504844393E+02 -0.67115571567E+01  0.20850428594E+02  0.25222143160E+02  0.51100000000E-03 0.  1.
         12    1    3    3    0    0  0.35996833721E+02  0.29105518640E+00 -0.65820862363E+01  0.36594816713E+02  0.00000000000E+00 0. -1.
</event>
<event>
 7    1  0.2490895E-015  0.9000782E+02  0.7816164E-02  0.1186339E+00
        -11   -1    0    0    0    0  0.00000000000E+00  0.00000000000E+00  0.45593999997E+02  0.45594000000E+02  0.51100000000E-03 0. -1.
         11   -1    0    0    0    0 -0.00000000000E+00 -0.00000000000E+00 -0.45593999997E+02  0.45594000000E+02  0.51100000000E-03 0.  1.
    9900012    2    1    2    0    0 -0.71632984894E+00 -0.20814972251E-01 -0.93769321609E+00  0.90007817691E+02  0.90000080084E+02 0.  0.
         12    1    1    2    0    0  0.71632984894E+00  0.20814972251E-01  0.93769321609E+00  0.11801823092E+01  0.00000000000E+00 0. -1.
         11    1    3    3    0    0  0.13507000154E+02 -0.18101702814E+02  0.76266215242E+01  0.23838541358E+02  0.51100000000E-03 0. -1.
        -11    1    3    3    0    0  0.89254691378E+01 -0.16691522764E+02  0.88709019337E+01  0.20903679889E+02  0.51100000000E-03 0.  1.
        -12    1    3    3    0    0 -0.23148799141E+02  0.34772410606E+02 -0.17435216674E+02  0.45265596444E+02  0.00000000000E+00 0.  1.
</event>
<event>
 7    1  0.2490895E-015  0.9000785E+02  0.7816164E-02  0.1186339E+00
        -11   -1    0    0    0    0  0.00000000000E+00  0.00000000000E+00  0.45593999997E+02  0.45594000000E+02  0.51100000000E-03 0.  1.
         11   -1    0    0    0    0 -0.00000000000E+00 -0.00000000000E+00 -0.45593999997E+02  0.45594000000E+02  0.51100000000E-03 0. -1.
    9900012    2    1    2    0    0  0.40282754425E+00  0.70744562025E+00  0.85440075765E+00  0.90007851708E+02  0.90000114551E+02 0.  0.
         12    1    1    2    0    0 -0.40282754425E+00 -0.70744562025E+00 -0.85440075765E+00  0.11801482918E+01  0.00000000000E+00 0. -1.
         11    1    3    3    0    0 -0.32277927636E+01  0.73980400818E+01  0.60348739583E+01  0.10078161892E+02  0.51100000000E-03 0. -1.
        -11    1    3    3    0    0 -0.38687717796E+01 -0.56795658474E+01  0.36716884089E+02  0.37354443388E+02  0.51100000000E-03 0.  1.
         12    1    3    3    0    0  0.74993920875E+01 -0.10110286142E+01 -0.41897357290E+02  0.42575246428E+02  0.00000000000E+00 0. -1.
</event>
<event>
 7    1  0.2490895E-015  0.9000773E+02  0.7816164E-02  0.1186339E+00
        -11   -1    0    0    0    0  0.00000000000E+00  0.00000000000E+00  0.45593999997E+02  0.45594000000E+02  0.51100000000E-03 0. -1.
         11   -1    0    0    0    0 -0.00000000000E+00 -0.00000000000E+00 -0.45593999997E+02  0.45594000000E+02  0.51100000000E-03 0.  1.
    9900012    2    1    2    0    0  0.31532124543E+00  0.18208387403E-01 -0.11372289941E+01  0.90007725109E+02  0.89999986281E+02 0.  0.
         12    1    1    2    0    0 -0.31532124543E+00 -0.18208387403E-01  0.11372289941E+01  0.11802748909E+01  0.00000000000E+00 0. -1.
         11    1    3    3    0    0  0.33092703944E+02  0.15194576699E+02  0.12184929824E+02  0.38398889703E+02  0.51100000000E-03 0. -1.
        -11    1    3    3    0    0  0.48513441647E+01  0.43213897892E+01 -0.55009488314E+01  0.85129541418E+01  0.51100000000E-03 0.  1.
        -12    1    3    3    0    0 -0.37628726863E+02 -0.19497758101E+02 -0.78212099871E+01  0.43095881264E+02  0.00000000000E+00 0.  1.
</event>
<event>
 7    1  0.2490895E-015  0.9000771E+02  0.7816164E-02  0.1186339E+00
        -11   -1    0    0    0    0  0.00000000000E+00  0.00000000000E+00  0.45593999997E+02  0.45594000000E+02  0.51100000000E-03 0.  1.
         11   -1    0    0    0    0 -0.00000000000E+00 -0.00000000000E+00 -0.45593999997E+02  0.45594000000E+02  0.51100000000E-03 0. -1.
    9900012    2    1    2    0    0  0.11659479920E+01 -0.45864732935E-01  0.17760834350E+00  0.90007710621E+02  0.89999971602E+02 0.  0.
         12    1    1    2    0    0 -0.11659479920E+01  0.45864732935E-01 -0.17760834350E+00  0.11802893786E+01  0.00000000000E+00 0. -1.
         11    1    3    3    0    0  0.41348364025E+02  0.89281127156E+01 -0.28210252817E+00  0.42302222002E+02  0.51100000000E-03 0. -1.
        -11    1    3    3    0    0 -0.61574880309E+01  0.72439781045E+01  0.28841122493E+01  0.99351890448E+01  0.51100000000E-03 0.  1.
        -12    1    3    3    0    0 -0.34024928002E+02 -0.16217955553E+02 -0.24244013777E+01  0.37770299574E+02  0.00000000000E+00 0.  1.
</event>
<event>
 7    1  0.2490895E-015  0.9000790E+02  0.7816164E-02  0.1186339E+00
        -11   -1    0    0    0    0  0.00000000000E+00  0.00000000000E+00  0.45593999997E+02  0.45594000000E+02  0.51100000000E-03 0. -1.
         11   -1    0    0    0    0 -0.00000000000E+00 -0.00000000000E+00 -0.45593999997E+02  0.45594000000E+02  0.51100000000E-03 0.  1.
    9900012    2    1    2    0    0  0.93953628181E-01  0.35336119913E+00 -0.11220291681E+01  0.90007897939E+02  0.90000161391E+02 0.  0.
         12    1    1    2    0    0 -0.93953628181E-01 -0.35336119913E+00  0.11220291681E+01  0.11801020615E+01  0.00000000000E+00 0. -1.
         11    1    3    3    0    0  0.56685828250E+01  0.50237037372E+01 -0.71858950618E+01  0.10440666578E+02  0.51100000000E-03 0. -1.
        -11    1    3    3    0    0  0.28064772942E+02  0.18600436851E+02  0.16292172236E+02  0.37403777988E+02  0.51100000000E-03 0.  1.
         12    1    3    3    0    0 -0.33639402139E+02 -0.23270779389E+02 -0.10228306343E+02  0.42163453373E+02  0.00000000000E+00 0. -1.
</event>
<event>
 7    1  0.2490895E-015  0.9000777E+02  0.7816164E-02  0.1186339E+00
        -11   -1    0    0    0    0  0.00000000000E+00  0.00000000000E+00  0.45593999997E+02  0.45594000000E+02  0.51100000000E-03 0. -1.
         11   -1    0    0    0    0 -0.00000000000E+00 -0.00000000000E+00 -0.45593999997E+02  0.45594000000E+02  0.51100000000E-03 0.  1.
    9900012    2    1    2    0    0  0.13040067440E+00  0.11637021042E+01  0.14739346710E+00  0.90007774701E+02  0.90000036527E+02 0.  0.
         12    1    1    2    0    0 -0.13040067440E+00 -0.11637021042E+01 -0.14739346710E+00  0.11802252994E+01  0.00000000000E+00 0. -1.
         11    1    3    3    0    0  0.37769739631E+02 -0.20215090809E+00  0.69124042928E+01  0.38397596672E+02  0.51100000000E-03 0. -1.
        -11    1    3    3    0    0  0.17837959040E+01  0.87292502016E+00  0.89498006222E+01  0.91674891522E+01  0.51100000000E-03 0.  1.
        -12    1    3    3    0    0 -0.39423134861E+02  0.49292799216E+00 -0.15714811448E+02  0.42442688877E+02  0.00000000000E+00 0.  1.
</event>
<event>
 7    1  0.2490895E-015  0.9000763E+02  0.7816164E-02  0.1186339E+00
        -11   -1    0    0    0    0  0.00000000000E+00  0.00000000000E+00  0.45593999997E+02  0.45594000000E+02  0.51100000000E-03 0.  1.
         11   -1    0    0    0    0 -0.00000000000E+00 -0.00000000000E+00 -0.45593999997E+02  0.45594000000E+02  0.51100000000E-03 0. -1.
    9900012    2    1    2    0    0  0.47561017802E+00  0.10407119555E+01  0.28978876829E+00  0.90007633978E+02  0.89999893946E+02 0.  0.
         12    1    1    2    0    0 -0.47561017802E+00 -0.10407119555E+01 -0.28978876829E+00  0.11803660220E+01  0.00000000000E+00 0. -1.
         11    1    3    3    0    0  0.12419547222E+02 -0.21360865150E+02 -0.34497704550E+02  0.42433752281E+02  0.51100000000E-03 0. -1.
        -11    1    3    3    0    0 -0.24983090431E+01  0.10331795855E+02  0.12531948588E+01  0.10703179494E+02  0.51100000000E-03 0.  1.
        -12    1    3    3    0    0 -0.94456280012E+01  0.12069781250E+02  0.33534298460E+02  0.36870702203E+02  0.00000000000E+00 0.  1.
</event>
<event>
 7    1  0.2490895E-015  0.9000773E+02  0.7816164E-02  0.1186339E+00
        -11   -1    0    0    0    0  0.00000000000E+00  0.00000000000E+00  0.45593999997E+02  0.45594000000E+02  0.51100000000E-03 0.  1.
         11   -1    0    0    0    0 -0.00000000000E+00 -0.00000000000E+00 -0.45593999997E+02  0.45594000000E+02  0.51100000000E-03 0. -1.
    9900012    2    1    2    0    0  0.55688659032E+00 -0.60862632835E+00  0.84408589486E+00  0.90007733217E+02  0.89999994495E+02 0.  0.
         12    1    1    2    0    0 -0.55688659032E+00  0.60862632835E+00 -0.84408589486E+00  0.11802667834E+01  0.00000000000E+00 0. -1.
         11    1    3    3    0    0 -0.72402245154E+01 -0.67097330183E-02  0.11004834854E+02  0.13172975612E+02  0.51100000000E-03 0. -1.
        -11    1    3    3    0    0 -0.11755343665E+02 -0.12563911917E+02  0.27680883909E+02  0.32592504071E+02  0.51100000000E-03 0.  1.
         12    1    3    3    0    0  0.19552454770E+02  0.11961995322E+02 -0.37841632868E+02  0.44242253534E+02  0.00000000000E+00 0. -1.
</event>
<event>
 7    1  0.2490895E-015  0.9000776E+02  0.7816164E-02  0.1186339E+00
        -11   -1    0    0    0    0  0.00000000000E+00  0.00000000000E+00  0.45593999997E+02  0.45594000000E+02  0.51100000000E-03 0.  1.
         11   -1    0    0    0    0 -0.00000000000E+00 -0.00000000000E+00 -0.45593999997E+02  0.45594000000E+02  0.51100000000E-03 0. -1.
    9900012    2    1    2    0    0  0.39358389625E+00  0.98429836109E+00 -0.51886419862E+00  0.90007757820E+02  0.90000019423E+02 0.  0.
         12    1    1    2    0    0 -0.39358389625E+00 -0.98429836109E+00  0.51886419862E+00  0.11802421801E+01  0.00000000000E+00 0. -1.
         11    1    3    3    0    0 -0.30389670959E+01  0.76946181211E+01  0.52545398187E+01  0.98006457954E+01  0.51100000000E-03 0. -1.
        -11    1    3    3    0    0 -0.13536591213E+01  0.91615267647E+01  0.34993613696E+02  0.36198328213E+02  0.51100000000E-03 0.  1.
         12    1    3    3    0    0  0.47862101134E+01 -0.15871846525E+02 -0.40767017713E+02  0.44008783811E+02  0.00000000000E+00 0. -1.
</event>
<event>
 7    1  0.2490895E-015  0.9000772E+02  0.7816164E-02  0.1186339E+00
        -11   -1    0    0    0    0  0.00000000000E+00  0.00000000000E+00  0.45593999997E+02  0.45594000000E+02  0.51100000000E-03 0.  1.
         11   -1    0    0    0    0 -0.00000000000E+00 -0.00000000000E+00 -0.45593999997E+02  0.45594000000E+02  0.51100000000E-03 0. -1.
    9900012    2    1    2    0    0 -0.79513841787E-01 -0.10115693109E+01  0.60288951670E+00  0.90007715843E+02  0.89999976892E+02 0.  0.
         12    1    1    2    0    0  0.79513841787E-01  0.10115693109E+01 -0.60288951670E+00  0.11802841569E+01  0.00000000000E+00 0. -1.
         11    1    3    3    0    0 -0.53442330523E+01  0.94801197922E+00 -0.53954838858E+01  0.76531562282E+01  0.51100000000E-03 0. -1.
        -11    1    3    3    0    0  0.41380605197E+02  0.11308368018E+02 -0.24285521584E+01  0.42966632863E+02  0.51100000000E-03 0.  1.
         12    1    3    3    0    0 -0.36115885987E+02 -0.13267949308E+02  0.84269255609E+01  0.39387926752E+02  0.00000000000E+00 0. -1.
</event>
<event>
 7    1  0.2490895E-015  0.9000777E+02  0.7816164E-02  0.1186339E+00
        -11   -1    0    0    0    0  0.00000000000E+00  0.00000000000E+00  0.45593999997E+02  0.45594000000E+02  0.51100000000E-03 0. -1.
         11   -1    0    0    0    0 -0.00000000000E+00 -0.00000000000E+00 -0.45593999997E+02  0.45594000000E+02  0.51100000000E-03 0.  1.
    9900012    2    1    2    0    0  0.29293174201E+00 -0.11154411268E+01  0.25086409661E+00  0.90007766672E+02  0.90000028392E+02 0.  0.
         12    1    1    2    0    0 -0.29293174201E+00  0.11154411268E+01 -0.25086409661E+00  0.11802333277E+01  0.00000000000E+00 0. -1.
         11    1    3    3    0    0  0.10523826978E+02 -0.20193671525E+02 -0.15943925518E+02  0.27798274498E+02  0.51100000000E-03 0. -1.
        -11    1    3    3    0    0  0.15628187653E+02 -0.11581596315E+02  0.91113216835E+01  0.21479986164E+02  0.51100000000E-03 0.  1.
         12    1    3    3    0    0 -0.25859082889E+02  0.30659826713E+02  0.70834679308E+01  0.40729506010E+02  0.00000000000E+00 0. -1.
</event>
<event>
 7    1  0.2490895E-015  0.9000780E+02  0.7816164E-02  0.1186339E+00
        -11   -1    0    0    0    0  0.00000000000E+00  0.00000000000E+00  0.45593999997E+02  0.45594000000E+02  0.51100000000E-03 0.  1.
         11   -1    0    0    0    0 -0.00000000000E+00 -0.00000000000E+00 -0.45593999997E+02  0.45594000000E+02  0.51100000000E-03 0. -1.
    9900012    2    1    2    0    0  0.26252217083E+00  0.11488672130E+01 -0.63758204511E-01  0.90007797106E+02  0.90000059227E+02 0.  0.
         12    1    1    2    0    0 -0.26252217083E+00 -0.11488672130E+01  0.63758204511E-01  0.11802028944E+01  0.00000000000E+00 0. -1.
         11    1    3    3    0    0 -0.15741933497E+02 -0.51259818391E+01 -0.36338298939E+02  0.39931893645E+02  0.51100000000E-03 0. -1.
        -11    1    3    3    0    0  0.30504919688E+01  0.89056654827E+01 -0.19647015890E+01  0.96164666867E+01  0.51100000000E-03 0.  1.
        -12    1    3    3    0    0  0.12953963699E+02 -0.26308164305E+01  0.38239242323E+02  0.40459436774E+02  0.00000000000E+00 0.  1.
</event>
<event>
 7    1  0.2490895E-015  0.9000774E+02  0.7816164E-02  0.1186339E+00
        -11   -1    0    0    0    0  0.00000000000E+00  0.00000000000E+00  0.45593999997E+02  0.45594000000E+02  0.51100000000E-03 0.  1.
         11   -1    0    0    0    0 -0.00000000000E+00 -0.00000000000E+00 -0.45593999997E+02  0.45594000000E+02  0.51100000000E-03 0. -1.
    9900012    2    1    2    0    0 -0.60555863424E+00 -0.93945980990E+00  0.37909984722E+00  0.90007744651E+02  0.90000006081E+02 0.  0.
         12    1    1    2    0    0  0.60555863424E+00  0.93945980990E+00 -0.37909984722E+00  0.11802553487E+01  0.00000000000E+00 0. -1.
         11    1    3    3    0    0  0.23175450322E+02  0.12415109438E+02 -0.11891262031E+02  0.28855477001E+02  0.51100000000E-03 0. -1.
        -11    1    3    3    0    0  0.56271377557E+01  0.12402925734E+02 -0.93103506461E+01  0.16497874878E+02  0.51100000000E-03 0.  1.
        -12    1    3    3    0    0 -0.29408146712E+02 -0.25757494982E+02  0.21580712525E+02  0.44654392772E+02  0.00000000000E+00 0.  1.
</event>
<event>
 7    1  0.2490895E-015  0.9000773E+02  0.7816164E-02  0.1186339E+00
        -11   -1    0    0    0    0  0.00000000000E+00  0.00000000000E+00  0.45593999997E+02  0.45594000000E+02  0.51100000000E-03 0.  1.
         11   -1    0    0    0    0 -0.00000000000E+00 -0.00000000000E+00 -0.45593999997E+02  0.45594000000E+02  0.51100000000E-03 0. -1.
    9900012    2    1    2    0    0 -0.75927816088E+00 -0.52459720195E+00  0.73575654665E+00  0.90007727470E+02  0.89999988672E+02 0.  0.
         12    1    1    2    0    0  0.75927816088E+00  0.52459720195E+00 -0.73575654665E+00  0.11802725303E+01  0.00000000000E+00 0. -1.
         11    1    3    3    0    0  0.41509850534E+01  0.58905239527E+00  0.85609066689E+01  0.95324069831E+01  0.51100000000E-03 0. -1.
        -11    1    3    3    0    0 -0.11881427269E+02  0.20921500072E+02  0.28576673374E+02  0.37356441755E+02  0.51100000000E-03 0.  1.
         12    1    3    3    0    0  0.69711640545E+01 -0.22035149669E+02 -0.36401823496E+02  0.43118878732E+02  0.00000000000E+00 0. -1.
</event>
<event>
 7    1  0.2490895E-015  0.9000778E+02  0.7816164E-02  0.1186339E+00
        -11   -1    0    0    0    0  0.00000000000E+00  0.00000000000E+00  0.45593999997E+02  0.45594000000E+02  0.51100000000E-03 0. -1.
         11   -1    0    0    0    0 -0.00000000000E+00 -0.00000000000E+00 -0.45593999997E+02  0.45594000000E+02  0.51100000000E-03 0.  1.
    9900012    2    1    2    0    0  0.11409336075E+01 -0.10370638456E+00  0.28362398657E+00  0.90007776684E+02  0.90000038536E+02 0.  0.
         12    1    1    2    0    0 -0.11409336075E+01  0.10370638456E+00 -0.28362398657E+00  0.11802233164E+01  0.00000000000E+00 0. -1.
         11    1    3    3    0    0 -0.42892094262E+02 -0.73566949987E+00  0.25970642196E+01  0.42976943850E+02  0.51100000000E-03 0. -1.
        -11    1    3    3    0    0  0.35107492505E+01 -0.56959253055E+00  0.46943223003E+01  0.58895210392E+01  0.51100000000E-03 0.  1.
        -12    1    3    3    0    0  0.40522278619E+02  0.12015556459E+01 -0.70077625334E+01  0.41141311795E+02  0.00000000000E+00 0.  1.
</event>
<event>
 7    1  0.2490895E-015  0.9000778E+02  0.7816164E-02  0.1186339E+00
        -11   -1    0    0    0    0  0.00000000000E+00  0.00000000000E+00  0.45593999997E+02  0.45594000000E+02  0.51100000000E-03 0.  1.
         11   -1    0    0    0    0 -0.00000000000E+00 -0.00000000000E+00 -0.45593999997E+02  0.45594000000E+02  0.51100000000E-03 0. -1.
    9900012    2    1    2    0    0  0.31058256355E+00  0.14502400765E+00  0.11293423253E+01  0.90007784944E+02  0.90000046905E+02 0.  0.
         12    1    1    2    0    0 -0.31058256355E+00 -0.14502400765E+00 -0.11293423253E+01  0.11802150563E+01  0.00000000000E+00 0. -1.
         11    1    3    3    0    0  0.26471238266E+02 -0.22829603909E+02 -0.62897287629E+01  0.35517290974E+02  0.51100000000E-03 0. -1.
        -11    1    3    3    0    0  0.33158155865E+01 -0.84896960797E+01 -0.39019330626E+01  0.99143660622E+01  0.51100000000E-03 0.  1.
        -12    1    3    3    0    0 -0.29476471289E+02  0.31464323997E+02  0.11321004151E+02  0.44576127907E+02  0.00000000000E+00 0.  1.
</event>
<event>
 7    1  0.2490895E-015  0.9000780E+02  0.7816164E-02  0.1186339E+00
        -11   -1    0    0    0    0  0.00000000000E+00  0.00000000000E+00  0.45593999997E+02  0.45594000000E+02  0.51100000000E-03 0. -1.
         11   -1    0    0    0    0 -0.00000000000E+00 -0.00000000000E+00 -0.45593999997E+02  0.45594000000E+02  0.51100000000E-03 0.  1.
    9900012    2    1    2    0    0  0.98433235846E+00  0.65105612824E+00 -0.97960658822E-02  0.90007796527E+02  0.90000058641E+02 0.  0.
         12    1    1    2    0    0 -0.98433235846E+00 -0.65105612824E+00  0.97960658822E-02  0.11802034727E+01  0.00000000000E+00 0. -1.
         11    1    3    3    0    0  0.36977602330E+02  0.13731348266E+02 -0.73507811362E+01  0.40123895410E+02  0.51100000000E-03 0. -1.
        -11    1    3    3    0    0  0.17314457374E+01 -0.87467196684E+01 -0.46587849438E+01  0.10060183235E+02  0.51100000000E-03 0.  1.
        -12    1    3    3    0    0 -0.37724715709E+02 -0.43335724696E+01  0.11999770014E+02  0.39823717883E+02  0.00000000000E+00 0.  1.
</event>
<event>
 7    1  0.2490895E-015  0.9000773E+02  0.7816164E-02  0.1186339E+00
        -11   -1    0    0    0    0  0.00000000000E+00  0.00000000000E+00  0.45593999997E+02  0.45594000000E+02  0.51100000000E-03 0. -1.
         11   -1    0    0    0    0 -0.00000000000E+00 -0.00000000000E+00 -0.45593999997E+02  0.45594000000E+02  0.51100000000E-03 0.  1.
    9900012    2    1    2    0    0 -0.16547878232E+00  0.54019522443E+00 -0.10362595090E+01  0.90007733980E+02  0.89999995269E+02 0.  0.
         12    1    1    2    0    0  0.16547878232E+00 -0.54019522443E+00  0.10362595090E+01  0.11802660200E+01  0.00000000000E+00 0. -1.
         11    1    3    3    0    0  0.33482882601E+01  0.15691755784E+01  0.11249923224E+02  0.11842048770E+02  0.51100000000E-03 0. -1.
        -11    1    3    3    0    0  0.26831171682E+02  0.22652289501E+02 -0.17651827173E+02  0.39301717472E+02  0.51100000000E-03 0.  1.
         12    1    3    3    0    0 -0.30344938724E+02 -0.23681269855E+02  0.53656444401E+01  0.38863967738E+02  0.00000000000E+00 0. -1.
</event>
<event>
 7    1  0.2490895E-015  0.9000769E+02  0.7816164E-02  0.1186339E+00
        -11   -1    0    0    0    0  0.00000000000E+00  0.00000000000E+00  0.45593999997E+02  0.45594000000E+02  0.51100000000E-03 0. -1.
         11   -1    0    0    0    0 -0.00000000000E+00 -0.00000000000E+00 -0.45593999997E+02  0.45594000000E+02  0.51100000000E-03 0.  1.
    9900012    2    1    2    0    0  0.56847437551E+00 -0.66262318550E+00 -0.79428558334E+00  0.90007694027E+02  0.89999954788E+02 0.  0.
         12    1    1    2    0    0 -0.56847437551E+00  0.66262318550E+00  0.79428558334E+00  0.11803059728E+01  0.00000000000E+00 0. -1.
         11    1    3    3    0    0 -0.81733339684E+01 -0.36761872905E+01  0.21393659020E+01  0.92138280794E+01  0.51100000000E-03 0. -1.
        -11    1    3    3    0    0  0.38701014492E+02  0.20317966606E+02  0.81512758870E+01  0.44463823369E+02  0.51100000000E-03 0.  1.
         12    1    3    3    0    0 -0.29959206148E+02 -0.17304402501E+02 -0.11084927372E+02  0.36330042579E+02  0.00000000000E+00 0. -1.
</event>
<event>
 7    1  0.2490895E-015  0.9000771E+02  0.7816164E-02  0.1186339E+00
        -11   -1    0    0    0    0  0.00000000000E+00  0.00000000000E+00  0.45593999997E+02  0.45594000000E+02  0.51100000000E-03 0. -1.
         11   -1    0    0    0    0 -0.00000000000E+00 -0.00000000000E+00 -0.45593999997E+02  0.45594000000E+02  0.51100000000E-03 0.  1.
    9900012    2    1    2    0    0 -0.22334851501E+00 -0.10857372821E+01 -0.40541939503E+00  0.90007714064E+02  0.89999975090E+02 0.  0.
         12    1    1    2    0    0  0.22334851501E+00  0.10857372821E+01  0.40541939503E+00  0.11802859360E+01  0.00000000000E+00 0. -1.
         11    1    3    3    0    0 -0.45972533586E+01 -0.76573863924E+01  0.58461255450E+00  0.89505350067E+01  0.51100000000E-03 0. -1.
        -11    1    3    3    0    0 -0.12932988250E+02  0.24676105550E+02 -0.31191235122E+02  0.41821830650E+02  0.51100000000E-03 0.  1.
         12    1    3    3    0    0  0.17306893094E+02 -0.18104456440E+02  0.30201203173E+02  0.39235348407E+02  0.00000000000E+00 0. -1.
</event>
<event>
 7    1  0.2490895E-015  0.9000768E+02  0.7816164E-02  0.1186339E+00
        -11   -1    0    0    0    0  0.00000000000E+00  0.00000000000E+00  0.45593999997E+02  0.45594000000E+02  0.51100000000E-03 0. -1.
         11   -1    0    0    0    0 -0.00000000000E+00 -0.00000000000E+00 -0.45593999997E+02  0.45594000000E+02  0.51100000000E-03 0.  1.
    9900012    2    1    2    0    0 -0.50634174426E+00  0.86404371306E+00 -0.62465903812E+00  0.90007681224E+02  0.89999941816E+02 0.  0.
         12    1    1    2    0    0  0.50634174426E+00 -0.86404371306E+00  0.62465903812E+00  0.11803187764E+01  0.00000000000E+00 0. -1.
         11    1    3    3    0    0  0.80595075053E+01 -0.10290151595E+01 -0.49762780984E+01  0.95277425133E+01  0.51100000000E-03 0. -1.
        -11    1    3    3    0    0  0.35681002437E+02  0.17511982200E+01 -0.19970132949E+01  0.35779724601E+02  0.51100000000E-03 0.  1.
         12    1    3    3    0    0 -0.44246851687E+02  0.14186065259E+00  0.63486323551E+01  0.44700214110E+02  0.00000000000E+00 0. -1.
</event>
<event>
 7    1  0.2490895E-015  0.9000775E+02  0.7816164E-02  0.1186339E+00
        -11   -1    0    0    0    0  0.00000000000E+00  0.00000000000E+00  0.45593999997E+02  0.45594000000E+02  0.51100000000E-03 0. -1.
         11   -1    0    0    0    0 -0.00000000000E+00 -0.00000000000E+00 -0.45593999997E+02  0.45594000000E+02  0.51100000000E-03 0.  1.
    9900012    2    1    2    0    0  0.87702852197E+00 -0.37712561110E-01 -0.78891629054E+00  0.90007749951E+02  0.90000011450E+02 0.  0.
         12    1    1    2    0    0 -0.87702852197E+00  0.37712561110E-01  0.78891629054E+00  0.11802500494E+01  0.00000000000E+00 0. -1.
         11    1    3    3    0    0  0.88546207574E+01  0.36854375669E+01  0.88177089258E+00  0.96314214416E+01  0.51100000000E-03 0. -1.
        -11    1    3    3    0    0  0.33984675764E+02 -0.10316109713E+02  0.88786788199E+01  0.36608895698E+02  0.51100000000E-03 0.  1.
         12    1    3    3    0    0 -0.41962268000E+02  0.65929595845E+01 -0.10549366003E+02  0.43767432811E+02  0.00000000000E+00 0. -1.
</event>
<event>
 7    1  0.2490895E-015  0.9000776E+02  0.7816164E-02  0.1186339E+00
        -11   -1    0    0    0    0  0.00000000000E+00  0.00000000000E+00  0.45593999997E+02  0.45594000000E+02  0.51100000000E-03 0. -1.
         11   -1    0    0    0    0 -0.00000000000E+00 -0.00000000000E+00 -0.45593999997E+02  0.45594000000E+02  0.51100000000E-03 0.  1.
    9900012    2    1    2    0    0  0.64683547405E+00  0.83240510477E+00 -0.53073563785E+00  0.90007756506E+02  0.90000018091E+02 0.  0.
         12    1    1    2    0    0 -0.64683547405E+00 -0.83240510477E+00  0.53073563785E+00  0.11802434945E+01  0.00000000000E+00 0. -1.
         11    1    3    3    0    0  0.23151279139E+02 -0.34045100091E+02 -0.33791148143E+01  0.41309429712E+02  0.51100000000E-03 0. -1.
        -11    1    3    3    0    0  0.14256737717E+00  0.75579462071E+01 -0.85635176860E+01  0.11422640314E+02  0.51100000000E-03 0.  1.
        -12    1    3    3    0    0 -0.22647011042E+02  0.27319558988E+02  0.11411896862E+02  0.37275686479E+02  0.00000000000E+00 0.  1.
</event>
<event>
 7    1  0.2490895E-015  0.9000711E+02  0.7816164E-02  0.1186340E+00
        -11   -1    0    0    0    0  0.00000000000E+00  0.00000000000E+00  0.45593999997E+02  0.45594000000E+02  0.51100000000E-03 0.  1.
         11   -1    0    0    0    0 -0.00000000000E+00 -0.00000000000E+00 -0.45593999997E+02  0.45594000000E+02  0.51100000000E-03 0. -1.
    9900012    2    1    2    0    0  0.31673971358E+00  0.24561142620E+00  0.11107894365E+01  0.90007109577E+02  0.89999362621E+02 0.  0.
         12    1    1    2    0    0 -0.31673971358E+00 -0.24561142620E+00 -0.11107894365E+01  0.11808904230E+01  0.00000000000E+00 0. -1.
         11    1    3    3    0    0  0.28347839143E+02  0.96610233685E+01  0.21461814730E+02  0.36844875470E+02  0.51100000000E-03 0. -1.
        -11    1    3    3    0    0  0.35928175572E+01  0.10244442924E+02 -0.27822241815E+00  0.10859758598E+02  0.51100000000E-03 0.  1.
        -12    1    3    3    0    0 -0.31623916987E+02 -0.19659854866E+02 -0.20072802875E+02  0.42302475510E+02  0.00000000000E+00 0.  1.
</event>
<event>
 7    1  0.2490895E-015  0.9000796E+02  0.7816164E-02  0.1186339E+00
        -11   -1    0    0    0    0  0.00000000000E+00  0.00000000000E+00  0.45593999997E+02  0.45594000000E+02  0.51100000000E-03 0.  1.
         11   -1    0    0    0    0 -0.00000000000E+00 -0.00000000000E+00 -0.45593999997E+02  0.45594000000E+02  0.51100000000E-03 0. -1.
    9900012    2    1    2    0    0  0.27072993124E-01  0.10353417594E+01  0.56552624575E+00  0.90007963797E+02  0.90000228119E+02 0.  0.
         12    1    1    2    0    0 -0.27072993124E-01 -0.10353417594E+01 -0.56552624575E+00  0.11800362030E+01  0.00000000000E+00 0. -1.
         11    1    3    3    0    0  0.74562883007E+01 -0.29186342718E+01  0.86534171763E+01  0.11789668796E+02  0.51100000000E-03 0. -1.
        -11    1    3    3    0    0  0.22915457670E+02  0.16134199047E+02  0.20549940198E+02  0.34752418930E+02  0.51100000000E-03 0.  1.
         12    1    3    3    0    0 -0.30344672977E+02 -0.12180223016E+02 -0.28637831129E+02  0.43465876070E+02  0.00000000000E+00 0. -1.
</event>
<event>
 7    1  0.2490895E-015  0.9000773E+02  0.7816164E-02  0.1186339E+00
        -11   -1    0    0    0    0  0.00000000000E+00  0.00000000000E+00  0.45593999997E+02  0.45594000000E+02  0.51100000000E-03 0.  1.
         11   -1    0    0    0    0 -0.00000000000E+00 -0.00000000000E+00 -0.45593999997E+02  0.45594000000E+02  0.51100000000E-03 0. -1.
    9900012    2    1    2    0    0 -0.32935224900E+00  0.20049593927E+00  0.11155117283E+01  0.90007729717E+02  0.89999990949E+02 0.  0.
         12    1    1    2    0    0  0.32935224900E+00 -0.20049593927E+00 -0.11155117283E+01  0.11802702833E+01  0.00000000000E+00 0. -1.
         11    1    3    3    0    0 -0.87448961753E+01  0.63643013611E+00 -0.46431541739E+01  0.99215489405E+01  0.51100000000E-03 0. -1.
        -11    1    3    3    0    0 -0.19437193612E+02 -0.31957691038E+01  0.34651770023E+02  0.39859285012E+02  0.51100000000E-03 0.  1.
         12    1    3    3    0    0  0.27852737538E+02  0.27598349069E+01 -0.28893104121E+02  0.40226895764E+02  0.00000000000E+00 0. -1.
</event>
<event>
 7    1  0.2490895E-015  0.9000769E+02  0.7816164E-02  0.1186339E+00
        -11   -1    0    0    0    0  0.00000000000E+00  0.00000000000E+00  0.45593999997E+02  0.45594000000E+02  0.51100000000E-03 0.  1.
         11   -1    0    0    0    0 -0.00000000000E+00 -0.00000000000E+00 -0.45593999997E+02  0.45594000000E+02  0.51100000000E-03 0. -1.
    9900012    2    1    2    0    0 -0.96979159659E+00  0.51727884671E+00 -0.43018348858E+00  0.90007690303E+02  0.89999951015E+02 0.  0.
         12    1    1    2    0    0  0.96979159659E+00 -0.51727884671E+00  0.43018348858E+00  0.11803096966E+01  0.00000000000E+00 0. -1.
         11    1    3    3    0    0  0.80005143343E+01  0.13653312331E+01  0.11783474137E+01  0.82012719671E+01  0.51100000000E-03 0. -1.
        -11    1    3    3    0    0 -0.17340914704E+02  0.21461275305E+02  0.30947964869E+02  0.41461671340E+02  0.51100000000E-03 0.  1.
         12    1    3    3    0    0  0.83706087732E+01 -0.22309327691E+02 -0.32556495772E+02  0.40344746996E+02  0.00000000000E+00 0. -1.
</event>
<event>
 7    1  0.2490895E-015  0.9000771E+02  0.7816164E-02  0.1186339E+00
        -11   -1    0    0    0    0  0.00000000000E+00  0.00000000000E+00  0.45593999997E+02  0.45594000000E+02  0.51100000000E-03 0. -1.
         11   -1    0    0    0    0 -0.00000000000E+00 -0.00000000000E+00 -0.45593999997E+02  0.45594000000E+02  0.51100000000E-03 0.  1.
    9900012    2    1    2    0    0 -0.74556739062E+00  0.39896727416E+00 -0.82342867845E+00  0.90007711727E+02  0.89999972721E+02 0.  0.
         12    1    1    2    0    0  0.74556739062E+00 -0.39896727416E+00  0.82342867845E+00  0.11802882734E+01  0.00000000000E+00 0. -1.
         11    1    3    3    0    0  0.49937616336E+01  0.40782625007E+01  0.56019536327E+01  0.85411805415E+01  0.51100000000E-03 0. -1.
        -11    1    3    3    0    0 -0.36990909573E+02 -0.23799220122E+02 -0.19351472686E+01  0.44028116751E+02  0.51100000000E-03 0.  1.
         12    1    3    3    0    0  0.31251580549E+02  0.20119924895E+02 -0.44902350426E+01  0.37438414434E+02  0.00000000000E+00 0. -1.
</event>
<event>
 7    1  0.2666717E-015  0.9000773E+02  0.7816164E-02  0.1186339E+00
        -11   -1    0    0    0    0  0.00000000000E+00  0.00000000000E+00  0.45593999997E+02  0.45594000000E+02  0.51100000000E-03 0.  1.
         11   -1    0    0    0    0 -0.00000000000E+00 -0.00000000000E+00 -0.45593999997E+02  0.45594000000E+02  0.51100000000E-03 0. -1.
    9900012    2    1    2    0    0 -0.43585575156E-01  0.10806269801E+01  0.47262784440E+00  0.90007732466E+02  0.89999993735E+02 0.  0.
         12    1    1    2    0    0  0.43585575156E-01 -0.10806269801E+01 -0.47262784440E+00  0.11802675340E+01  0.00000000000E+00 0. -1.
         11    1    3    3    0    0 -0.16454174149E+02  0.33956749366E+01 -0.31054795479E+02  0.35308225355E+02  0.51100000000E-03 0. -1.
        -11    1    3    3    0    0 -0.75838799088E+01 -0.22105325492E+01 -0.61631295440E+01  0.10019274158E+02  0.51100000000E-03 0.  1.
        -12    1    3    3    0    0  0.23994468483E+02 -0.10451540738E+00  0.37690552868E+02  0.44680232953E+02  0.00000000000E+00 0.  1.
</event>
<event>
 7    1  0.2490895E-015  0.9000775E+02  0.7816164E-02  0.1186339E+00
        -11   -1    0    0    0    0  0.00000000000E+00  0.00000000000E+00  0.45593999997E+02  0.45594000000E+02  0.51100000000E-03 0.  1.
         11   -1    0    0    0    0 -0.00000000000E+00 -0.00000000000E+00 -0.45593999997E+02  0.45594000000E+02  0.51100000000E-03 0. -1.
    9900012    2    1    2    0    0  0.25113662608E+00 -0.28624875160E-01  0.11528647406E+01  0.90007751679E+02  0.90000013201E+02 0.  0.
         12    1    1    2    0    0 -0.25113662608E+00  0.28624875160E-01 -0.11528647406E+01  0.11802483208E+01  0.00000000000E+00 0. -1.
         11    1    3    3    0    0 -0.24015361152E+02 -0.24841939498E+02 -0.17221016496E+02  0.38605996150E+02  0.51100000000E-03 0. -1.
        -11    1    3    3    0    0 -0.24584778294E+01 -0.58329485458E+01  0.64271322678E+01  0.90208331890E+01  0.51100000000E-03 0.  1.
        -12    1    3    3    0    0  0.26724975608E+02  0.30646263169E+02  0.11946748969E+02  0.42380922340E+02  0.00000000000E+00 0.  1.
</event>
<event>
 7    1  0.2872360E-015  0.9000780E+02  0.7816164E-02  0.1186339E+00
        -11   -1    0    0    0    0  0.00000000000E+00  0.00000000000E+00  0.45593999997E+02  0.45594000000E+02  0.51100000000E-03 0.  1.
         11   -1    0    0    0    0 -0.00000000000E+00 -0.00000000000E+00 -0.45593999997E+02  0.45594000000E+02  0.51100000000E-03 0. -1.
    9900012    2    1    2    0    0 -0.25533593589E+00 -0.11268948274E+01  0.24039228883E+00  0.90007797964E+02  0.90000060098E+02 0.  0.
         12    1    1    2    0    0  0.25533593589E+00  0.11268948274E+01 -0.24039228883E+00  0.11802020355E+01  0.00000000000E+00 0. -1.
         11    1    3    3    0    0  0.19950175591E+01  0.35593881122E+02 -0.82087494136E+01  0.36582619310E+02  0.51100000000E-03 0. -1.
        -11    1    3    3    0    0  0.55254354647E+01  0.39588809952E+01 -0.64890410210E+01  0.93973841809E+01  0.51100000000E-03 0.  1.
        -12    1    3    3    0    0 -0.77757889597E+01 -0.40679656945E+02  0.14938182723E+02  0.44027794473E+02  0.00000000000E+00 0.  1.
</event>
<event>
 7    1  0.2490895E-015  0.9000771E+02  0.7816164E-02  0.1186339E+00
        -11   -1    0    0    0    0  0.00000000000E+00  0.00000000000E+00  0.45593999997E+02  0.45594000000E+02  0.51100000000E-03 0.  1.
         11   -1    0    0    0    0 -0.00000000000E+00 -0.00000000000E+00 -0.45593999997E+02  0.45594000000E+02  0.51100000000E-03 0. -1.
    9900012    2    1    2    0    0 -0.62440248119E+00 -0.83069152807E+00  0.55959557036E+00  0.90007714409E+02  0.89999975439E+02 0.  0.
         12    1    1    2    0    0  0.62440248119E+00  0.83069152807E+00 -0.55959557036E+00  0.11802855907E+01  0.00000000000E+00 0. -1.
         11    1    3    3    0    0 -0.99226826103E+01 -0.29719026601E+02 -0.21602106772E+02  0.38056946666E+02  0.51100000000E-03 0. -1.
        -11    1    3    3    0    0 -0.69881622548E+01 -0.45780964781E+01 -0.51088422327E+00  0.83698495813E+01  0.51100000000E-03 0.  1.
        -12    1    3    3    0    0  0.16286442384E+02  0.33466431551E+02  0.22672586565E+02  0.43580918162E+02  0.00000000000E+00 0.  1.
</event>
<event>
 7    1  0.2490895E-015  0.9000798E+02  0.7816164E-02  0.1186339E+00
        -11   -1    0    0    0    0  0.00000000000E+00  0.00000000000E+00  0.45593999997E+02  0.45594000000E+02  0.51100000000E-03 0.  1.
         11   -1    0    0    0    0 -0.00000000000E+00 -0.00000000000E+00 -0.45593999997E+02  0.45594000000E+02  0.51100000000E-03 0. -1.
    9900012    2    1    2    0    0 -0.50547698549E+00  0.94028575432E+00 -0.50278535724E+00  0.90007984153E+02  0.90000248744E+02 0.  0.
         12    1    1    2    0    0  0.50547698549E+00 -0.94028575432E+00  0.50278535724E+00  0.11800158465E+01  0.00000000000E+00 0. -1.
         11    1    3    3    0    0  0.21368786495E+02  0.22242211660E+02  0.10341130716E+02  0.32531215786E+02  0.51100000000E-03 0. -1.
        -11    1    3    3    0    0  0.11463265195E+02 -0.17979084087E+00  0.77620580197E+01  0.13845155060E+02  0.51100000000E-03 0.  1.
        -12    1    3    3    0    0 -0.33337528675E+02 -0.21122135065E+02 -0.18605974093E+02  0.43631613307E+02  0.00000000000E+00 0.  1.
</event>
<event>
 7    1  0.2490895E-015  0.9000766E+02  0.7816164E-02  0.1186339E+00
        -11   -1    0    0    0    0  0.00000000000E+00  0.00000000000E+00  0.45593999997E+02  0.45594000000E+02  0.51100000000E-03 0. -1.
         11   -1    0    0    0    0 -0.00000000000E+00 -0.00000000000E+00 -0.45593999997E+02  0.45594000000E+02  0.51100000000E-03 0.  1.
    9900012    2    1    2    0    0 -0.11970400255E+00  0.56231213486E+00 -0.10308673179E+01  0.90007656231E+02  0.89999916494E+02 0.  0.
         12    1    1    2    0    0  0.11970400255E+00 -0.56231213486E+00  0.10308673179E+01  0.11803437687E+01  0.00000000000E+00 0. -1.
         11    1    3    3    0    0 -0.28579728863E+02  0.12365587984E+02  0.20949048522E+02  0.37530937935E+02  0.51100000000E-03 0. -1.
        -11    1    3    3    0    0 -0.30126835229E+01  0.34232491121E+01  0.61126155952E+01  0.76262026047E+01  0.51100000000E-03 0.  1.
        -12    1    3    3    0    0  0.31472708383E+02 -0.15226524962E+02 -0.28092531435E+02  0.44850515691E+02  0.00000000000E+00 0.  1.
</event>
<event>
 7    1  0.2490895E-015  0.9000775E+02  0.7816164E-02  0.1186339E+00
        -11   -1    0    0    0    0  0.00000000000E+00  0.00000000000E+00  0.45593999997E+02  0.45594000000E+02  0.51100000000E-03 0. -1.
         11   -1    0    0    0    0 -0.00000000000E+00 -0.00000000000E+00 -0.45593999997E+02  0.45594000000E+02  0.51100000000E-03 0.  1.
    9900012    2    1    2    0    0  0.70908346699E+00  0.93982746923E+00 -0.83098998529E-01  0.90007754060E+02  0.90000015614E+02 0.  0.
         12    1    1    2    0    0 -0.70908346699E+00 -0.93982746923E+00  0.83098998529E-01  0.11802459399E+01  0.00000000000E+00 0. -1.
         11    1    3    3    0    0 -0.63462803649E+01 -0.95951857040E+01  0.37187119199E+02  0.38925887244E+02  0.51100000000E-03 0. -1.
        -11    1    3    3    0    0 -0.10138235894E+02  0.13412310385E+01 -0.14904231927E+01  0.10334606392E+02  0.51100000000E-03 0.  1.
        -12    1    3    3    0    0  0.17193599725E+02  0.91937821348E+01 -0.35779795005E+02  0.40747260424E+02  0.00000000000E+00 0.  1.
</event>
<event>
 7    1  0.2490895E-015  0.9000773E+02  0.7816164E-02  0.1186339E+00
        -11   -1    0    0    0    0  0.00000000000E+00  0.00000000000E+00  0.45593999997E+02  0.45594000000E+02  0.51100000000E-03 0. -1.
         11   -1    0    0    0    0 -0.00000000000E+00 -0.00000000000E+00 -0.45593999997E+02  0.45594000000E+02  0.51100000000E-03 0.  1.
    9900012    2    1    2    0    0  0.35570129705E+00 -0.98245942419E+00 -0.54889352482E+00  0.90007731372E+02  0.89999992626E+02 0.  0.
         12    1    1    2    0    0 -0.35570129705E+00  0.98245942419E+00  0.54889352482E+00  0.11802686281E+01  0.00000000000E+00 0. -1.
         11    1    3    3    0    0  0.50341492688E+01  0.44140539421E+01 -0.27211782550E+01  0.72271254604E+01  0.51100000000E-03 0. -1.
        -11    1    3    3    0    0  0.29656172971E+02 -0.19498770811E+02  0.20917917689E+02  0.41197693371E+02  0.51100000000E-03 0.  1.
         12    1    3    3    0    0 -0.34334620943E+02  0.14102257444E+02 -0.18745632959E+02  0.41582912540E+02  0.00000000000E+00 0. -1.
</event>
<event>
 7    1  0.2490895E-015  0.9000763E+02  0.7816164E-02  0.1186339E+00
        -11   -1    0    0    0    0  0.00000000000E+00  0.00000000000E+00  0.45593999997E+02  0.45594000000E+02  0.51100000000E-03 0. -1.
         11   -1    0    0    0    0 -0.00000000000E+00 -0.00000000000E+00 -0.45593999997E+02  0.45594000000E+02  0.51100000000E-03 0.  1.
    9900012    2    1    2    0    0  0.11736308281E+01 -0.10226834482E+00 -0.73489873014E-01  0.90007631881E+02  0.89999891822E+02 0.  0.
         12    1    1    2    0    0 -0.11736308281E+01  0.10226834482E+00  0.73489873014E-01  0.11803681191E+01  0.00000000000E+00 0. -1.
         11    1    3    3    0    0  0.17371611151E+01  0.34908775137E+01  0.88018976171E+01  0.96269079397E+01  0.51100000000E-03 0. -1.
        -11    1    3    3    0    0  0.35083468820E+02  0.13994370595E+02 -0.14040958017E+02  0.40296906768E+02  0.51100000000E-03 0.  1.
         12    1    3    3    0    0 -0.35646999107E+02 -0.17587516454E+02  0.51655705265E+01  0.40083817173E+02  0.00000000000E+00 0. -1.
</event>
<event>
 7    1  0.2490895E-015  0.9000777E+02  0.7816164E-02  0.1186339E+00
        -11   -1    0    0    0    0  0.00000000000E+00  0.00000000000E+00  0.45593999997E+02  0.45594000000E+02  0.51100000000E-03 0.  1.
         11   -1    0    0    0    0 -0.00000000000E+00 -0.00000000000E+00 -0.45593999997E+02  0.45594000000E+02  0.51100000000E-03 0. -1.
    9900012    2    1    2    0    0  0.51341198671E+00 -0.10394953452E+01 -0.22093186495E+00  0.90007765562E+02  0.90000027267E+02 0.  0.
         12    1    1    2    0    0 -0.51341198671E+00  0.10394953452E+01  0.22093186495E+00  0.11802344385E+01  0.00000000000E+00 0. -1.
         11    1    3    3    0    0 -0.34867159602E+01  0.23309468470E+02 -0.34498854320E+02  0.41781089721E+02  0.51100000000E-03 0. -1.
        -11    1    3    3    0    0  0.12095095357E+01  0.43948564480E+01  0.78655759600E+01  0.90909274532E+01  0.51100000000E-03 0.  1.
        -12    1    3    3    0    0  0.27906184112E+01 -0.28743820264E+02  0.26412346495E+02  0.39135748388E+02  0.00000000000E+00 0.  1.
</event>
<event>
 7    1  0.2490895E-015  0.9000764E+02  0.7816164E-02  0.1186339E+00
        -11   -1    0    0    0    0  0.00000000000E+00  0.00000000000E+00  0.45593999997E+02  0.45594000000E+02  0.51100000000E-03 0.  1.
         11   -1    0    0    0    0 -0.00000000000E+00 -0.00000000000E+00 -0.45593999997E+02  0.45594000000E+02  0.51100000000E-03 0. -1.
    9900012    2    1    2    0    0 -0.11247104212E+01  0.23022943195E+00  0.27437548597E+00  0.90007635213E+02  0.89999895198E+02 0.  0.
         12    1    1    2    0    0  0.11247104212E+01 -0.23022943195E+00 -0.27437548597E+00  0.11803647869E+01  0.00000000000E+00 0. -1.
         11    1    3    3    0    0  0.87674519915E+00  0.11031612725E+02  0.40168260278E+01  0.11772852376E+02  0.51100000000E-03 0. -1.
        -11    1    3    3    0    0  0.26291800618E+02 -0.90183465766E+01  0.25346095119E+02  0.37616670410E+02  0.51100000000E-03 0.  1.
         12    1    3    3    0    0 -0.28293256238E+02 -0.17830367164E+01 -0.29088545661E+02  0.40618112427E+02  0.00000000000E+00 0. -1.
</event>
<event>
 7    1  0.2490895E-015  0.9000764E+02  0.7816164E-02  0.1186339E+00
        -11   -1    0    0    0    0  0.00000000000E+00  0.00000000000E+00  0.45593999997E+02  0.45594000000E+02  0.51100000000E-03 0. -1.
         11   -1    0    0    0    0 -0.00000000000E+00 -0.00000000000E+00 -0.45593999997E+02  0.45594000000E+02  0.51100000000E-03 0.  1.
    9900012    2    1    2    0    0 -0.29513695061E+00 -0.11220750499E+01 -0.21702705376E+00  0.90007636082E+02  0.89999896078E+02 0.  0.
         12    1    1    2    0    0  0.29513695061E+00  0.11220750499E+01  0.21702705376E+00  0.11803639182E+01  0.00000000000E+00 0. -1.
         11    1    3    3    0    0 -0.38227183189E+01  0.10551669141E+02  0.13629981382E+01  0.11305249276E+02  0.51100000000E-03 0. -1.
        -11    1    3    3    0    0  0.28463702898E+01 -0.84675936065E+01 -0.39572759959E+02  0.40568525932E+02  0.51100000000E-03 0.  1.
         12    1    3    3    0    0  0.68121107847E+00 -0.32061505842E+01  0.37992734767E+02  0.38133860874E+02  0.00000000000E+00 0. -1.
</event>
<event>
 7    1  0.2490895E-015  0.9000749E+02  0.7816164E-02  0.1186340E+00
        -11   -1    0    0    0    0  0.00000000000E+00  0.00000000000E+00  0.45593999997E+02  0.45594000000E+02  0.51100000000E-03 0. -1.
         11   -1    0    0    0    0 -0.00000000000E+00 -0.00000000000E+00 -0.45593999997E+02  0.45594000000E+02  0.51100000000E-03 0.  1.
    9900012    2    1    2    0    0  0.44944204183E+00 -0.91905213860E+00 -0.58901959734E+00  0.90007492029E+02  0.89999750124E+02 0.  0.
         12    1    1    2    0    0 -0.44944204183E+00  0.91905213860E+00  0.58901959734E+00  0.11805079705E+01  0.00000000000E+00 0. -1.
         11    1    3    3    0    0 -0.63367042776E+01 -0.75630920666E+01 -0.42649813413E+00  0.98760358256E+01  0.51100000000E-03 0. -1.
        -11    1    3    3    0    0 -0.21444031348E+02 -0.27898105569E+02 -0.36972262737E+01  0.35381072018E+02  0.51100000000E-03 0.  1.
         12    1    3    3    0    0  0.28230177668E+02  0.34542145497E+02  0.35347048105E+01  0.44750384186E+02  0.00000000000E+00 0. -1.
</event>
<event>
 7    1  0.2490895E-015  0.9000766E+02  0.7816164E-02  0.1186339E+00
        -11   -1    0    0    0    0  0.00000000000E+00  0.00000000000E+00  0.45593999997E+02  0.45594000000E+02  0.51100000000E-03 0. -1.
         11   -1    0    0    0    0 -0.00000000000E+00 -0.00000000000E+00 -0.45593999997E+02  0.45594000000E+02  0.51100000000E-03 0.  1.
    9900012    2    1    2    0    0  0.65492878737E-01  0.95405857130E+00 -0.69187157197E+00  0.90007659648E+02  0.89999919955E+02 0.  0.
         12    1    1    2    0    0 -0.65492878737E-01 -0.95405857130E+00  0.69187157197E+00  0.11803403521E+01  0.00000000000E+00 0. -1.
         11    1    3    3    0    0  0.35422643229E+01 -0.51237729949E-01 -0.10417800725E+02  0.11003673662E+02  0.51100000000E-03 0. -1.
        -11    1    3    3    0    0 -0.37529975820E+02 -0.97344939541E+01  0.17375308516E+02  0.42487183996E+02  0.51100000000E-03 0.  1.
         12    1    3    3    0    0  0.34053204376E+02  0.10739790255E+02 -0.76493793622E+01  0.36516801991E+02  0.00000000000E+00 0. -1.
</event>
<event>
 7    1  0.2490895E-015  0.9000775E+02  0.7816164E-02  0.1186339E+00
        -11   -1    0    0    0    0  0.00000000000E+00  0.00000000000E+00  0.45593999997E+02  0.45594000000E+02  0.51100000000E-03 0.  1.
         11   -1    0    0    0    0 -0.00000000000E+00 -0.00000000000E+00 -0.45593999997E+02  0.45594000000E+02  0.51100000000E-03 0. -1.
    9900012    2    1    2    0    0  0.58437683985E+00 -0.71744411211E+00  0.73264452054E+00  0.90007749883E+02  0.90000011382E+02 0.  0.
         12    1    1    2    0    0 -0.58437683985E+00  0.71744411211E+00 -0.73264452054E+00  0.11802501169E+01  0.00000000000E+00 0. -1.
         11    1    3    3    0    0  0.17902408105E+01 -0.93815381987E+01  0.53238017899E+01  0.10934399247E+02  0.51100000000E-03 0. -1.
        -11    1    3    3    0    0 -0.22600457641E+02  0.34487800781E+01  0.30212822945E+02  0.37887853465E+02  0.51100000000E-03 0.  1.
         12    1    3    3    0    0  0.21394593670E+02  0.52153140085E+01 -0.34803980214E+02  0.41185497171E+02  0.00000000000E+00 0. -1.
</event>
<event>
 7    1  0.2490895E-015  0.9000783E+02  0.7816164E-02  0.1186339E+00
        -11   -1    0    0    0    0  0.00000000000E+00  0.00000000000E+00  0.45593999997E+02  0.45594000000E+02  0.51100000000E-03 0.  1.
         11   -1    0    0    0    0 -0.00000000000E+00 -0.00000000000E+00 -0.45593999997E+02  0.45594000000E+02  0.51100000000E-03 0. -1.
    9900012    2    1    2    0    0 -0.10988600459E+01 -0.20687261779E+00  0.37749917634E+00  0.90007832508E+02  0.90000095097E+02 0.  0.
         12    1    1    2    0    0  0.10988600459E+01  0.20687261779E+00 -0.37749917634E+00  0.11801674917E+01  0.00000000000E+00 0. -1.
         11    1    3    3    0    0 -0.22143371369E+02  0.23330882164E+02  0.60023746626E+01  0.32721360913E+02  0.51100000000E-03 0. -1.
        -11    1    3    3    0    0 -0.11987693958E+02  0.52422877096E+01  0.22989214023E+00  0.13085841108E+02  0.51100000000E-03 0.  1.
        -12    1    3    3    0    0  0.33032205281E+02 -0.28780042491E+02 -0.58547676265E+01  0.44200630487E+02  0.00000000000E+00 0.  1.
</event>
<event>
 7    1  0.2490895E-015  0.9000776E+02  0.7816164E-02  0.1186339E+00
        -11   -1    0    0    0    0  0.00000000000E+00  0.00000000000E+00  0.45593999997E+02  0.45594000000E+02  0.51100000000E-03 0.  1.
         11   -1    0    0    0    0 -0.00000000000E+00 -0.00000000000E+00 -0.45593999997E+02  0.45594000000E+02  0.51100000000E-03 0. -1.
    9900012    2    1    2    0    0 -0.20414703204E+00  0.10041449048E+01  0.58565180349E+00  0.90007758061E+02  0.90000019667E+02 0.  0.
         12    1    1    2    0    0  0.20414703204E+00 -0.10041449048E+01 -0.58565180349E+00  0.11802419394E+01  0.00000000000E+00 0. -1.
         11    1    3    3    0    0  0.70983532269E+01 -0.22794088614E+02 -0.32863619629E+02  0.40619879242E+02  0.51100000000E-03 0. -1.
        -11    1    3    3    0    0 -0.55047151336E+01  0.48538545300E+01 -0.32668976068E+01  0.80333313597E+01  0.51100000000E-03 0.  1.
        -12    1    3    3    0    0 -0.17977851254E+01  0.18944378988E+02  0.36716169039E+02  0.41354547459E+02  0.00000000000E+00 0.  1.
</event>
<event>
 7    1  0.2490895E-015  0.9000773E+02  0.7816164E-02  0.1186339E+00
        -11   -1    0    0    0    0  0.00000000000E+00  0.00000000000E+00  0.45593999997E+02  0.45594000000E+02  0.51100000000E-03 0.  1.
         11   -1    0    0    0    0 -0.00000000000E+00 -0.00000000000E+00 -0.45593999997E+02  0.45594000000E+02  0.51100000000E-03 0. -1.
    9900012    2    1    2    0    0  0.59116398350E+00 -0.76850985039E+00 -0.67301578811E+00  0.90007732023E+02  0.89999993286E+02 0.  0.
         12    1    1    2    0    0 -0.59116398350E+00  0.76850985039E+00  0.67301578811E+00  0.11802679766E+01  0.00000000000E+00 0. -1.
         11    1    3    3    0    0  0.46711952945E+01  0.69083250099E+01  0.97089933760E+01  0.12798811373E+02  0.51100000000E-03 0. -1.
        -11    1    3    3    0    0 -0.25420100281E+02  0.16076886256E+02  0.17516715695E+02  0.34806365783E+02  0.51100000000E-03 0.  1.
         12    1    3    3    0    0  0.21340068970E+02 -0.23753721117E+02 -0.27898724859E+02  0.42402554868E+02  0.00000000000E+00 0. -1.
</event>
<event>
 7    1  0.2490895E-015  0.9000777E+02  0.7816164E-02  0.1186339E+00
        -11   -1    0    0    0    0  0.00000000000E+00  0.00000000000E+00  0.45593999997E+02  0.45594000000E+02  0.51100000000E-03 0. -1.
         11   -1    0    0    0    0 -0.00000000000E+00 -0.00000000000E+00 -0.45593999997E+02  0.45594000000E+02  0.51100000000E-03 0.  1.
    9900012    2    1    2    0    0 -0.67148722416E+00 -0.96653777169E+00 -0.88679469796E-01  0.90007765106E+02  0.90000026806E+02 0.  0.
         12    1    1    2    0    0  0.67148722416E+00  0.96653777169E+00  0.88679469796E-01  0.11802348939E+01  0.00000000000E+00 0. -1.
         11    1    3    3    0    0 -0.21555107131E+01  0.36110512646E+01  0.90847017048E+01  0.10010880231E+02  0.51100000000E-03 0. -1.
        -11    1    3    3    0    0 -0.30550258242E+02 -0.13036333717E+01 -0.29031825314E+02  0.42164731945E+02  0.51100000000E-03 0.  1.
         12    1    3    3    0    0  0.32034281731E+02 -0.32739556646E+01  0.19858444139E+02  0.37832152931E+02  0.00000000000E+00 0. -1.
</event>
<event>
 7    1  0.2490895E-015  0.9000769E+02  0.7816164E-02  0.1186339E+00
        -11   -1    0    0    0    0  0.00000000000E+00  0.00000000000E+00  0.45593999997E+02  0.45594000000E+02  0.51100000000E-03 0.  1.
         11   -1    0    0    0    0 -0.00000000000E+00 -0.00000000000E+00 -0.45593999997E+02  0.45594000000E+02  0.51100000000E-03 0. -1.
    9900012    2    1    2    0    0 -0.86751871402E+00  0.19029477402E+00  0.77738328102E+00  0.90007692588E+02  0.89999953331E+02 0.  0.
         12    1    1    2    0    0  0.86751871402E+00 -0.19029477402E+00 -0.77738328102E+00  0.11803074116E+01  0.00000000000E+00 0. -1.
         11    1    3    3    0    0  0.15744471029E+00 -0.15958419577E+02  0.73362648566E+01  0.17564644219E+02  0.51100000000E-03 0. -1.
        -11    1    3    3    0    0 -0.18312655061E+02 -0.22849601779E+02 -0.53532777948E+01  0.29767687520E+02  0.51100000000E-03 0.  1.
         12    1    3    3    0    0  0.17287691637E+02  0.38998316131E+02 -0.12056037808E+01  0.42675360849E+02  0.00000000000E+00 0. -1.
</event>
<event>
 7    1  0.2490895E-015  0.9000774E+02  0.7816164E-02  0.1186339E+00
        -11   -1    0    0    0    0  0.00000000000E+00  0.00000000000E+00  0.45593999997E+02  0.45594000000E+02  0.51100000000E-03 0. -1.
         11   -1    0    0    0    0 -0.00000000000E+00 -0.00000000000E+00 -0.45593999997E+02  0.45594000000E+02  0.51100000000E-03 0.  1.
    9900012    2    1    2    0    0  0.89832844864E+00 -0.21884809877E+00 -0.73356607676E+00  0.90007742536E+02  0.90000003938E+02 0.  0.
         12    1    1    2    0    0 -0.89832844864E+00  0.21884809877E+00  0.73356607676E+00  0.11802574638E+01  0.00000000000E+00 0. -1.
         11    1    3    3    0    0  0.81181302069E+01  0.41653709323E+01 -0.37657862013E+00  0.91321500633E+01  0.51100000000E-03 0. -1.
        -11    1    3    3    0    0 -0.35562228340E+02 -0.14560938542E+02  0.21156075309E+02  0.43866530960E+02  0.51100000000E-03 0.  1.
         12    1    3    3    0    0  0.28342426581E+02  0.10176719511E+02 -0.21513062765E+02  0.37009061513E+02  0.00000000000E+00 0. -1.
</event>
<event>
 7    1  0.2490895E-015  0.9000776E+02  0.7816164E-02  0.1186339E+00
        -11   -1    0    0    0    0  0.00000000000E+00  0.00000000000E+00  0.45593999997E+02  0.45594000000E+02  0.51100000000E-03 0.  1.
         11   -1    0    0    0    0 -0.00000000000E+00 -0.00000000000E+00 -0.45593999997E+02  0.45594000000E+02  0.51100000000E-03 0. -1.
    9900012    2    1    2    0    0  0.48443931595E+00  0.10157888176E+01  0.35561054297E+00  0.90007759672E+02  0.90000021300E+02 0.  0.
         12    1    1    2    0    0 -0.48443931595E+00 -0.10157888176E+01 -0.35561054297E+00  0.11802403277E+01  0.00000000000E+00 0. -1.
         11    1    3    3    0    0  0.17323358198E+02  0.25662621784E+02  0.11541800493E+02  0.33043638646E+02  0.51100000000E-03 0. -1.
        -11    1    3    3    0    0  0.10366269393E+02  0.66967801199E+01  0.36803248247E+01  0.12878322724E+02  0.51100000000E-03 0.  1.
        -12    1    3    3    0    0 -0.27205188276E+02 -0.31343613086E+02 -0.14866514775E+02  0.44085798302E+02  0.00000000000E+00 0.  1.
</event>
<event>
 7    1  0.2490895E-015  0.9000763E+02  0.7816164E-02  0.1186339E+00
        -11   -1    0    0    0    0  0.00000000000E+00  0.00000000000E+00  0.45593999997E+02  0.45594000000E+02  0.51100000000E-03 0.  1.
         11   -1    0    0    0    0 -0.00000000000E+00 -0.00000000000E+00 -0.45593999997E+02  0.45594000000E+02  0.51100000000E-03 0. -1.
    9900012    2    1    2    0    0  0.10600112375E+01 -0.32618089316E+00  0.40405847477E+00  0.90007626733E+02  0.89999886606E+02 0.  0.
         12    1    1    2    0    0 -0.10600112375E+01  0.32618089316E+00 -0.40405847477E+00  0.11803732671E+01  0.00000000000E+00 0. -1.
         11    1    3    3    0    0  0.10413588324E+02 -0.79989287583E+01  0.74480364008E+01  0.15096321722E+02  0.51100000000E-03 0. -1.
        -11    1    3    3    0    0  0.15699229116E+02 -0.13429811709E+02  0.22680085994E+02  0.30679177602E+02  0.51100000000E-03 0.  1.
         12    1    3    3    0    0 -0.25052806202E+02  0.21102559574E+02 -0.29724063920E+02  0.44232127409E+02  0.00000000000E+00 0. -1.
</event>
<event>
 7    1  0.2490895E-015  0.9000778E+02  0.7816164E-02  0.1186339E+00
        -11   -1    0    0    0    0  0.00000000000E+00  0.00000000000E+00  0.45593999997E+02  0.45594000000E+02  0.51100000000E-03 0. -1.
         11   -1    0    0    0    0 -0.00000000000E+00 -0.00000000000E+00 -0.45593999997E+02  0.45594000000E+02  0.51100000000E-03 0.  1.
    9900012    2    1    2    0    0  0.74655594894E+00 -0.76130463821E+00 -0.50595820133E+00  0.90007777886E+02  0.90000039754E+02 0.  0.
         12    1    1    2    0    0 -0.74655594894E+00  0.76130463821E+00  0.50595820133E+00  0.11802221141E+01  0.00000000000E+00 0. -1.
         11    1    3    3    0    0 -0.94366785795E+01  0.79318656977E+01 -0.53431129826E+01  0.13435559261E+02  0.51100000000E-03 0. -1.
        -11    1    3    3    0    0 -0.21740190461E+02 -0.48254520988E+01 -0.24454164014E+02  0.33074567376E+02  0.51100000000E-03 0.  1.
         12    1    3    3    0    0  0.31923424989E+02 -0.38677182370E+01  0.29291318795E+02  0.43497651249E+02  0.00000000000E+00 0. -1.
</event>
<event>
 7    1  0.2490895E-015  0.9000762E+02  0.7816164E-02  0.1186339E+00
        -11   -1    0    0    0    0  0.00000000000E+00  0.00000000000E+00  0.45593999997E+02  0.45594000000E+02  0.51100000000E-03 0. -1.
         11   -1    0    0    0    0 -0.00000000000E+00 -0.00000000000E+00 -0.45593999997E+02  0.45594000000E+02  0.51100000000E-03 0.  1.
    9900012    2    1    2    0    0  0.86118343995E+00  0.76178338089E+00 -0.26710000011E+00  0.90007621566E+02  0.89999881371E+02 0.  0.
         12    1    1    2    0    0 -0.86118343995E+00 -0.76178338089E+00  0.26710000011E+00  0.11803784337E+01  0.00000000000E+00 0. -1.
         11    1    3    3    0    0  0.33385327543E+01  0.27336305312E+02  0.24982480479E+02  0.37182572802E+02  0.51100000000E-03 0. -1.
        -11    1    3    3    0    0  0.13090434661E+02 -0.21435475602E+01  0.15569536890E+01  0.13355836956E+02  0.51100000000E-03 0.  1.
        -12    1    3    3    0    0 -0.15567783975E+02 -0.24430974371E+02 -0.26806534168E+02  0.39469211808E+02  0.00000000000E+00 0.  1.
</event>
<event>
 7    1  0.2490895E-015  0.9000778E+02  0.7816164E-02  0.1186339E+00
        -11   -1    0    0    0    0  0.00000000000E+00  0.00000000000E+00  0.45593999997E+02  0.45594000000E+02  0.51100000000E-03 0.  1.
         11   -1    0    0    0    0 -0.00000000000E+00 -0.00000000000E+00 -0.45593999997E+02  0.45594000000E+02  0.51100000000E-03 0. -1.
    9900012    2    1    2    0    0 -0.69756311156E+00  0.92536251687E+00 -0.22367610545E+00  0.90007779223E+02  0.90000041109E+02 0.  0.
         12    1    1    2    0    0  0.69756311156E+00 -0.92536251687E+00  0.22367610545E+00  0.11802207770E+01  0.00000000000E+00 0. -1.
         11    1    3    3    0    0 -0.10024731025E+01  0.14932138070E+01  0.45633794016E+01  0.49050047522E+01  0.51100000000E-03 0. -1.
        -11    1    3    3    0    0 -0.37123019202E+02 -0.26084090395E+01  0.17892154419E+02  0.41292269766E+02  0.51100000000E-03 0.  1.
         12    1    3    3    0    0  0.37427929193E+02  0.20405577494E+01 -0.22679209926E+02  0.43810504705E+02  0.00000000000E+00 0. -1.
</event>
<event>
 7    1  0.2490895E-015  0.9000770E+02  0.7816164E-02  0.1186339E+00
        -11   -1    0    0    0    0  0.00000000000E+00  0.00000000000E+00  0.45593999997E+02  0.45594000000E+02  0.51100000000E-03 0.  1.
         11   -1    0    0    0    0 -0.00000000000E+00 -0.00000000000E+00 -0.45593999997E+02  0.45594000000E+02  0.51100000000E-03 0. -1.
    9900012    2    1    2    0    0 -0.86751710725E+00 -0.58013236071E-01  0.79822669471E+00  0.90007696089E+02  0.89999956877E+02 0.  0.
         12    1    1    2    0    0  0.86751710725E+00  0.58013236071E-01 -0.79822669471E+00  0.11803039113E+01  0.00000000000E+00 0. -1.
         11    1    3    3    0    0  0.66488156637E+01  0.20494389782E+02 -0.29933157743E+02  0.36881169924E+02  0.51100000000E-03 0. -1.
        -11    1    3    3    0    0  0.55030958810E+01 -0.26321142786E+01 -0.70548735688E+01  0.93264854680E+01  0.51100000000E-03 0.  1.
        -12    1    3    3    0    0 -0.13019428652E+02 -0.17920288739E+02  0.37786258006E+02  0.43800040697E+02  0.00000000000E+00 0.  1.
</event>
<event>
 7    1  0.2549723E-015  0.9000774E+02  0.7816164E-02  0.1186339E+00
        -11   -1    0    0    0    0  0.00000000000E+00  0.00000000000E+00  0.45593999997E+02  0.45594000000E+02  0.51100000000E-03 0. -1.
         11   -1    0    0    0    0 -0.00000000000E+00 -0.00000000000E+00 -0.45593999997E+02  0.45594000000E+02  0.51100000000E-03 0.  1.
    9900012    2    1    2    0    0 -0.76571455245E+00  0.78018907248E+00  0.44496661233E+00  0.90007741956E+02  0.90000003350E+02 0.  0.
         12    1    1    2    0    0  0.76571455245E+00 -0.78018907248E+00 -0.44496661233E+00  0.11802580441E+01  0.00000000000E+00 0. -1.
         11    1    3    3    0    0  0.36434504221E+02  0.15854198477E+02  0.72316963575E+01  0.40387202672E+02  0.51100000000E-03 0. -1.
        -11    1    3    3    0    0 -0.50859854612E+01  0.62157179916E+01  0.48366920476E+01  0.93752860483E+01  0.51100000000E-03 0.  1.
        -12    1    3    3    0    0 -0.32114233313E+02 -0.21289727396E+02 -0.11623421793E+02  0.40245253236E+02  0.00000000000E+00 0.  1.
</event>
<event>
 7    1  0.2490895E-015  0.9000777E+02  0.7816164E-02  0.1186339E+00
        -11   -1    0    0    0    0  0.00000000000E+00  0.00000000000E+00  0.45593999997E+02  0.45594000000E+02  0.51100000000E-03 0.  1.
         11   -1    0    0    0    0 -0.00000000000E+00 -0.00000000000E+00 -0.45593999997E+02  0.45594000000E+02  0.51100000000E-03 0. -1.
    9900012    2    1    2    0    0  0.84084738192E+00 -0.43678566961E+00  0.70366156736E+00  0.90007768818E+02  0.90000030567E+02 0.  0.
         12    1    1    2    0    0 -0.84084738192E+00  0.43678566961E+00 -0.70366156736E+00  0.11802311817E+01  0.00000000000E+00 0. -1.
         11    1    3    3    0    0  0.91184821957E+01 -0.14691887081E+01 -0.32645466261E+01  0.97960450156E+01  0.51100000000E-03 0. -1.
        -11    1    3    3    0    0  0.16447873181E+02  0.33334152838E+02  0.11356995414E+02  0.38867462262E+02  0.51100000000E-03 0.  1.
         12    1    3    3    0    0 -0.24725507995E+02 -0.32301749800E+02 -0.73887872201E+01  0.41344261540E+02  0.00000000000E+00 0. -1.
</event>
<event>
 7    1  0.2490895E-015  0.9000772E+02  0.7816164E-02  0.1186339E+00
        -11   -1    0    0    0    0  0.00000000000E+00  0.00000000000E+00  0.45593999997E+02  0.45594000000E+02  0.51100000000E-03 0.  1.
         11   -1    0    0    0    0 -0.00000000000E+00 -0.00000000000E+00 -0.45593999997E+02  0.45594000000E+02  0.51100000000E-03 0. -1.
    9900012    2    1    2    0    0  0.57014632075E+00 -0.47314510813E+00  0.91876176703E+00  0.90007721937E+02  0.89999983067E+02 0.  0.
         12    1    1    2    0    0 -0.57014632075E+00  0.47314510813E+00 -0.91876176703E+00  0.11802780626E+01  0.00000000000E+00 0. -1.
         11    1    3    3    0    0 -0.12694215516E+02 -0.31552547162E+00  0.98276869022E-01  0.12698516547E+02  0.51100000000E-03 0. -1.
        -11    1    3    3    0    0 -0.14206229995E+02 -0.11891939698E+02  0.30187673274E+02  0.35419356549E+02  0.51100000000E-03 0.  1.
         12    1    3    3    0    0  0.27470591831E+02  0.11734320061E+02 -0.29367188376E+02  0.41889848841E+02  0.00000000000E+00 0. -1.
</event>
<event>
 7    1  0.2490895E-015  0.9000799E+02  0.7816164E-02  0.1186339E+00
        -11   -1    0    0    0    0  0.00000000000E+00  0.00000000000E+00  0.45593999997E+02  0.45594000000E+02  0.51100000000E-03 0.  1.
         11   -1    0    0    0    0 -0.00000000000E+00 -0.00000000000E+00 -0.45593999997E+02  0.45594000000E+02  0.51100000000E-03 0. -1.
    9900012    2    1    2    0    0 -0.33702586797E+00 -0.11303533204E+01 -0.33646186315E-01  0.90007992741E+02  0.90000257445E+02 0.  0.
         12    1    1    2    0    0  0.33702586797E+00  0.11303533204E+01  0.33646186315E-01  0.11800072587E+01  0.00000000000E+00 0. -1.
         11    1    3    3    0    0  0.34401574624E+02  0.88484108000E+01 -0.23169104441E+02  0.42409552121E+02  0.51100000000E-03 0. -1.
        -11    1    3    3    0    0 -0.54068572235E+00 -0.10185735740E+01  0.97170951478E+01  0.97852834168E+01  0.51100000000E-03 0.  1.
        -12    1    3    3    0    0 -0.34197914769E+02 -0.89601905464E+01  0.13418363107E+02  0.37813157203E+02  0.00000000000E+00 0.  1.
</event>
<event>
 7    1  0.2490895E-015  0.9000773E+02  0.7816164E-02  0.1186339E+00
        -11   -1    0    0    0    0  0.00000000000E+00  0.00000000000E+00  0.45593999997E+02  0.45594000000E+02  0.51100000000E-03 0.  1.
         11   -1    0    0    0    0 -0.00000000000E+00 -0.00000000000E+00 -0.45593999997E+02  0.45594000000E+02  0.51100000000E-03 0. -1.
    9900012    2    1    2    0    0 -0.92185076128E+00  0.15496177315E+00  0.72057037334E+00  0.90007727303E+02  0.89999988503E+02 0.  0.
         12    1    1    2    0    0  0.92185076128E+00 -0.15496177315E+00 -0.72057037334E+00  0.11802726974E+01  0.00000000000E+00 0. -1.
         11    1    3    3    0    0  0.75249512907E+01  0.48256624391E+01  0.17147396514E+01  0.91023207061E+01  0.51100000000E-03 0. -1.
        -11    1    3    3    0    0  0.27929379893E+02  0.19563676952E+02 -0.11435311607E+02  0.35966012691E+02  0.51100000000E-03 0.  1.
         12    1    3    3    0    0 -0.36376181945E+02 -0.24234377618E+02  0.10441142329E+02  0.44939393905E+02  0.00000000000E+00 0. -1.
</event>
<event>
 7    1  0.2490895E-015  0.9000779E+02  0.7816164E-02  0.1186339E+00
        -11   -1    0    0    0    0  0.00000000000E+00  0.00000000000E+00  0.45593999997E+02  0.45594000000E+02  0.51100000000E-03 0. -1.
         11   -1    0    0    0    0 -0.00000000000E+00 -0.00000000000E+00 -0.45593999997E+02  0.45594000000E+02  0.51100000000E-03 0.  1.
    9900012    2    1    2    0    0 -0.95250392530E+00  0.69640605404E+00  0.25364663891E-01  0.90007793033E+02  0.90000055101E+02 0.  0.
         12    1    1    2    0    0  0.95250392530E+00 -0.69640605404E+00 -0.25364663891E-01  0.11802069674E+01  0.00000000000E+00 0. -1.
         11    1    3    3    0    0 -0.22725467792E+02  0.27382007911E+02 -0.13789755724E+02  0.38162528831E+02  0.51100000000E-03 0. -1.
        -11    1    3    3    0    0  0.13239438000E+01  0.52685247524E+00 -0.10128496726E+02  0.10228237722E+02  0.51100000000E-03 0.  1.
        -12    1    3    3    0    0  0.20449020066E+02 -0.27212454332E+02  0.23943617114E+02  0.41617026479E+02  0.00000000000E+00 0.  1.
</event>
<event>
 7    1  0.2490895E-015  0.9000775E+02  0.7816164E-02  0.1186339E+00
        -11   -1    0    0    0    0  0.00000000000E+00  0.00000000000E+00  0.45593999997E+02  0.45594000000E+02  0.51100000000E-03 0. -1.
         11   -1    0    0    0    0 -0.00000000000E+00 -0.00000000000E+00 -0.45593999997E+02  0.45594000000E+02  0.51100000000E-03 0.  1.
    9900012    2    1    2    0    0 -0.53147702846E+00  0.57947237038E-01 -0.10522186701E+01  0.90007750093E+02  0.90000011594E+02 0.  0.
         12    1    1    2    0    0  0.53147702846E+00 -0.57947237038E-01  0.10522186701E+01  0.11802499073E+01  0.00000000000E+00 0. -1.
         11    1    3    3    0    0 -0.23565842186E+02 -0.29057680014E+02  0.94535890973E+01  0.38588444291E+02  0.51100000000E-03 0. -1.
        -11    1    3    3    0    0  0.19060614631E+01 -0.68170757638E+01 -0.63836621245E+01  0.95318799117E+01  0.51100000000E-03 0.  1.
        -12    1    3    3    0    0  0.21128303695E+02  0.35932703015E+02 -0.41221456428E+01  0.41887425890E+02  0.00000000000E+00 0.  1.
</event>
<event>
 7    1  0.2490895E-015  0.9000783E+02  0.7816164E-02  0.1186339E+00
        -11   -1    0    0    0    0  0.00000000000E+00  0.00000000000E+00  0.45593999997E+02  0.45594000000E+02  0.51100000000E-03 0.  1.
         11   -1    0    0    0    0 -0.00000000000E+00 -0.00000000000E+00 -0.45593999997E+02  0.45594000000E+02  0.51100000000E-03 0. -1.
    9900012    2    1    2    0    0  0.74185773949E+00  0.89010930976E+00  0.22394199061E+00  0.90007831578E+02  0.90000094155E+02 0.  0.
         12    1    1    2    0    0 -0.74185773949E+00 -0.89010930976E+00 -0.22394199061E+00  0.11801684219E+01  0.00000000000E+00 0. -1.
         11    1    3    3    0    0 -0.13256768760E+01 -0.40386035472E+01 -0.73469421170E+01  0.84879500777E+01  0.51100000000E-03 0. -1.
        -11    1    3    3    0    0  0.17980272411E+02 -0.31638397519E+02  0.17563824432E+02  0.40407503295E+02  0.51100000000E-03 0.  1.
         12    1    3    3    0    0 -0.15912737796E+02  0.36567110376E+02 -0.99929403249E+01  0.41112378206E+02  0.00000000000E+00 0. -1.
</event>
<event>
 7    1  0.2490895E-015  0.9000781E+02  0.7816164E-02  0.1186339E+00
        -11   -1    0    0    0    0  0.00000000000E+00  0.00000000000E+00  0.45593999997E+02  0.45594000000E+02  0.51100000000E-03 0. -1.
         11   -1    0    0    0    0 -0.00000000000E+00 -0.00000000000E+00 -0.45593999997E+02  0.45594000000E+02  0.51100000000E-03 0.  1.
    9900012    2    1    2    0    0 -0.41287879559E+00  0.10616780825E+01  0.30857152036E+00  0.90007811187E+02  0.90000073495E+02 0.  0.
         12    1    1    2    0    0  0.41287879559E+00 -0.10616780825E+01 -0.30857152036E+00  0.11801888128E+01  0.00000000000E+00 0. -1.
         11    1    3    3    0    0 -0.29176369116E+02  0.99961733954E+01 -0.17533002614E+02  0.35476614527E+02  0.51100000000E-03 0. -1.
        -11    1    3    3    0    0 -0.93032315184E+01 -0.60473396615E+01  0.11229502401E+02  0.15786771618E+02  0.51100000000E-03 0.  1.
        -12    1    3    3    0    0  0.38066721839E+02 -0.28871556515E+01  0.66120717328E+01  0.38744425043E+02  0.00000000000E+00 0.  1.
</event>
<event>
 7    1  0.2606545E-015  0.9000769E+02  0.7816164E-02  0.1186339E+00
        -11   -1    0    0    0    0  0.00000000000E+00  0.00000000000E+00  0.45593999997E+02  0.45594000000E+02  0.51100000000E-03 0.  1.
         11   -1    0    0    0    0 -0.00000000000E+00 -0.00000000000E+00 -0.45593999997E+02  0.45594000000E+02  0.51100000000E-03 0. -1.
    9900012    2    1    2    0    0  0.53745931400E+00 -0.91422511481E+00  0.51813939392E+00  0.90007687115E+02  0.89999947785E+02 0.  0.
         12    1    1    2    0    0 -0.53745931400E+00  0.91422511481E+00 -0.51813939392E+00  0.11803128849E+01  0.00000000000E+00 0. -1.
         11    1    3    3    0    0  0.32526522861E+02  0.33453169687E+01 -0.19645025975E+02  0.38145679714E+02  0.51100000000E-03 0. -1.
        -11    1    3    3    0    0  0.75987482860E+01 -0.28917582364E+01  0.42441990530E+01  0.91715029889E+01  0.51100000000E-03 0.  1.
        -12    1    3    3    0    0 -0.39587811833E+02 -0.13677838471E+01  0.15918966316E+02  0.42690504412E+02  0.00000000000E+00 0.  1.
</event>
<event>
 7    1  0.2490895E-015  0.9000772E+02  0.7816164E-02  0.1186339E+00
        -11   -1    0    0    0    0  0.00000000000E+00  0.00000000000E+00  0.45593999997E+02  0.45594000000E+02  0.51100000000E-03 0.  1.
         11   -1    0    0    0    0 -0.00000000000E+00 -0.00000000000E+00 -0.45593999997E+02  0.45594000000E+02  0.51100000000E-03 0. -1.
    9900012    2    1    2    0    0 -0.97410480570E+00 -0.58212605437E+00  0.32450545764E+00  0.90007722614E+02  0.89999983753E+02 0.  0.
         12    1    1    2    0    0  0.97410480570E+00  0.58212605437E+00 -0.32450545764E+00  0.11802773859E+01  0.00000000000E+00 0. -1.
         11    1    3    3    0    0 -0.65619252168E+01  0.26399122780E+02 -0.78517804544E+01  0.28312947615E+02  0.51100000000E-03 0. -1.
        -11    1    3    3    0    0  0.18225497815E+02  0.56710279287E+01 -0.10737326969E+02  0.21900217329E+02  0.51100000000E-03 0.  1.
        -12    1    3    3    0    0 -0.12637677404E+02 -0.32652276763E+02  0.18913612881E+02  0.39794557670E+02  0.00000000000E+00 0.  1.
</event>
<event>
 7    1  0.2490895E-015  0.9000775E+02  0.7816164E-02  0.1186339E+00
        -11   -1    0    0    0    0  0.00000000000E+00  0.00000000000E+00  0.45593999997E+02  0.45594000000E+02  0.51100000000E-03 0.  1.
         11   -1    0    0    0    0 -0.00000000000E+00 -0.00000000000E+00 -0.45593999997E+02  0.45594000000E+02  0.51100000000E-03 0. -1.
    9900012    2    1    2    0    0  0.11210931490E+01  0.12781492666E+00  0.34612966461E+00  0.90007749074E+02  0.90000010561E+02 0.  0.
         12    1    1    2    0    0 -0.11210931490E+01 -0.12781492666E+00 -0.34612966461E+00  0.11802509263E+01  0.00000000000E+00 0. -1.
         11    1    3    3    0    0 -0.15522275533E+02 -0.66584401884E+01 -0.28164267520E+02  0.32840551589E+02  0.51100000000E-03 0. -1.
        -11    1    3    3    0    0 -0.76171629060E+01 -0.35373471896E+00 -0.90828146484E+01  0.11859334770E+02  0.51100000000E-03 0.  1.
        -12    1    3    3    0    0  0.24260531588E+02  0.71399898340E+01  0.37593211833E+02  0.45307862714E+02  0.00000000000E+00 0.  1.
</event>
<event>
 7    1  0.2490895E-015  0.9000771E+02  0.7816164E-02  0.1186339E+00
        -11   -1    0    0    0    0  0.00000000000E+00  0.00000000000E+00  0.45593999997E+02  0.45594000000E+02  0.51100000000E-03 0. -1.
         11   -1    0    0    0    0 -0.00000000000E+00 -0.00000000000E+00 -0.45593999997E+02  0.45594000000E+02  0.51100000000E-03 0.  1.
    9900012    2    1    2    0    0 -0.11315107578E+01 -0.22858454562E+00  0.24599176250E+00  0.90007712138E+02  0.89999973138E+02 0.  0.
         12    1    1    2    0    0  0.11315107578E+01  0.22858454562E+00 -0.24599176250E+00  0.11802878618E+01  0.00000000000E+00 0. -1.
         11    1    3    3    0    0 -0.23943753088E+02 -0.28666724680E+02 -0.86250400880E+01  0.38333741437E+02  0.51100000000E-03 0. -1.
        -11    1    3    3    0    0 -0.22904544449E+01  0.23011586817E+01 -0.10213116452E+02  0.10716774737E+02  0.51100000000E-03 0.  1.
        -12    1    3    3    0    0  0.25102696775E+02  0.26136981453E+02  0.19084148302E+02  0.40957195964E+02  0.00000000000E+00 0.  1.
</event>
<event>
 7    1  0.2490895E-015  0.9000776E+02  0.7816164E-02  0.1186339E+00
        -11   -1    0    0    0    0  0.00000000000E+00  0.00000000000E+00  0.45593999997E+02  0.45594000000E+02  0.51100000000E-03 0. -1.
         11   -1    0    0    0    0 -0.00000000000E+00 -0.00000000000E+00 -0.45593999997E+02  0.45594000000E+02  0.51100000000E-03 0.  1.
    9900012    2    1    2    0    0  0.59989676983E+00 -0.98790851416E+00  0.23902322566E+00  0.90007757877E+02  0.90000019481E+02 0.  0.
         12    1    1    2    0    0 -0.59989676983E+00  0.98790851416E+00 -0.23902322566E+00  0.11802421231E+01  0.00000000000E+00 0. -1.
         11    1    3    3    0    0 -0.62321732049E+01 -0.22379272316E+01 -0.57277375382E+01  0.87553000359E+01  0.51100000000E-03 0. -1.
        -11    1    3    3    0    0 -0.10439503682E+02 -0.20325822255E+01 -0.35049263199E+02  0.36627387003E+02  0.51100000000E-03 0.  1.
         12    1    3    3    0    0  0.17271573657E+02  0.32826009430E+01  0.41016023963E+02  0.44625070838E+02  0.00000000000E+00 0. -1.
</event>
<event>
 7    1  0.2490895E-015  0.9000748E+02  0.7816164E-02  0.1186340E+00
        -11   -1    0    0    0    0  0.00000000000E+00  0.00000000000E+00  0.45593999997E+02  0.45594000000E+02  0.51100000000E-03 0.  1.
         11   -1    0    0    0    0 -0.00000000000E+00 -0.00000000000E+00 -0.45593999997E+02  0.45594000000E+02  0.51100000000E-03 0. -1.
    9900012    2    1    2    0    0 -0.49164696345E+00  0.10596915312E+01  0.17019345704E+00  0.90007479483E+02  0.89999737412E+02 0.  0.
         12    1    1    2    0    0  0.49164696345E+00 -0.10596915312E+01 -0.17019345704E+00  0.11805205169E+01  0.00000000000E+00 0. -1.
         11    1    3    3    0    0  0.51340839966E+01  0.10214837224E+00  0.53303703269E+01  0.74014931505E+01  0.51100000000E-03 0. -1.
        -11    1    3    3    0    0  0.19283910831E+01  0.19906177625E+02 -0.38578173998E+02  0.43453999920E+02  0.51100000000E-03 0.  1.
         12    1    3    3    0    0 -0.75541220431E+01 -0.18948634466E+02  0.33417997128E+02  0.39151986412E+02  0.00000000000E+00 0. -1.
</event>
<event>
 7    1  0.2490895E-015  0.9000771E+02  0.7816164E-02  0.1186339E+00
        -11   -1    0    0    0    0  0.00000000000E+00  0.00000000000E+00  0.45593999997E+02  0.45594000000E+02  0.51100000000E-03 0.  1.
         11   -1    0    0    0    0 -0.00000000000E+00 -0.00000000000E+00 -0.45593999997E+02  0.45594000000E+02  0.51100000000E-03 0. -1.
    9900012    2    1    2    0    0  0.11822064360E+00  0.43557947259E+00  0.10905812513E+01  0.90007714838E+02  0.89999975874E+02 0.  0.
         12    1    1    2    0    0 -0.11822064360E+00 -0.43557947259E+00 -0.10905812513E+01  0.11802851619E+01  0.00000000000E+00 0. -1.
         11    1    3    3    0    0  0.23174739909E+02  0.26639207081E+02  0.12143249417E+02  0.37338645267E+02  0.51100000000E-03 0. -1.
        -11    1    3    3    0    0  0.49614677269E+01  0.89001092354E+00  0.78678330487E+01  0.93440397363E+01  0.51100000000E-03 0.  1.
        -12    1    3    3    0    0 -0.28017986992E+02 -0.27093638532E+02 -0.18920501215E+02  0.43325029835E+02  0.00000000000E+00 0.  1.
</event>
<event>
 7    1  0.2490895E-015  0.9000761E+02  0.7816164E-02  0.1186339E+00
        -11   -1    0    0    0    0  0.00000000000E+00  0.00000000000E+00  0.45593999997E+02  0.45594000000E+02  0.51100000000E-03 0.  1.
         11   -1    0    0    0    0 -0.00000000000E+00 -0.00000000000E+00 -0.45593999997E+02  0.45594000000E+02  0.51100000000E-03 0. -1.
    9900012    2    1    2    0    0  0.10551648780E+00 -0.45379382580E+00 -0.10845532434E+01  0.90007610953E+02  0.89999870617E+02 0.  0.
         12    1    1    2    0    0 -0.10551648780E+00  0.45379382580E+00  0.10845532434E+01  0.11803890474E+01  0.00000000000E+00 0. -1.
         11    1    3    3    0    0 -0.70777778101E+01 -0.75643641140E+01  0.26322583739E+01  0.10688467036E+02  0.51100000000E-03 0. -1.
        -11    1    3    3    0    0 -0.26335547393E+02 -0.21970116734E+02  0.30445905806E+01  0.34431331921E+02  0.51100000000E-03 0.  1.
         12    1    3    3    0    0  0.33518841691E+02  0.29080687023E+02 -0.67614021979E+01  0.44887811995E+02  0.00000000000E+00 0. -1.
</event>
<event>
 7    1  0.2490895E-015  0.9000777E+02  0.7816164E-02  0.1186339E+00
        -11   -1    0    0    0    0  0.00000000000E+00  0.00000000000E+00  0.45593999997E+02  0.45594000000E+02  0.51100000000E-03 0.  1.
         11   -1    0    0    0    0 -0.00000000000E+00 -0.00000000000E+00 -0.45593999997E+02  0.45594000000E+02  0.51100000000E-03 0. -1.
    9900012    2    1    2    0    0  0.33377500707E+00 -0.95716121265E+00  0.60445965727E+00  0.90007773403E+02  0.90000035212E+02 0.  0.
         12    1    1    2    0    0 -0.33377500707E+00  0.95716121265E+00 -0.60445965727E+00  0.11802265967E+01  0.00000000000E+00 0. -1.
         11    1    3    3    0    0 -0.19755690237E+02 -0.37787066161E+01 -0.30441989662E+02  0.36486718889E+02  0.51100000000E-03 0. -1.
        -11    1    3    3    0    0  0.21529388134E+01 -0.74593216176E+01 -0.68489792231E+01  0.10353025702E+02  0.51100000000E-03 0.  1.
        -12    1    3    3    0    0  0.17936526431E+02  0.10280867021E+02  0.37895428543E+02  0.43168028812E+02  0.00000000000E+00 0.  1.
</event>
<event>
 7    1  0.2490895E-015  0.9000769E+02  0.7816164E-02  0.1186339E+00
        -11   -1    0    0    0    0  0.00000000000E+00  0.00000000000E+00  0.45593999997E+02  0.45594000000E+02  0.51100000000E-03 0.  1.
         11   -1    0    0    0    0 -0.00000000000E+00 -0.00000000000E+00 -0.45593999997E+02  0.45594000000E+02  0.51100000000E-03 0. -1.
    9900012    2    1    2    0    0 -0.44795683250E+00  0.73012334753E-01  0.10895560461E+01  0.90007691353E+02  0.89999952079E+02 0.  0.
         12    1    1    2    0    0  0.44795683250E+00 -0.73012334753E-01 -0.10895560461E+01  0.11803086471E+01  0.00000000000E+00 0. -1.
         11    1    3    3    0    0  0.30919873210E+02 -0.13353525928E+01 -0.56020735014E+00  0.30953764851E+02  0.51100000000E-03 0. -1.
        -11    1    3    3    0    0 -0.14984987486E+00  0.19178579004E+02  0.10765466895E+02  0.21993990664E+02  0.51100000000E-03 0.  1.
        -12    1    3    3    0    0 -0.31217980168E+02 -0.17770214076E+02 -0.91157034991E+01  0.37059935839E+02  0.00000000000E+00 0.  1.
</event>
<event>
 7    1  0.2490895E-015  0.9000807E+02  0.7816164E-02  0.1186338E+00
        -11   -1    0    0    0    0  0.00000000000E+00  0.00000000000E+00  0.45593999997E+02  0.45594000000E+02  0.51100000000E-03 0.  1.
         11   -1    0    0    0    0 -0.00000000000E+00 -0.00000000000E+00 -0.45593999997E+02  0.45594000000E+02  0.51100000000E-03 0. -1.
    9900012    2    1    2    0    0  0.23363441108E+00  0.38249447820E+00  0.10914909526E+01  0.90008067984E+02  0.90000333680E+02 0.  0.
         12    1    1    2    0    0 -0.23363441108E+00 -0.38249447820E+00 -0.10914909526E+01  0.11799320164E+01  0.00000000000E+00 0. -1.
         11    1    3    3    0    0 -0.10688815593E+02  0.16653414265E+02 -0.31732922956E+02  0.37397398105E+02  0.51100000000E-03 0. -1.
        -11    1    3    3    0    0  0.13312947168E-01 -0.68739699316E+01 -0.72724622612E+01  0.10007014912E+02  0.51100000000E-03 0.  1.
        -12    1    3    3    0    0  0.10909137057E+02 -0.93969498556E+01  0.40096876169E+02  0.42603654966E+02  0.00000000000E+00 0.  1.
</event>
<event>
 7    1  0.2490895E-015  0.9000765E+02  0.7816164E-02  0.1186339E+00
        -11   -1    0    0    0    0  0.00000000000E+00  0.00000000000E+00  0.45593999997E+02  0.45594000000E+02  0.51100000000E-03 0.  1.
         11   -1    0    0    0    0 -0.00000000000E+00 -0.00000000000E+00 -0.45593999997E+02  0.45594000000E+02  0.51100000000E-03 0. -1.
    9900012    2    1    2    0    0 -0.65386515920E+00  0.63323536692E+00  0.75145777681E+00  0.90007654514E+02  0.89999914753E+02 0.  0.
         12    1    1    2    0    0  0.65386515920E+00 -0.63323536692E+00 -0.75145777681E+00  0.11803454861E+01  0.00000000000E+00 0. -1.
         11    1    3    3    0    0 -0.81100358297E+00 -0.90233020992E+01  0.40535354619E+01  0.99251628494E+01  0.51100000000E-03 0. -1.
        -11    1    3    3    0    0 -0.31994736544E+01  0.82530336236E+01  0.37798564113E+02  0.38821136574E+02  0.51100000000E-03 0.  1.
         12    1    3    3    0    0  0.33566120781E+01  0.14035038425E+01 -0.41100641798E+02  0.41261355090E+02  0.00000000000E+00 0. -1.
</event>
<event>
 7    1  0.2490895E-015  0.9000773E+02  0.7816164E-02  0.1186339E+00
        -11   -1    0    0    0    0  0.00000000000E+00  0.00000000000E+00  0.45593999997E+02  0.45594000000E+02  0.51100000000E-03 0. -1.
         11   -1    0    0    0    0 -0.00000000000E+00 -0.00000000000E+00 -0.45593999997E+02  0.45594000000E+02  0.51100000000E-03 0.  1.
    9900012    2    1    2    0    0  0.35343942543E+00 -0.19330858042E+00 -0.11093896271E+01  0.90007731819E+02  0.89999993079E+02 0.  0.
         12    1    1    2    0    0 -0.35343942543E+00  0.19330858042E+00  0.11093896271E+01  0.11802681811E+01  0.00000000000E+00 0. -1.
         11    1    3    3    0    0 -0.65865882304E+01  0.99995879843E+01  0.18506974186E+01  0.12116104389E+02  0.51100000000E-03 0. -1.
        -11    1    3    3    0    0  0.89824060978E+01 -0.15130326141E+02 -0.38300800013E+02  0.42149278408E+02  0.51100000000E-03 0.  1.
         12    1    3    3    0    0 -0.20423784420E+01  0.49374295768E+01  0.35340712967E+02  0.35742349021E+02  0.00000000000E+00 0. -1.
</event>
<event>
 7    1  0.2490895E-015  0.9000770E+02  0.7816164E-02  0.1186339E+00
        -11   -1    0    0    0    0  0.00000000000E+00  0.00000000000E+00  0.45593999997E+02  0.45594000000E+02  0.51100000000E-03 0.  1.
         11   -1    0    0    0    0 -0.00000000000E+00 -0.00000000000E+00 -0.45593999997E+02  0.45594000000E+02  0.51100000000E-03 0. -1.
    9900012    2    1    2    0    0 -0.11188384823E+01 -0.36886182985E+00 -0.72447264484E-01  0.90007700375E+02  0.89999961220E+02 0.  0.
         12    1    1    2    0    0  0.11188384823E+01  0.36886182985E+00  0.72447264484E-01  0.11802996252E+01  0.00000000000E+00 0. -1.
         11    1    3    3    0    0 -0.43130833991E+02  0.72295925799E+00 -0.43567439097E+01  0.43356345886E+02  0.51100000000E-03 0. -1.
        -11    1    3    3    0    0  0.23308609314E+01 -0.60100901015E+01  0.86401139553E-01  0.64468256629E+01  0.51100000000E-03 0.  1.
        -12    1    3    3    0    0  0.39681134577E+02  0.49182690136E+01  0.41978955057E+01  0.40204528826E+02  0.00000000000E+00 0.  1.
</event>
<event>
 7    1  0.2490895E-015  0.9000774E+02  0.7816164E-02  0.1186339E+00
        -11   -1    0    0    0    0  0.00000000000E+00  0.00000000000E+00  0.45593999997E+02  0.45594000000E+02  0.51100000000E-03 0. -1.
         11   -1    0    0    0    0 -0.00000000000E+00 -0.00000000000E+00 -0.45593999997E+02  0.45594000000E+02  0.51100000000E-03 0.  1.
    9900012    2    1    2    0    0  0.25201879140E+00 -0.56574335882E+00 -0.10047088862E+01  0.90007737756E+02  0.89999999094E+02 0.  0.
         12    1    1    2    0    0 -0.25201879140E+00  0.56574335882E+00  0.10047088862E+01  0.11802622443E+01  0.00000000000E+00 0. -1.
         11    1    3    3    0    0 -0.37736832469E+02 -0.14437272267E+02  0.15481896163E+02  0.43268839415E+02  0.51100000000E-03 0. -1.
        -11    1    3    3    0    0  0.45877703074E+01 -0.10859346974E+01 -0.78172181850E+01  0.91288439013E+01  0.51100000000E-03 0.  1.
        -12    1    3    3    0    0  0.33401080953E+02  0.14957463605E+02 -0.86693868644E+01  0.37610054439E+02  0.00000000000E+00 0.  1.
</event>
<event>
 7    1  0.2490895E-015  0.9000772E+02  0.7816164E-02  0.1186339E+00
        -11   -1    0    0    0    0  0.00000000000E+00  0.00000000000E+00  0.45593999997E+02  0.45594000000E+02  0.51100000000E-03 0. -1.
         11   -1    0    0    0    0 -0.00000000000E+00 -0.00000000000E+00 -0.45593999997E+02  0.45594000000E+02  0.51100000000E-03 0.  1.
    9900012    2    1    2    0    0  0.82579872693E+00  0.32845462714E+00 -0.77667909012E+00  0.90007721902E+02  0.89999983031E+02 0.  0.
         12    1    1    2    0    0 -0.82579872693E+00 -0.32845462714E+00  0.77667909012E+00  0.11802780980E+01  0.00000000000E+00 0. -1.
         11    1    3    3    0    0 -0.14047311964E+02  0.73213719277E+01  0.40476585149E+01  0.16349709479E+02  0.51100000000E-03 0. -1.
        -11    1    3    3    0    0 -0.23347009837E+02 -0.21874743480E+02 -0.63362638556E+01  0.32614958387E+02  0.51100000000E-03 0.  1.
         12    1    3    3    0    0  0.38220120528E+02  0.14881826180E+02  0.15119262505E+01  0.41043054036E+02  0.00000000000E+00 0. -1.
</event>
<event>
 7    1  0.2490895E-015  0.9000819E+02  0.7816164E-02  0.1186338E+00
        -11   -1    0    0    0    0  0.00000000000E+00  0.00000000000E+00  0.45593999997E+02  0.45594000000E+02  0.51100000000E-03 0.  1.
         11   -1    0    0    0    0 -0.00000000000E+00 -0.00000000000E+00 -0.45593999997E+02  0.45594000000E+02  0.51100000000E-03 0. -1.
    9900012    2    1    2    0    0  0.14558160933E+00 -0.81764209423E+00  0.83798747612E+00  0.90008188316E+02  0.90000455601E+02 0.  0.
         12    1    1    2    0    0 -0.14558160933E+00  0.81764209423E+00 -0.83798747612E+00  0.11798116839E+01  0.00000000000E+00 0. -1.
         11    1    3    3    0    0  0.38086099165E+02 -0.11988714338E+02  0.31374203065E+01  0.40051512175E+02  0.51100000000E-03 0. -1.
        -11    1    3    3    0    0 -0.39792745653E+01 -0.65587902890E+01  0.71617966254E+01  0.10494936269E+02  0.51100000000E-03 0.  1.
        -12    1    3    3    0    0 -0.33961242991E+02  0.17729862533E+02 -0.94612294558E+01  0.39461739872E+02  0.00000000000E+00 0.  1.
</event>
<event>
 8    1  0.2490895E-015  0.9000770E+02  0.7816164E-02  0.1186339E+00
        -11   -1    0    0    0    0  0.00000000000E+00  0.00000000000E+00  0.45593999997E+02  0.45594000000E+02  0.51100000000E-03 0.  1.
         11   -1    0    0    0    0 -0.00000000000E+00 -0.00000000000E+00 -0.45593999997E+02  0.45594000000E+02  0.51100000000E-03 0. -1.
    9900012    2    1    2    0    0  0.90198902873E+00 -0.12894003894E+00  0.75026575237E+00  0.90007699851E+02  0.89999960689E+02 0.  0.
         23    2    3    3    0    0  0.13477698702E+02  0.17811092462E+02 -0.16294756789E+02  0.62249349155E+02  0.55772564890E+02 0.  0.
         12    1    1    2    0    0 -0.90198902873E+00  0.12894003894E+00 -0.75026575237E+00  0.11803001486E+01  0.00000000000E+00 0. -1.
         11    1    4    4    0    0 -0.14183776945E+02 -0.10809497959E+02 -0.13464929923E+02  0.22345673242E+02  0.51100000000E-03 0. -1.
        -11    1    4    4    0    0  0.27661475647E+02  0.28620590422E+02 -0.28298268660E+01  0.39903675913E+02  0.51100000000E-03 0.  1.
         12    1    3    3    0    0 -0.12575709673E+02 -0.17940032501E+02  0.17045022541E+02  0.27758350696E+02  0.00000000000E+00 0. -1.
</event>
<event>
 7    1  0.2490895E-015  0.9000767E+02  0.7816164E-02  0.1186339E+00
        -11   -1    0    0    0    0  0.00000000000E+00  0.00000000000E+00  0.45593999997E+02  0.45594000000E+02  0.51100000000E-03 0.  1.
         11   -1    0    0    0    0 -0.00000000000E+00 -0.00000000000E+00 -0.45593999997E+02  0.45594000000E+02  0.51100000000E-03 0. -1.
    9900012    2    1    2    0    0  0.61305154660E+00 -0.27705584595E+00  0.96983460416E+00  0.90007673223E+02  0.89999933710E+02 0.  0.
         12    1    1    2    0    0 -0.61305154660E+00  0.27705584595E+00 -0.96983460416E+00  0.11803267768E+01  0.00000000000E+00 0. -1.
         11    1    3    3    0    0 -0.31431804689E+01  0.39732930295E+01  0.71456116232E+01  0.87593610891E+01  0.51100000000E-03 0. -1.
        -11    1    3    3    0    0 -0.35928969916E+02 -0.73283871447E+01  0.10423501010E+02  0.38121457356E+02  0.51100000000E-03 0.  1.
         12    1    3    3    0    0  0.39685201932E+02  0.30780382693E+01 -0.16599278029E+02  0.43126854778E+02  0.00000000000E+00 0. -1.
</event>
<event>
 7    1  0.2490895E-015  0.9000793E+02  0.7816164E-02  0.1186339E+00
        -11   -1    0    0    0    0  0.00000000000E+00  0.00000000000E+00  0.45593999997E+02  0.45594000000E+02  0.51100000000E-03 0. -1.
         11   -1    0    0    0    0 -0.00000000000E+00 -0.00000000000E+00 -0.45593999997E+02  0.45594000000E+02  0.51100000000E-03 0.  1.
    9900012    2    1    2    0    0 -0.72352544466E+00 -0.29301934730E+00 -0.88499820793E+00  0.90007927445E+02  0.90000191287E+02 0.  0.
         12    1    1    2    0    0  0.72352544466E+00  0.29301934730E+00  0.88499820793E+00  0.11800725550E+01  0.00000000000E+00 0. -1.
         11    1    3    3    0    0 -0.33934173806E+01 -0.39666434863E+00 -0.86057450412E+01  0.92591291221E+01  0.51100000000E-03 0. -1.
        -11    1    3    3    0    0  0.29929362238E+01 -0.42794438382E+01 -0.36217114749E+02  0.36591675389E+02  0.51100000000E-03 0.  1.
         12    1    3    3    0    0 -0.32304428785E+00  0.43830888396E+01  0.43937861582E+02  0.44157122934E+02  0.00000000000E+00 0. -1.
</event>
<event>
 7    1  0.2490895E-015  0.9000777E+02  0.7816164E-02  0.1186339E+00
        -11   -1    0    0    0    0  0.00000000000E+00  0.00000000000E+00  0.45593999997E+02  0.45594000000E+02  0.51100000000E-03 0.  1.
         11   -1    0    0    0    0 -0.00000000000E+00 -0.00000000000E+00 -0.45593999997E+02  0.45594000000E+02  0.51100000000E-03 0. -1.
    9900012    2    1    2    0    0  0.28141813537E+00 -0.55974410627E+00  0.10002130779E+01  0.90007772974E+02  0.90000034777E+02 0.  0.
         12    1    1    2    0    0 -0.28141813537E+00  0.55974410627E+00 -0.10002130779E+01  0.11802270259E+01  0.00000000000E+00 0. -1.
         11    1    3    3    0    0 -0.10104782492E+02  0.48206718108E+01  0.14424180780E+01  0.11288315910E+02  0.51100000000E-03 0. -1.
        -11    1    3    3    0    0 -0.72592895225E+01 -0.25328407384E+02  0.28889907898E+02  0.39100540707E+02  0.51100000000E-03 0.  1.
         12    1    3    3    0    0  0.17645490150E+02  0.19947991467E+02 -0.29332112898E+02  0.39618916356E+02  0.00000000000E+00 0. -1.
</event>
<event>
 7    1  0.2490895E-015  0.9000758E+02  0.7816164E-02  0.1186339E+00
        -11   -1    0    0    0    0  0.00000000000E+00  0.00000000000E+00  0.45593999997E+02  0.45594000000E+02  0.51100000000E-03 0. -1.
         11   -1    0    0    0    0 -0.00000000000E+00 -0.00000000000E+00 -0.45593999997E+02  0.45594000000E+02  0.51100000000E-03 0.  1.
    9900012    2    1    2    0    0  0.10035396295E+01 -0.19962933357E+00  0.58859639623E+00  0.90007580847E+02  0.89999840114E+02 0.  0.
         12    1    1    2    0    0 -0.10035396295E+01  0.19962933357E+00 -0.58859639623E+00  0.11804191528E+01  0.00000000000E+00 0. -1.
         11    1    3    3    0    0  0.31857502517E+02 -0.22480774658E+02 -0.96627947635E+01  0.40170328587E+02  0.51100000000E-03 0. -1.
        -11    1    3    3    0    0  0.38976717574E+01  0.11817893917E+02  0.17998625586E+01  0.12573542351E+02  0.51100000000E-03 0.  1.
        -12    1    3    3    0    0 -0.34751634645E+02  0.10463251408E+02  0.84515286011E+01  0.37263709910E+02  0.00000000000E+00 0.  1.
</event>
<event>
 7    1  0.2490895E-015  0.9000748E+02  0.7816164E-02  0.1186340E+00
        -11   -1    0    0    0    0  0.00000000000E+00  0.00000000000E+00  0.45593999997E+02  0.45594000000E+02  0.51100000000E-03 0. -1.
         11   -1    0    0    0    0 -0.00000000000E+00 -0.00000000000E+00 -0.45593999997E+02  0.45594000000E+02  0.51100000000E-03 0.  1.
    9900012    2    1    2    0    0  0.93167755217E+00  0.72298328780E+00 -0.53767835496E-01  0.90007483640E+02  0.89999741624E+02 0.  0.
         12    1    1    2    0    0 -0.93167755217E+00 -0.72298328780E+00  0.53767835496E-01  0.11805163598E+01  0.00000000000E+00 0. -1.
         11    1    3    3    0    0 -0.57004027284E+01 -0.68799292422E+01  0.31719557275E+00  0.89402813678E+01  0.51100000000E-03 0. -1.
        -11    1    3    3    0    0 -0.30920335238E+02 -0.17148768188E+02 -0.55639331238E+01  0.35792523432E+02  0.51100000000E-03 0.  1.
         12    1    3    3    0    0  0.37552415518E+02  0.24751680718E+02  0.51929697156E+01  0.45274678840E+02  0.00000000000E+00 0. -1.
</event>
<event>
 7    1  0.2490895E-015  0.9000784E+02  0.7816164E-02  0.1186339E+00
        -11   -1    0    0    0    0  0.00000000000E+00  0.00000000000E+00  0.45593999997E+02  0.45594000000E+02  0.51100000000E-03 0.  1.
         11   -1    0    0    0    0 -0.00000000000E+00 -0.00000000000E+00 -0.45593999997E+02  0.45594000000E+02  0.51100000000E-03 0. -1.
    9900012    2    1    2    0    0 -0.10277314302E+00  0.10483627383E+01  0.53211808428E+00  0.90007840517E+02  0.90000103212E+02 0.  0.
         12    1    1    2    0    0  0.10277314302E+00 -0.10483627383E+01 -0.53211808428E+00  0.11801594831E+01  0.00000000000E+00 0. -1.
         11    1    3    3    0    0  0.85612483282E+01 -0.19242247706E+01 -0.98855706675E+01  0.13218249566E+02  0.51100000000E-03 0. -1.
        -11    1    3    3    0    0 -0.33272035472E+02 -0.14442210286E+02  0.24239562233E+02  0.43625246817E+02  0.51100000000E-03 0.  1.
         12    1    3    3    0    0  0.24608014000E+02  0.17414797795E+02 -0.13821873481E+02  0.33164344134E+02  0.00000000000E+00 0. -1.
</event>
<event>
 7    1  0.2490895E-015  0.9000743E+02  0.7816164E-02  0.1186340E+00
        -11   -1    0    0    0    0  0.00000000000E+00  0.00000000000E+00  0.45593999997E+02  0.45594000000E+02  0.51100000000E-03 0. -1.
         11   -1    0    0    0    0 -0.00000000000E+00 -0.00000000000E+00 -0.45593999997E+02  0.45594000000E+02  0.51100000000E-03 0.  1.
    9900012    2    1    2    0    0  0.29089177016E+00  0.79995793734E+00 -0.81804652237E+00  0.90007427751E+02  0.89999684996E+02 0.  0.
         12    1    1    2    0    0 -0.29089177016E+00 -0.79995793734E+00  0.81804652237E+00  0.11805722495E+01  0.00000000000E+00 0. -1.
         11    1    3    3    0    0  0.62290095618E+01  0.72602332330E+01 -0.18494634374E+01  0.97433085749E+01  0.51100000000E-03 0. -1.
        -11    1    3    3    0    0  0.10363082792E+02 -0.34536886451E+02 -0.20336393321E+02  0.41397571236E+02  0.51100000000E-03 0.  1.
         12    1    3    3    0    0 -0.16301200583E+02  0.28076611155E+02  0.21367810236E+02  0.38866547939E+02  0.00000000000E+00 0. -1.
</event>
<event>
 7    1  0.2490895E-015  0.9000777E+02  0.7816164E-02  0.1186339E+00
        -11   -1    0    0    0    0  0.00000000000E+00  0.00000000000E+00  0.45593999997E+02  0.45594000000E+02  0.51100000000E-03 0. -1.
         11   -1    0    0    0    0 -0.00000000000E+00 -0.00000000000E+00 -0.45593999997E+02  0.45594000000E+02  0.51100000000E-03 0.  1.
    9900012    2    1    2    0    0  0.37386621173E+00 -0.96306327866E+00 -0.57068032939E+00  0.90007769996E+02  0.90000031760E+02 0.  0.
         12    1    1    2    0    0 -0.37386621173E+00  0.96306327866E+00  0.57068032939E+00  0.11802300036E+01  0.00000000000E+00 0. -1.
         11    1    3    3    0    0 -0.98376500210E+01 -0.12468114716E+02  0.18872214203E+01  0.15993587698E+02  0.51100000000E-03 0. -1.
        -11    1    3    3    0    0  0.14427018250E+02  0.12606026633E+02  0.33070721293E+02  0.38219410908E+02  0.51100000000E-03 0.  1.
         12    1    3    3    0    0 -0.42155020171E+01 -0.11009751956E+01 -0.35528623042E+02  0.35794771391E+02  0.00000000000E+00 0. -1.
</event>
<event>
 7    1  0.2490895E-015  0.9000768E+02  0.7816164E-02  0.1186339E+00
        -11   -1    0    0    0    0  0.00000000000E+00  0.00000000000E+00  0.45593999997E+02  0.45594000000E+02  0.51100000000E-03 0. -1.
         11   -1    0    0    0    0 -0.00000000000E+00 -0.00000000000E+00 -0.45593999997E+02  0.45594000000E+02  0.51100000000E-03 0.  1.
    9900012    2    1    2    0    0  0.78414558044E-01  0.10875192430E+01 -0.45199337938E+00  0.90007684380E+02  0.89999945014E+02 0.  0.
         12    1    1    2    0    0 -0.78414558044E-01 -0.10875192430E+01  0.45199337938E+00  0.11803156195E+01  0.00000000000E+00 0. -1.
         11    1    3    3    0    0 -0.18126804537E+02 -0.12315191969E+02  0.27101092388E+02  0.34852750320E+02  0.51100000000E-03 0. -1.
        -11    1    3    3    0    0 -0.92594578942E+01 -0.82536931508E+01 -0.41852160013E+01  0.13091105544E+02  0.51100000000E-03 0.  1.
        -12    1    3    3    0    0  0.27464676989E+02  0.21656404363E+02 -0.23367869767E+02  0.42063828517E+02  0.00000000000E+00 0.  1.
</event>
<event>
 7    1  0.2490895E-015  0.9000774E+02  0.7816164E-02  0.1186339E+00
        -11   -1    0    0    0    0  0.00000000000E+00  0.00000000000E+00  0.45593999997E+02  0.45594000000E+02  0.51100000000E-03 0.  1.
         11   -1    0    0    0    0 -0.00000000000E+00 -0.00000000000E+00 -0.45593999997E+02  0.45594000000E+02  0.51100000000E-03 0. -1.
    9900012    2    1    2    0    0  0.73892904876E-01  0.30961893798E+00  0.11365272373E+01  0.90007738076E+02  0.89999999419E+02 0.  0.
         12    1    1    2    0    0 -0.73892904876E-01 -0.30961893798E+00 -0.11365272373E+01  0.11802619240E+01  0.00000000000E+00 0. -1.
         11    1    3    3    0    0  0.26915481251E+02 -0.26289773008E+02 -0.22059437206E+01  0.37689010118E+02  0.51100000000E-03 0. -1.
        -11    1    3    3    0    0  0.51305951262E+01  0.11173806307E+02  0.10425153172E+02  0.16120197662E+02  0.51100000000E-03 0.  1.
        -12    1    3    3    0    0 -0.31972183472E+02  0.15425585638E+02 -0.70826822137E+01  0.36198530296E+02  0.00000000000E+00 0.  1.
</event>
<event>
 7    1  0.2490895E-015  0.9000777E+02  0.7816164E-02  0.1186339E+00
        -11   -1    0    0    0    0  0.00000000000E+00  0.00000000000E+00  0.45593999997E+02  0.45594000000E+02  0.51100000000E-03 0. -1.
         11   -1    0    0    0    0 -0.00000000000E+00 -0.00000000000E+00 -0.45593999997E+02  0.45594000000E+02  0.51100000000E-03 0.  1.
    9900012    2    1    2    0    0 -0.95773417302E+00  0.22630616663E+00 -0.65151134040E+00  0.90007772796E+02  0.90000034597E+02 0.  0.
         12    1    1    2    0    0  0.95773417302E+00 -0.22630616663E+00  0.65151134040E+00  0.11802272044E+01  0.00000000000E+00 0. -1.
         11    1    3    3    0    0 -0.37832249045E+01 -0.90161600888E+01 -0.16489031161E+01  0.99157861601E+01  0.51100000000E-03 0. -1.
        -11    1    3    3    0    0 -0.57080431721E+01  0.43205319804E+02  0.81869103018E+01  0.44343059398E+02  0.51100000000E-03 0.  1.
         12    1    3    3    0    0  0.85335339036E+01 -0.33962853548E+02 -0.71895185261E+01  0.35748927238E+02  0.00000000000E+00 0. -1.
</event>
<event>
 7    1  0.2490895E-015  0.9000777E+02  0.7816164E-02  0.1186339E+00
        -11   -1    0    0    0    0  0.00000000000E+00  0.00000000000E+00  0.45593999997E+02  0.45594000000E+02  0.51100000000E-03 0.  1.
         11   -1    0    0    0    0 -0.00000000000E+00 -0.00000000000E+00 -0.45593999997E+02  0.45594000000E+02  0.51100000000E-03 0. -1.
    9900012    2    1    2    0    0 -0.36258559919E+00 -0.90898100060E+00  0.65972535932E+00  0.90007765987E+02  0.90000027698E+02 0.  0.
         12    1    1    2    0    0  0.36258559919E+00  0.90898100060E+00 -0.65972535932E+00  0.11802340132E+01  0.00000000000E+00 0. -1.
         11    1    3    3    0    0  0.19813938334E+02  0.28869548426E+02  0.13742979143E+02  0.37615322073E+02  0.51100000000E-03 0. -1.
        -11    1    3    3    0    0  0.57426283316E+00  0.58881260410E+01  0.46051786597E+01  0.74971645857E+01  0.51100000000E-03 0.  1.
        -12    1    3    3    0    0 -0.20750786767E+02 -0.35666655467E+02 -0.17688432444E+02  0.44895279329E+02  0.00000000000E+00 0.  1.
</event>
<event>
 7    1  0.2490895E-015  0.9000762E+02  0.7816164E-02  0.1186339E+00
        -11   -1    0    0    0    0  0.00000000000E+00  0.00000000000E+00  0.45593999997E+02  0.45594000000E+02  0.51100000000E-03 0.  1.
         11   -1    0    0    0    0 -0.00000000000E+00 -0.00000000000E+00 -0.45593999997E+02  0.45594000000E+02  0.51100000000E-03 0. -1.
    9900012    2    1    2    0    0  0.84338639593E+00 -0.44126291345E+00 -0.69805994255E+00  0.90007618174E+02  0.89999877934E+02 0.  0.
         12    1    1    2    0    0 -0.84338639593E+00  0.44126291345E+00  0.69805994255E+00  0.11803818259E+01  0.00000000000E+00 0. -1.
         11    1    3    3    0    0 -0.36774435897E+01  0.59095884499E+01  0.10684082814E+01  0.70418977215E+01  0.51100000000E-03 0. -1.
        -11    1    3    3    0    0  0.58152275902E+01 -0.18149501209E+02  0.37434775006E+02  0.42006947593E+02  0.51100000000E-03 0.  1.
         12    1    3    3    0    0 -0.12943976045E+01  0.11798649846E+02 -0.39201243230E+02  0.40958772859E+02  0.00000000000E+00 0. -1.
</event>
<event>
 7    1  0.2490895E-015  0.9000770E+02  0.7816164E-02  0.1186339E+00
        -11   -1    0    0    0    0  0.00000000000E+00  0.00000000000E+00  0.45593999997E+02  0.45594000000E+02  0.51100000000E-03 0.  1.
         11   -1    0    0    0    0 -0.00000000000E+00 -0.00000000000E+00 -0.45593999997E+02  0.45594000000E+02  0.51100000000E-03 0. -1.
    9900012    2    1    2    0    0 -0.49859617917E-01 -0.59370340043E-01  0.11777493957E+01  0.90007701539E+02  0.89999962399E+02 0.  0.
         12    1    1    2    0    0  0.49859617917E-01  0.59370340043E-01 -0.11777493957E+01  0.11802984613E+01  0.00000000000E+00 0. -1.
         11    1    3    3    0    0 -0.28797889315E+01  0.37004513341E+01  0.62718623406E+01  0.78308864024E+01  0.51100000000E-03 0. -1.
        -11    1    3    3    0    0  0.55557626192E+01  0.10141495688E+02  0.36472949102E+02  0.38262154272E+02  0.51100000000E-03 0.  1.
         12    1    3    3    0    0 -0.27258333057E+01 -0.13901317362E+02 -0.41567062047E+02  0.43914660864E+02  0.00000000000E+00 0. -1.
</event>
<event>
 7    1  0.2490895E-015  0.9000773E+02  0.7816164E-02  0.1186339E+00
        -11   -1    0    0    0    0  0.00000000000E+00  0.00000000000E+00  0.45593999997E+02  0.45594000000E+02  0.51100000000E-03 0. -1.
         11   -1    0    0    0    0 -0.00000000000E+00 -0.00000000000E+00 -0.45593999997E+02  0.45594000000E+02  0.51100000000E-03 0.  1.
    9900012    2    1    2    0    0 -0.11506624315E+01 -0.16385604552E+00  0.20534502213E+00  0.90007729093E+02  0.89999990317E+02 0.  0.
         12    1    1    2    0    0  0.11506624315E+01  0.16385604552E+00 -0.20534502213E+00  0.11802709066E+01  0.00000000000E+00 0. -1.
         11    1    3    3    0    0  0.82932316182E+01 -0.38100458968E+01  0.68044607736E+01  0.11383972377E+02  0.51100000000E-03 0. -1.
        -11    1    3    3    0    0 -0.29980123738E+01  0.40337388560E+02 -0.84612146064E+01  0.41324147262E+02  0.51100000000E-03 0.  1.
         12    1    3    3    0    0 -0.64458816759E+01 -0.36691198709E+02  0.18620988550E+01  0.37299609454E+02  0.00000000000E+00 0. -1.
</event>
<event>
 7    1  0.2490895E-015  0.9000765E+02  0.7816164E-02  0.1186339E+00
        -11   -1    0    0    0    0  0.00000000000E+00  0.00000000000E+00  0.45593999997E+02  0.45594000000E+02  0.51100000000E-03 0. -1.
         11   -1    0    0    0    0 -0.00000000000E+00 -0.00000000000E+00 -0.45593999997E+02  0.45594000000E+02  0.51100000000E-03 0.  1.
    9900012    2    1    2    0    0 -0.24535507846E+00  0.11075013808E+01  0.32629656928E+00  0.90007649258E+02  0.89999909428E+02 0.  0.
         12    1    1    2    0    0  0.24535507846E+00 -0.11075013808E+01 -0.32629656928E+00  0.11803507420E+01  0.00000000000E+00 0. -1.
         11    1    3    3    0    0  0.18784681181E+02  0.28179679109E+02  0.38563807169E+01  0.34085630906E+02  0.51100000000E-03 0. -1.
        -11    1    3    3    0    0  0.70053806066E+01  0.88344786036E+01  0.11010806245E+01  0.11328536907E+02  0.51100000000E-03 0.  1.
        -12    1    3    3    0    0 -0.26035416866E+02 -0.35906656332E+02 -0.46311647721E+01  0.44593481446E+02  0.00000000000E+00 0.  1.
</event>
<event>
 7    1  0.2490895E-015  0.9000768E+02  0.7816164E-02  0.1186339E+00
        -11   -1    0    0    0    0  0.00000000000E+00  0.00000000000E+00  0.45593999997E+02  0.45594000000E+02  0.51100000000E-03 0. -1.
         11   -1    0    0    0    0 -0.00000000000E+00 -0.00000000000E+00 -0.45593999997E+02  0.45594000000E+02  0.51100000000E-03 0.  1.
    9900012    2    1    2    0    0 -0.21705568624E+00  0.23261848658E+00 -0.11366312586E+01  0.90007680065E+02  0.89999940642E+02 0.  0.
         12    1    1    2    0    0  0.21705568624E+00 -0.23261848658E+00  0.11366312586E+01  0.11803199351E+01  0.00000000000E+00 0. -1.
         11    1    3    3    0    0  0.68944113321E+01  0.37883974349E+02  0.16971036629E+02  0.42080215121E+02  0.51100000000E-03 0. -1.
        -11    1    3    3    0    0 -0.89007912739E+01 -0.27373643738E+01 -0.51656188706E+01  0.10648984346E+02  0.51100000000E-03 0.  1.
        -12    1    3    3    0    0  0.17893242555E+01 -0.34913991489E+02 -0.12942049017E+02  0.37278480598E+02  0.00000000000E+00 0.  1.
</event>
<event>
 7    1  0.2490895E-015  0.9000773E+02  0.7816164E-02  0.1186339E+00
        -11   -1    0    0    0    0  0.00000000000E+00  0.00000000000E+00  0.45593999997E+02  0.45594000000E+02  0.51100000000E-03 0.  1.
         11   -1    0    0    0    0 -0.00000000000E+00 -0.00000000000E+00 -0.45593999997E+02  0.45594000000E+02  0.51100000000E-03 0. -1.
    9900012    2    1    2    0    0 -0.11604820832E+01 -0.21381656205E+00  0.24475642556E-01  0.90007730859E+02  0.89999992107E+02 0.  0.
         12    1    1    2    0    0  0.11604820832E+01  0.21381656205E+00 -0.24475642556E-01  0.11802691408E+01  0.00000000000E+00 0. -1.
         11    1    3    3    0    0 -0.12597420746E+02  0.11036473621E+02 -0.32150728965E+02  0.36251456973E+02  0.51100000000E-03 0. -1.
        -11    1    3    3    0    0  0.49476555017E+01 -0.20238010212E+00 -0.91970681680E+01  0.10445396872E+02  0.51100000000E-03 0.  1.
        -12    1    3    3    0    0  0.64892831607E+01 -0.11047910081E+02  0.41372272776E+02  0.43310877014E+02  0.00000000000E+00 0.  1.
</event>
<event>
 7    1  0.2490895E-015  0.9000776E+02  0.7816164E-02  0.1186339E+00
        -11   -1    0    0    0    0  0.00000000000E+00  0.00000000000E+00  0.45593999997E+02  0.45594000000E+02  0.51100000000E-03 0.  1.
         11   -1    0    0    0    0 -0.00000000000E+00 -0.00000000000E+00 -0.45593999997E+02  0.45594000000E+02  0.51100000000E-03 0. -1.
    9900012    2    1    2    0    0  0.18501667516E+00 -0.11642200387E+00  0.11598168640E+01  0.90007762562E+02  0.90000024227E+02 0.  0.
         12    1    1    2    0    0 -0.18501667516E+00  0.11642200387E+00 -0.11598168640E+01  0.11802374385E+01  0.00000000000E+00 0. -1.
         11    1    3    3    0    0 -0.21651181762E+02 -0.32791159343E+02 -0.87997902156E+01  0.40267482053E+02  0.51100000000E-03 0. -1.
        -11    1    3    3    0    0  0.65623096835E+01 -0.34706533556E+01 -0.35646112661E+01  0.82350347198E+01  0.51100000000E-03 0.  1.
        -12    1    3    3    0    0  0.15273888754E+02  0.36145390695E+02  0.13524218346E+02  0.41505245789E+02  0.00000000000E+00 0.  1.
</event>
<event>
 7    1  0.2490895E-015  0.9000777E+02  0.7816164E-02  0.1186339E+00
        -11   -1    0    0    0    0  0.00000000000E+00  0.00000000000E+00  0.45593999997E+02  0.45594000000E+02  0.51100000000E-03 0.  1.
         11   -1    0    0    0    0 -0.00000000000E+00 -0.00000000000E+00 -0.45593999997E+02  0.45594000000E+02  0.51100000000E-03 0. -1.
    9900012    2    1    2    0    0  0.84838350094E+00 -0.64455661334E+00  0.50768315710E+00  0.90007766980E+02  0.90000028705E+02 0.  0.
         12    1    1    2    0    0 -0.84838350094E+00  0.64455661334E+00 -0.50768315710E+00  0.11802330196E+01  0.00000000000E+00 0. -1.
         11    1    3    3    0    0  0.49297918755E+01  0.37373814442E+02 -0.71526565671E+01  0.38370110114E+02  0.51100000000E-03 0. -1.
        -11    1    3    3    0    0 -0.69587113732E+00 -0.12675582217E+01 -0.10434376086E+02  0.10534094411E+02  0.51100000000E-03 0.  1.
        -12    1    3    3    0    0 -0.33855372372E+01 -0.36750812834E+02  0.18094715810E+02  0.41103562456E+02  0.00000000000E+00 0.  1.
</event>
<event>
 7    1  0.2490895E-015  0.9000774E+02  0.7816164E-02  0.1186339E+00
        -11   -1    0    0    0    0  0.00000000000E+00  0.00000000000E+00  0.45593999997E+02  0.45594000000E+02  0.51100000000E-03 0. -1.
         11   -1    0    0    0    0 -0.00000000000E+00 -0.00000000000E+00 -0.45593999997E+02  0.45594000000E+02  0.51100000000E-03 0.  1.
    9900012    2    1    2    0    0 -0.18717380462E+00 -0.11637118955E+01  0.61235293569E-01  0.90007741905E+02  0.90000003299E+02 0.  0.
         12    1    1    2    0    0  0.18717380462E+00  0.11637118955E+01 -0.61235293569E-01  0.11802580946E+01  0.00000000000E+00 0. -1.
         11    1    3    3    0    0 -0.14995476639E+01 -0.52527024151E+01 -0.84927006988E+01  0.10097796358E+02  0.51100000000E-03 0. -1.
        -11    1    3    3    0    0 -0.46687662074E+01 -0.15521017534E+02 -0.31212366472E+02  0.35169748140E+02  0.51100000000E-03 0.  1.
         12    1    3    3    0    0  0.59811400667E+01  0.19610008054E+02  0.39766302465E+02  0.44740197408E+02  0.00000000000E+00 0. -1.
</event>
<event>
 7    1  0.2490895E-015  0.9000697E+02  0.7816164E-02  0.1186341E+00
        -11   -1    0    0    0    0  0.00000000000E+00  0.00000000000E+00  0.45593999997E+02  0.45594000000E+02  0.51100000000E-03 0.  1.
         11   -1    0    0    0    0 -0.00000000000E+00 -0.00000000000E+00 -0.45593999997E+02  0.45594000000E+02  0.51100000000E-03 0. -1.
    9900012    2    1    2    0    0 -0.14159396434E+00  0.96262941243E+00  0.66941664683E+00  0.90006973801E+02  0.89999225052E+02 0.  0.
         12    1    1    2    0    0  0.14159396434E+00 -0.96262941243E+00 -0.66941664683E+00  0.11810261993E+01  0.00000000000E+00 0. -1.
         11    1    3    3    0    0  0.35272377494E+01  0.58689902428E+01 -0.84038977382E+01  0.10840292896E+02  0.51100000000E-03 0. -1.
        -11    1    3    3    0    0 -0.39721819460E+02  0.41571180468E+01  0.12461778159E+02  0.41837787786E+02  0.51100000000E-03 0.  1.
         12    1    3    3    0    0  0.36052987746E+02 -0.90634788772E+01 -0.33884637741E+01  0.37328893119E+02  0.00000000000E+00 0. -1.
</event>
<event>
 7    1  0.2490895E-015  0.9000778E+02  0.7816164E-02  0.1186339E+00
        -11   -1    0    0    0    0  0.00000000000E+00  0.00000000000E+00  0.45593999997E+02  0.45594000000E+02  0.51100000000E-03 0.  1.
         11   -1    0    0    0    0 -0.00000000000E+00 -0.00000000000E+00 -0.45593999997E+02  0.45594000000E+02  0.51100000000E-03 0. -1.
    9900012    2    1    2    0    0 -0.43504631038E+00  0.99818080361E+00  0.45530020891E+00  0.90007776085E+02  0.90000037929E+02 0.  0.
         12    1    1    2    0    0  0.43504631038E+00 -0.99818080361E+00 -0.45530020891E+00  0.11802239148E+01  0.00000000000E+00 0. -1.
         11    1    3    3    0    0 -0.90771777558E+01 -0.42208207035E+01  0.27895216194E+02  0.29637030387E+02  0.51100000000E-03 0. -1.
        -11    1    3    3    0    0  0.23591524301E+02  0.96103220256E+01  0.35154098307E+01  0.25715295348E+02  0.51100000000E-03 0.  1.
        -12    1    3    3    0    0 -0.14949392855E+02 -0.43913205185E+01 -0.30955325816E+02  0.34655450350E+02  0.00000000000E+00 0.  1.
</event>
<event>
 7    1  0.2490895E-015  0.9000747E+02  0.7816164E-02  0.1186340E+00
        -11   -1    0    0    0    0  0.00000000000E+00  0.00000000000E+00  0.45593999997E+02  0.45594000000E+02  0.51100000000E-03 0.  1.
         11   -1    0    0    0    0 -0.00000000000E+00 -0.00000000000E+00 -0.45593999997E+02  0.45594000000E+02  0.51100000000E-03 0. -1.
    9900012    2    1    2    0    0 -0.10203339821E+01  0.14549506078E-01  0.59358755514E+00  0.90007474986E+02  0.89999732855E+02 0.  0.
         12    1    1    2    0    0  0.10203339821E+01 -0.14549506078E-01 -0.59358755514E+00  0.11805250141E+01  0.00000000000E+00 0. -1.
         11    1    3    3    0    0  0.66640118677E+01  0.22139963561E+02 -0.26229113506E+02  0.34965031621E+02  0.51100000000E-03 0. -1.
        -11    1    3    3    0    0  0.68901686556E+01  0.61316490394E+01 -0.46292260061E+01  0.10319945626E+02  0.51100000000E-03 0.  1.
        -12    1    3    3    0    0 -0.14574514505E+02 -0.28257063094E+02  0.31451927068E+02  0.44722497739E+02  0.00000000000E+00 0.  1.
</event>
<event>
 7    1  0.2490895E-015  0.9000772E+02  0.7816164E-02  0.1186339E+00
        -11   -1    0    0    0    0  0.00000000000E+00  0.00000000000E+00  0.45593999997E+02  0.45594000000E+02  0.51100000000E-03 0. -1.
         11   -1    0    0    0    0 -0.00000000000E+00 -0.00000000000E+00 -0.45593999997E+02  0.45594000000E+02  0.51100000000E-03 0.  1.
    9900012    2    1    2    0    0 -0.95853968386E+00  0.68584810875E+00 -0.62266730921E-01  0.90007719059E+02  0.89999980151E+02 0.  0.
         12    1    1    2    0    0  0.95853968386E+00 -0.68584810875E+00  0.62266730921E-01  0.11802809410E+01  0.00000000000E+00 0. -1.
         11    1    3    3    0    0 -0.52032968411E+01  0.12415742569E+02  0.39603683981E+01  0.14032443823E+02  0.51100000000E-03 0. -1.
        -11    1    3    3    0    0 -0.95913888073E+01  0.29693150457E+02  0.43550559255E+01  0.31506260262E+02  0.51100000000E-03 0.  1.
         12    1    3    3    0    0  0.13836145965E+02 -0.41423044917E+02 -0.83776910546E+01  0.44469014974E+02  0.00000000000E+00 0. -1.
</event>
<event>
 7    1  0.2490895E-015  0.9000777E+02  0.7816164E-02  0.1186339E+00
        -11   -1    0    0    0    0  0.00000000000E+00  0.00000000000E+00  0.45593999997E+02  0.45594000000E+02  0.51100000000E-03 0. -1.
         11   -1    0    0    0    0 -0.00000000000E+00 -0.00000000000E+00 -0.45593999997E+02  0.45594000000E+02  0.51100000000E-03 0.  1.
    9900012    2    1    2    0    0 -0.10229436823E+01  0.57332187034E+00 -0.13352853127E+00  0.90007770525E+02  0.90000032296E+02 0.  0.
         12    1    1    2    0    0  0.10229436823E+01 -0.57332187034E+00  0.13352853127E+00  0.11802294747E+01  0.00000000000E+00 0. -1.
         11    1    3    3    0    0 -0.73894659170E+01  0.11019593959E+02  0.82560110227E+01  0.15626815921E+02  0.51100000000E-03 0. -1.
        -11    1    3    3    0    0 -0.31146715564E+02  0.77137084421E+01 -0.59279518900E+01  0.32630657398E+02  0.51100000000E-03 0.  1.
         12    1    3    3    0    0  0.37513237799E+02 -0.18159980531E+02 -0.24615876640E+01  0.41750297207E+02  0.00000000000E+00 0. -1.
</event>
<event>
 7    1  0.2490895E-015  0.9000787E+02  0.7816164E-02  0.1186339E+00
        -11   -1    0    0    0    0  0.00000000000E+00  0.00000000000E+00  0.45593999997E+02  0.45594000000E+02  0.51100000000E-03 0. -1.
         11   -1    0    0    0    0 -0.00000000000E+00 -0.00000000000E+00 -0.45593999997E+02  0.45594000000E+02  0.51100000000E-03 0.  1.
    9900012    2    1    2    0    0  0.35654148267E-01  0.11688603009E+01 -0.15875285740E+00  0.90007869460E+02  0.90000132537E+02 0.  0.
         12    1    1    2    0    0 -0.35654148267E-01 -0.11688603009E+01  0.15875285740E+00  0.11801305398E+01  0.00000000000E+00 0. -1.
         11    1    3    3    0    0  0.81553224405E+01  0.11163095843E+01  0.22740361707E+01  0.85397114684E+01  0.51100000000E-03 0. -1.
        -11    1    3    3    0    0  0.35297785087E+02 -0.35543871242E+01  0.86458132032E+01  0.36514618799E+02  0.51100000000E-03 0.  1.
         12    1    3    3    0    0 -0.43417453379E+02  0.36069378408E+01 -0.11078602231E+02  0.44953539192E+02  0.00000000000E+00 0. -1.
</event>
<event>
 7    1  0.2490895E-015  0.9000789E+02  0.7816164E-02  0.1186339E+00
        -11   -1    0    0    0    0  0.00000000000E+00  0.00000000000E+00  0.45593999997E+02  0.45594000000E+02  0.51100000000E-03 0. -1.
         11   -1    0    0    0    0 -0.00000000000E+00 -0.00000000000E+00 -0.45593999997E+02  0.45594000000E+02  0.51100000000E-03 0.  1.
    9900012    2    1    2    0    0  0.85565293131E+00 -0.79752114623E+00 -0.15645978051E+00  0.90007889166E+02  0.90000152503E+02 0.  0.
         12    1    1    2    0    0 -0.85565293131E+00  0.79752114623E+00  0.15645978051E+00  0.11801108340E+01  0.00000000000E+00 0. -1.
         11    1    3    3    0    0 -0.41369569234E+01 -0.90067980595E+01  0.78254313314E+00  0.99422933917E+01  0.51100000000E-03 0. -1.
        -11    1    3    3    0    0 -0.16307919611E+02 -0.29669124074E+02  0.99078554604E+01  0.35275639830E+02  0.51100000000E-03 0.  1.
         12    1    3    3    0    0  0.21300529466E+02  0.37878400987E+02 -0.10846858374E+02  0.44789955944E+02  0.00000000000E+00 0. -1.
</event>
<event>
 7    1  0.2490895E-015  0.9000782E+02  0.7816164E-02  0.1186339E+00
        -11   -1    0    0    0    0  0.00000000000E+00  0.00000000000E+00  0.45593999997E+02  0.45594000000E+02  0.51100000000E-03 0.  1.
         11   -1    0    0    0    0 -0.00000000000E+00 -0.00000000000E+00 -0.45593999997E+02  0.45594000000E+02  0.51100000000E-03 0. -1.
    9900012    2    1    2    0    0 -0.42896690162E+00  0.83605663270E+00  0.71401409400E+00  0.90007822292E+02  0.90000084746E+02 0.  0.
         12    1    1    2    0    0  0.42896690162E+00 -0.83605663270E+00 -0.71401409400E+00  0.11801777079E+01  0.00000000000E+00 0. -1.
         11    1    3    3    0    0  0.90147282855E+01  0.11948056655E+01 -0.10377102197E+02  0.13797722164E+02  0.51100000000E-03 0. -1.
        -11    1    3    3    0    0  0.29050086822E+02 -0.98859960434E+01 -0.86928669922E+01  0.31893673337E+02  0.51100000000E-03 0.  1.
         12    1    3    3    0    0 -0.38493782009E+02  0.95272470106E+01  0.19783983283E+02  0.44316426791E+02  0.00000000000E+00 0. -1.
</event>
<event>
 7    1  0.2490895E-015  0.9000768E+02  0.7816164E-02  0.1186339E+00
        -11   -1    0    0    0    0  0.00000000000E+00  0.00000000000E+00  0.45593999997E+02  0.45594000000E+02  0.51100000000E-03 0.  1.
         11   -1    0    0    0    0 -0.00000000000E+00 -0.00000000000E+00 -0.45593999997E+02  0.45594000000E+02  0.51100000000E-03 0. -1.
    9900012    2    1    2    0    0 -0.61258483517E+00  0.80150477074E+00 -0.61276975544E+00  0.90007679344E+02  0.89999939911E+02 0.  0.
         12    1    1    2    0    0  0.61258483517E+00 -0.80150477074E+00  0.61276975544E+00  0.11803206560E+01  0.00000000000E+00 0. -1.
         11    1    3    3    0    0  0.17242185172E+02 -0.79403987984E+01 -0.32919092373E+02  0.38000125336E+02  0.51100000000E-03 0. -1.
        -11    1    3    3    0    0  0.58424906170E+01  0.71418079269E+01 -0.27811375686E+01  0.96371595147E+01  0.51100000000E-03 0.  1.
        -12    1    3    3    0    0 -0.23697260625E+02  0.16000956422E+01  0.35087460187E+02  0.42370394493E+02  0.00000000000E+00 0.  1.
</event>
<event>
 7    1  0.2949695E-015  0.9000776E+02  0.7816164E-02  0.1186339E+00
        -11   -1    0    0    0    0  0.00000000000E+00  0.00000000000E+00  0.45593999997E+02  0.45594000000E+02  0.51100000000E-03 0. -1.
         11   -1    0    0    0    0 -0.00000000000E+00 -0.00000000000E+00 -0.45593999997E+02  0.45594000000E+02  0.51100000000E-03 0.  1.
    9900012    2    1    2    0    0  0.11343181337E+01 -0.32520974570E+00  0.23075533241E-01  0.90007757869E+02  0.90000019473E+02 0.  0.
         12    1    1    2    0    0 -0.11343181337E+01  0.32520974570E+00 -0.23075533241E-01  0.11802421308E+01  0.00000000000E+00 0. -1.
         11    1    3    3    0    0 -0.20254841161E+02  0.12909515359E+02  0.30497098176E+02  0.38819932698E+02  0.51100000000E-03 0. -1.
        -11    1    3    3    0    0 -0.83865118893E+01 -0.25284041837E+01 -0.29288774432E+01  0.92360561239E+01  0.51100000000E-03 0.  1.
        -12    1    3    3    0    0  0.29775671184E+02 -0.10706320921E+02 -0.27545145199E+02  0.41951769047E+02  0.00000000000E+00 0.  1.
</event>
<event>
 7    1  0.2490895E-015  0.9000768E+02  0.7816164E-02  0.1186339E+00
        -11   -1    0    0    0    0  0.00000000000E+00  0.00000000000E+00  0.45593999997E+02  0.45594000000E+02  0.51100000000E-03 0.  1.
         11   -1    0    0    0    0 -0.00000000000E+00 -0.00000000000E+00 -0.45593999997E+02  0.45594000000E+02  0.51100000000E-03 0. -1.
    9900012    2    1    2    0    0 -0.86514353928E+00 -0.26776428413E-01  0.80248020215E+00  0.90007675979E+02  0.89999936501E+02 0.  0.
         12    1    1    2    0    0  0.86514353928E+00  0.26776428413E-01 -0.80248020215E+00  0.11803240214E+01  0.00000000000E+00 0. -1.
         11    1    3    3    0    0 -0.53132281657E+01  0.14160834450E+02 -0.38165292306E+02  0.41053004311E+02  0.51100000000E-03 0. -1.
        -11    1    3    3    0    0  0.57943598081E+01 -0.15726712635E+01 -0.17923675877E+01  0.62658185674E+01  0.51100000000E-03 0.  1.
        -12    1    3    3    0    0 -0.13462751817E+01 -0.12614939615E+02  0.40760140096E+02  0.42688853100E+02  0.00000000000E+00 0.  1.
</event>
<event>
 7    1  0.2490895E-015  0.9000776E+02  0.7816164E-02  0.1186339E+00
        -11   -1    0    0    0    0  0.00000000000E+00  0.00000000000E+00  0.45593999997E+02  0.45594000000E+02  0.51100000000E-03 0.  1.
         11   -1    0    0    0    0 -0.00000000000E+00 -0.00000000000E+00 -0.45593999997E+02  0.45594000000E+02  0.51100000000E-03 0. -1.
    9900012    2    1    2    0    0 -0.84328926861E-01 -0.71791818019E+00  0.93298391168E+00  0.90007755593E+02  0.90000017167E+02 0.  0.
         12    1    1    2    0    0  0.84328926861E-01  0.71791818019E+00 -0.93298391168E+00  0.11802444072E+01  0.00000000000E+00 0. -1.
         11    1    3    3    0    0  0.15960522380E+02  0.20352162090E+02 -0.32539726185E+02  0.41566603865E+02  0.51100000000E-03 0. -1.
        -11    1    3    3    0    0  0.29300083113E+01  0.12694328639E+01  0.11149940720E+02  0.11598171701E+02  0.51100000000E-03 0.  1.
        -12    1    3    3    0    0 -0.18974859618E+02 -0.22339513134E+02  0.22322769377E+02  0.36842980027E+02  0.00000000000E+00 0.  1.
</event>
<event>
 7    1  0.2490895E-015  0.9000763E+02  0.7816164E-02  0.1186339E+00
        -11   -1    0    0    0    0  0.00000000000E+00  0.00000000000E+00  0.45593999997E+02  0.45594000000E+02  0.51100000000E-03 0.  1.
         11   -1    0    0    0    0 -0.00000000000E+00 -0.00000000000E+00 -0.45593999997E+02  0.45594000000E+02  0.51100000000E-03 0. -1.
    9900012    2    1    2    0    0 -0.78704099538E+00 -0.47846209178E+00 -0.73817666333E+00  0.90007633833E+02  0.89999893800E+02 0.  0.
         12    1    1    2    0    0  0.78704099538E+00  0.47846209178E+00  0.73817666333E+00  0.11803661669E+01  0.00000000000E+00 0. -1.
         11    1    3    3    0    0 -0.86860721110E+01  0.42579207096E+01  0.65771015148E+01  0.11697692169E+02  0.51100000000E-03 0. -1.
        -11    1    3    3    0    0 -0.51184156151E+01 -0.15902697712E+02  0.31621525991E+02  0.35763317509E+02  0.51100000000E-03 0.  1.
         12    1    3    3    0    0  0.13017446731E+02  0.11166314911E+02 -0.38936804170E+02  0.42546624155E+02  0.00000000000E+00 0. -1.
</event>
<event>
 7    1  0.2490895E-015  0.9000807E+02  0.7816164E-02  0.1186338E+00
        -11   -1    0    0    0    0  0.00000000000E+00  0.00000000000E+00  0.45593999997E+02  0.45594000000E+02  0.51100000000E-03 0.  1.
         11   -1    0    0    0    0 -0.00000000000E+00 -0.00000000000E+00 -0.45593999997E+02  0.45594000000E+02  0.51100000000E-03 0. -1.
    9900012    2    1    2    0    0  0.11765976332E+01  0.14364217359E-01  0.87394458577E-01  0.90008073683E+02  0.90000339455E+02 0.  0.
         12    1    1    2    0    0 -0.11765976332E+01 -0.14364217359E-01 -0.87394458577E-01  0.11799263166E+01  0.00000000000E+00 0. -1.
         11    1    3    3    0    0 -0.47327096551E+01 -0.76956175858E+01 -0.17867707091E+01  0.92094310647E+01  0.51100000000E-03 0. -1.
        -11    1    3    3    0    0  0.35470333265E+02 -0.60231385408E+01 -0.20362577600E+02  0.41340746323E+02  0.51100000000E-03 0.  1.
         12    1    3    3    0    0 -0.29561025976E+02  0.13733120344E+02  0.22236742768E+02  0.39457896296E+02  0.00000000000E+00 0. -1.
</event>
<event>
 7    1  0.2490895E-015  0.9000729E+02  0.7816164E-02  0.1186340E+00
        -11   -1    0    0    0    0  0.00000000000E+00  0.00000000000E+00  0.45593999997E+02  0.45594000000E+02  0.51100000000E-03 0. -1.
         11   -1    0    0    0    0 -0.00000000000E+00 -0.00000000000E+00 -0.45593999997E+02  0.45594000000E+02  0.51100000000E-03 0.  1.
    9900012    2    1    2    0    0 -0.23382092398E+00 -0.11132788419E+01  0.31625904210E+00  0.90007287594E+02  0.89999542989E+02 0.  0.
         12    1    1    2    0    0  0.23382092398E+00  0.11132788419E+01 -0.31625904210E+00  0.11807124061E+01  0.00000000000E+00 0. -1.
         11    1    3    3    0    0 -0.18478376869E+02  0.23697825519E+02  0.22214101685E+02  0.37369822852E+02  0.51100000000E-03 0. -1.
        -11    1    3    3    0    0 -0.91658455540E+01 -0.74391013509E+01  0.24636903409E+01  0.12059134463E+02  0.51100000000E-03 0.  1.
        -12    1    3    3    0    0  0.27410401500E+02 -0.17372003010E+02 -0.24361532984E+02  0.40578330279E+02  0.00000000000E+00 0.  1.
</event>
<event>
 7    1  0.2490895E-015  0.9000763E+02  0.7816164E-02  0.1186339E+00
        -11   -1    0    0    0    0  0.00000000000E+00  0.00000000000E+00  0.45593999997E+02  0.45594000000E+02  0.51100000000E-03 0. -1.
         11   -1    0    0    0    0 -0.00000000000E+00 -0.00000000000E+00 -0.45593999997E+02  0.45594000000E+02  0.51100000000E-03 0.  1.
    9900012    2    1    2    0    0  0.71844648067E+00  0.20335662828E+00 -0.91418987874E+00  0.90007634634E+02  0.89999894611E+02 0.  0.
         12    1    1    2    0    0 -0.71844648067E+00 -0.20335662828E+00  0.91418987874E+00  0.11803653664E+01  0.00000000000E+00 0. -1.
         11    1    3    3    0    0 -0.18724939858E+01  0.35299661073E+02 -0.13856906149E+02  0.37968225582E+02  0.51100000000E-03 0. -1.
        -11    1    3    3    0    0 -0.14789636744E+01  0.20037072098E+01 -0.85948060573E+01  0.89483444031E+01  0.51100000000E-03 0.  1.
        -12    1    3    3    0    0  0.40699041409E+01 -0.37100011655E+02  0.21537522328E+02  0.43091064648E+02  0.00000000000E+00 0.  1.
</event>
<event>
 7    1  0.2490895E-015  0.9000775E+02  0.7816164E-02  0.1186339E+00
        -11   -1    0    0    0    0  0.00000000000E+00  0.00000000000E+00  0.45593999997E+02  0.45594000000E+02  0.51100000000E-03 0. -1.
         11   -1    0    0    0    0 -0.00000000000E+00 -0.00000000000E+00 -0.45593999997E+02  0.45594000000E+02  0.51100000000E-03 0.  1.
    9900012    2    1    2    0    0 -0.39636498075E+00  0.10922232216E+01 -0.20718551592E+00  0.90007753161E+02  0.90000014702E+02 0.  0.
         12    1    1    2    0    0  0.39636498075E+00 -0.10922232216E+01  0.20718551592E+00  0.11802468394E+01  0.00000000000E+00 0. -1.
         11    1    3    3    0    0 -0.30838196687E+02 -0.29060967528E+01  0.19576771319E+02  0.36642731186E+02  0.51100000000E-03 0. -1.
        -11    1    3    3    0    0 -0.93760775106E+01  0.25522419835E+01 -0.37521700745E+01  0.10416503692E+02  0.51100000000E-03 0.  1.
        -12    1    3    3    0    0  0.39817909217E+02  0.14460779909E+01 -0.16031786761E+02  0.42948518283E+02  0.00000000000E+00 0.  1.
</event>
<event>
 7    1  0.2490895E-015  0.9000769E+02  0.7816164E-02  0.1186339E+00
        -11   -1    0    0    0    0  0.00000000000E+00  0.00000000000E+00  0.45593999997E+02  0.45594000000E+02  0.51100000000E-03 0.  1.
         11   -1    0    0    0    0 -0.00000000000E+00 -0.00000000000E+00 -0.45593999997E+02  0.45594000000E+02  0.51100000000E-03 0. -1.
    9900012    2    1    2    0    0 -0.98647110099E+00 -0.39201228444E+00 -0.51607262317E+00  0.90007690796E+02  0.89999951515E+02 0.  0.
         12    1    1    2    0    0  0.98647110099E+00  0.39201228444E+00  0.51607262317E+00  0.11803092038E+01  0.00000000000E+00 0. -1.
         11    1    3    3    0    0  0.26333213074E+02 -0.22970625522E+01 -0.27211697811E+02  0.37936672300E+02  0.51100000000E-03 0. -1.
        -11    1    3    3    0    0 -0.62775757284E+01 -0.26022725400E+01 -0.84604338284E+01  0.10851669006E+02  0.51100000000E-03 0.  1.
        -12    1    3    3    0    0 -0.21042108447E+02  0.45073228077E+01  0.35156059016E+02  0.41219349490E+02  0.00000000000E+00 0.  1.
</event>
<event>
 7    1  0.2490895E-015  0.9000775E+02  0.7816164E-02  0.1186339E+00
        -11   -1    0    0    0    0  0.00000000000E+00  0.00000000000E+00  0.45593999997E+02  0.45594000000E+02  0.51100000000E-03 0.  1.
         11   -1    0    0    0    0 -0.00000000000E+00 -0.00000000000E+00 -0.45593999997E+02  0.45594000000E+02  0.51100000000E-03 0. -1.
    9900012    2    1    2    0    0 -0.84975339284E+00  0.51157334072E+00  0.63968641555E+00  0.90007751373E+02  0.90000012891E+02 0.  0.
         12    1    1    2    0    0  0.84975339284E+00 -0.51157334072E+00 -0.63968641555E+00  0.11802486271E+01  0.00000000000E+00 0. -1.
         11    1    3    3    0    0 -0.21076794407E+00  0.14607202572E+01 -0.74527994763E+01  0.75975224311E+01  0.51100000000E-03 0. -1.
        -11    1    3    3    0    0  0.24040528021E+02  0.21318011514E+02 -0.20877061541E+02  0.38317832680E+02  0.51100000000E-03 0.  1.
         12    1    3    3    0    0 -0.24679513470E+02 -0.22267158430E+02  0.28969547433E+02  0.44092396262E+02  0.00000000000E+00 0. -1.
</event>
<event>
 7    1  0.2490895E-015  0.9000736E+02  0.7816164E-02  0.1186340E+00
        -11   -1    0    0    0    0  0.00000000000E+00  0.00000000000E+00  0.45593999997E+02  0.45594000000E+02  0.51100000000E-03 0. -1.
         11   -1    0    0    0    0 -0.00000000000E+00 -0.00000000000E+00 -0.45593999997E+02  0.45594000000E+02  0.51100000000E-03 0.  1.
    9900012    2    1    2    0    0 -0.93395761541E+00 -0.39019252964E+00 -0.60777917920E+00  0.90007355020E+02  0.89999611306E+02 0.  0.
         12    1    1    2    0    0  0.93395761541E+00  0.39019252964E+00  0.60777917920E+00  0.11806449798E+01  0.00000000000E+00 0. -1.
         11    1    3    3    0    0  0.35359967397E+02  0.10356294333E+01  0.40014870227E+01  0.35600726415E+02  0.51100000000E-03 0. -1.
        -11    1    3    3    0    0  0.67617098840E+01 -0.77604019466E+01 -0.35055014440E+01  0.10873504475E+02  0.51100000000E-03 0.  1.
        -12    1    3    3    0    0 -0.43055634896E+02  0.63345799836E+01 -0.11037647579E+01  0.43533124130E+02  0.00000000000E+00 0.  1.
</event>
<event>
 7    1  0.2490895E-015  0.9000787E+02  0.7816164E-02  0.1186339E+00
        -11   -1    0    0    0    0  0.00000000000E+00  0.00000000000E+00  0.45593999997E+02  0.45594000000E+02  0.51100000000E-03 0. -1.
         11   -1    0    0    0    0 -0.00000000000E+00 -0.00000000000E+00 -0.45593999997E+02  0.45594000000E+02  0.51100000000E-03 0.  1.
    9900012    2    1    2    0    0 -0.87441399114E+00 -0.34408868614E+00  0.71394659797E+00  0.90007865857E+02  0.90000128886E+02 0.  0.
         12    1    1    2    0    0  0.87441399114E+00  0.34408868614E+00 -0.71394659797E+00  0.11801341435E+01  0.00000000000E+00 0. -1.
         11    1    3    3    0    0 -0.58185132551E+01 -0.49010872395E+01 -0.62449490464E+01  0.98425170298E+01  0.51100000000E-03 0. -1.
        -11    1    3    3    0    0 -0.17908639801E+02 -0.16413574736E+02 -0.25535263611E+02  0.35244496068E+02  0.51100000000E-03 0.  1.
         12    1    3    3    0    0  0.22852739065E+02  0.20970573289E+02  0.32494159255E+02  0.44920852759E+02  0.00000000000E+00 0. -1.
</event>
<event>
 7    1  0.2490895E-015  0.9000769E+02  0.7816164E-02  0.1186339E+00
        -11   -1    0    0    0    0  0.00000000000E+00  0.00000000000E+00  0.45593999997E+02  0.45594000000E+02  0.51100000000E-03 0.  1.
         11   -1    0    0    0    0 -0.00000000000E+00 -0.00000000000E+00 -0.45593999997E+02  0.45594000000E+02  0.51100000000E-03 0. -1.
    9900012    2    1    2    0    0 -0.39669854526E+00 -0.19657393806E+00  0.10941341705E+01  0.90007686215E+02  0.89999946873E+02 0.  0.
         12    1    1    2    0    0  0.39669854526E+00  0.19657393806E+00 -0.10941341705E+01  0.11803137854E+01  0.00000000000E+00 0. -1.
         11    1    3    3    0    0 -0.44258047224E+01 -0.29901334032E+01  0.82605130065E+01  0.98369060483E+01  0.51100000000E-03 0. -1.
        -11    1    3    3    0    0 -0.17225658999E+02 -0.77870140214E+01  0.30359907858E+02  0.35764296732E+02  0.51100000000E-03 0.  1.
         12    1    3    3    0    0  0.21254765176E+02  0.10580573487E+02 -0.37526286694E+02  0.44406483435E+02  0.00000000000E+00 0. -1.
</event>
<event>
 7    1  0.2490895E-015  0.9000773E+02  0.7816164E-02  0.1186339E+00
        -11   -1    0    0    0    0  0.00000000000E+00  0.00000000000E+00  0.45593999997E+02  0.45594000000E+02  0.51100000000E-03 0.  1.
         11   -1    0    0    0    0 -0.00000000000E+00 -0.00000000000E+00 -0.45593999997E+02  0.45594000000E+02  0.51100000000E-03 0. -1.
    9900012    2    1    2    0    0  0.10264704330E+01  0.55740765282E+00 -0.16941139845E+00  0.90007726700E+02  0.89999987892E+02 0.  0.
         12    1    1    2    0    0 -0.10264704330E+01 -0.55740765282E+00  0.16941139845E+00  0.11802733002E+01  0.00000000000E+00 0. -1.
         11    1    3    3    0    0  0.10952155346E+02 -0.79388467920E+01 -0.35834856295E+02  0.38302897032E+02  0.51100000000E-03 0. -1.
        -11    1    3    3    0    0 -0.61449073220E+01 -0.42875634082E+01 -0.49348113745E+01  0.89719256315E+01  0.51100000000E-03 0.  1.
        -12    1    3    3    0    0 -0.37807775907E+01  0.12783817853E+02  0.40600256271E+02  0.42732904036E+02  0.00000000000E+00 0.  1.
</event>
<event>
 7    1  0.2490895E-015  0.9000782E+02  0.7816164E-02  0.1186339E+00
        -11   -1    0    0    0    0  0.00000000000E+00  0.00000000000E+00  0.45593999997E+02  0.45594000000E+02  0.51100000000E-03 0.  1.
         11   -1    0    0    0    0 -0.00000000000E+00 -0.00000000000E+00 -0.45593999997E+02  0.45594000000E+02  0.51100000000E-03 0. -1.
    9900012    2    1    2    0    0 -0.59157101285E+00  0.51493880348E-01  0.10199145416E+01  0.90007816305E+02  0.90000078680E+02 0.  0.
         12    1    1    2    0    0  0.59157101285E+00 -0.51493880348E-01 -0.10199145416E+01  0.11801836955E+01  0.00000000000E+00 0. -1.
         11    1    3    3    0    0 -0.23457900685E+02  0.12699300136E+02 -0.32243437659E+02  0.41847157620E+02  0.51100000000E-03 0. -1.
        -11    1    3    3    0    0  0.86330646237E+01 -0.68222202493E+01 -0.54695647579E+00  0.11016880483E+02  0.51100000000E-03 0.  1.
        -12    1    3    3    0    0  0.14233265049E+02 -0.58255860068E+01  0.33810308677E+02  0.37143778202E+02  0.00000000000E+00 0.  1.
</event>
<event>
 7    1  0.2490895E-015  0.9000774E+02  0.7816164E-02  0.1186339E+00
        -11   -1    0    0    0    0  0.00000000000E+00  0.00000000000E+00  0.45593999997E+02  0.45594000000E+02  0.51100000000E-03 0.  1.
         11   -1    0    0    0    0 -0.00000000000E+00 -0.00000000000E+00 -0.45593999997E+02  0.45594000000E+02  0.51100000000E-03 0. -1.
    9900012    2    1    2    0    0  0.56634398250E+00  0.93206062068E+00  0.45114308873E+00  0.90007740455E+02  0.90000001829E+02 0.  0.
         12    1    1    2    0    0 -0.56634398250E+00 -0.93206062068E+00 -0.45114308873E+00  0.11802595450E+01  0.00000000000E+00 0. -1.
         11    1    3    3    0    0  0.65375178784E+01  0.76719189982E+01 -0.16197476290E+00  0.10080858952E+02  0.51100000000E-03 0. -1.
        -11    1    3    3    0    0  0.24787789011E+01  0.12513963208E+02  0.36316560200E+02  0.38492027292E+02  0.51100000000E-03 0.  1.
         12    1    3    3    0    0 -0.84499527970E+01 -0.19253821585E+02 -0.35703442349E+02  0.41434854211E+02  0.00000000000E+00 0. -1.
</event>
<event>
 7    1  0.2490895E-015  0.9000778E+02  0.7816164E-02  0.1186339E+00
        -11   -1    0    0    0    0  0.00000000000E+00  0.00000000000E+00  0.45593999997E+02  0.45594000000E+02  0.51100000000E-03 0.  1.
         11   -1    0    0    0    0 -0.00000000000E+00 -0.00000000000E+00 -0.45593999997E+02  0.45594000000E+02  0.51100000000E-03 0. -1.
    9900012    2    1    2    0    0  0.97280776617E-01  0.11460769357E+01  0.26450644831E+00  0.90007779871E+02  0.90000041765E+02 0.  0.
         12    1    1    2    0    0 -0.97280776617E-01 -0.11460769357E+01 -0.26450644831E+00  0.11802201292E+01  0.00000000000E+00 0. -1.
         11    1    3    3    0    0 -0.78240645456E+01 -0.16112201984E+02 -0.35314128083E+02  0.39596801403E+02  0.51100000000E-03 0. -1.
        -11    1    3    3    0    0 -0.42020260468E+01  0.89238051650E+01 -0.19918417174E+01  0.10062740939E+02  0.51100000000E-03 0.  1.
        -12    1    3    3    0    0  0.12123371369E+02  0.83344737550E+01  0.37570476249E+02  0.40348237529E+02  0.00000000000E+00 0.  1.
</event>
<event>
 7    1  0.2490895E-015  0.9000773E+02  0.7816164E-02  0.1186339E+00
        -11   -1    0    0    0    0  0.00000000000E+00  0.00000000000E+00  0.45593999997E+02  0.45594000000E+02  0.51100000000E-03 0.  1.
         11   -1    0    0    0    0 -0.00000000000E+00 -0.00000000000E+00 -0.45593999997E+02  0.45594000000E+02  0.51100000000E-03 0. -1.
    9900012    2    1    2    0    0 -0.81448691984E+00 -0.85121082743E+00  0.71413721351E-01  0.90007725144E+02  0.89999986316E+02 0.  0.
         12    1    1    2    0    0  0.81448691984E+00  0.85121082743E+00 -0.71413721351E-01  0.11802748557E+01  0.00000000000E+00 0. -1.
         11    1    3    3    0    0  0.30940428590E+01  0.63554544882E+00 -0.43091683289E+02  0.43207293229E+02  0.51100000000E-03 0. -1.
        -11    1    3    3    0    0  0.61628918694E+01 -0.15986581721E+01  0.80059864063E+01  0.10229015727E+02  0.51100000000E-03 0.  1.
        -12    1    3    3    0    0 -0.10071421648E+02  0.11190189583E+00  0.35157110604E+02  0.36571416189E+02  0.00000000000E+00 0.  1.
</event>
<event>
 7    1  0.2490895E-015  0.9000652E+02  0.7816164E-02  0.1186341E+00
        -11   -1    0    0    0    0  0.00000000000E+00  0.00000000000E+00  0.45593999997E+02  0.45594000000E+02  0.51100000000E-03 0.  1.
         11   -1    0    0    0    0 -0.00000000000E+00 -0.00000000000E+00 -0.45593999997E+02  0.45594000000E+02  0.51100000000E-03 0. -1.
    9900012    2    1    2    0    0 -0.81521589680E+00 -0.62898313888E+00  0.57938480706E+00  0.90006524862E+02  0.89998770182E+02 0.  0.
         12    1    1    2    0    0  0.81521589680E+00  0.62898313888E+00 -0.57938480706E+00  0.11814751381E+01  0.00000000000E+00 0. -1.
         11    1    3    3    0    0 -0.10312849324E+02  0.45937366268E+01 -0.48891722785E+01  0.12302897350E+02  0.51100000000E-03 0. -1.
        -11    1    3    3    0    0  0.12261435028E+02  0.89354658559E+00  0.40350522740E+02  0.42181819544E+02  0.51100000000E-03 0.  1.
         12    1    3    3    0    0 -0.27638016005E+01 -0.61162663512E+01 -0.34881965654E+02  0.35521807967E+02  0.00000000000E+00 0. -1.
</event>
<event>
 7    1  0.2490895E-015  0.9000788E+02  0.7816164E-02  0.1186339E+00
        -11   -1    0    0    0    0  0.00000000000E+00  0.00000000000E+00  0.45593999997E+02  0.45594000000E+02  0.51100000000E-03 0. -1.
         11   -1    0    0    0    0 -0.00000000000E+00 -0.00000000000E+00 -0.45593999997E+02  0.45594000000E+02  0.51100000000E-03 0.  1.
    9900012    2    1    2    0    0  0.74020266504E+00 -0.43866116245E+00 -0.80769015896E+00  0.90007878399E+02  0.90000141594E+02 0.  0.
         12    1    1    2    0    0 -0.74020266504E+00  0.43866116245E+00  0.80769015896E+00  0.11801216012E+01  0.00000000000E+00 0. -1.
         11    1    3    3    0    0  0.15800729562E+01 -0.65283925154E+01 -0.52594865918E+01  0.85310455897E+01  0.51100000000E-03 0. -1.
        -11    1    3    3    0    0 -0.20181041340E+01 -0.35321424551E+02 -0.11323579083E+02  0.37146994766E+02  0.51100000000E-03 0.  1.
         12    1    3    3    0    0  0.11782338428E+01  0.41411155904E+02  0.15775375516E+02  0.44329838043E+02  0.00000000000E+00 0. -1.
</event>
<event>
 7    1  0.2490895E-015  0.9000778E+02  0.7816164E-02  0.1186339E+00
        -11   -1    0    0    0    0  0.00000000000E+00  0.00000000000E+00  0.45593999997E+02  0.45594000000E+02  0.51100000000E-03 0. -1.
         11   -1    0    0    0    0 -0.00000000000E+00 -0.00000000000E+00 -0.45593999997E+02  0.45594000000E+02  0.51100000000E-03 0.  1.
    9900012    2    1    2    0    0  0.89379850190E+00 -0.68998682937E+00  0.34346824194E+00  0.90007776284E+02  0.90000038131E+02 0.  0.
         12    1    1    2    0    0 -0.89379850190E+00  0.68998682937E+00 -0.34346824194E+00  0.11802237160E+01  0.00000000000E+00 0. -1.
         11    1    3    3    0    0  0.31117327767E+02 -0.27061260926E+02  0.70058299897E+01  0.41829195359E+02  0.51100000000E-03 0. -1.
        -11    1    3    3    0    0 -0.22121259084E+01  0.18497341854E+01 -0.10372522768E+02  0.10765883449E+02  0.51100000000E-03 0.  1.
        -12    1    3    3    0    0 -0.28011403357E+02  0.24521539911E+02  0.37101610207E+01  0.37412697476E+02  0.00000000000E+00 0.  1.
</event>
<event>
 7    1  0.2490895E-015  0.9000778E+02  0.7816164E-02  0.1186339E+00
        -11   -1    0    0    0    0  0.00000000000E+00  0.00000000000E+00  0.45593999997E+02  0.45594000000E+02  0.51100000000E-03 0.  1.
         11   -1    0    0    0    0 -0.00000000000E+00 -0.00000000000E+00 -0.45593999997E+02  0.45594000000E+02  0.51100000000E-03 0. -1.
    9900012    2    1    2    0    0 -0.26655797712E+00 -0.38242639898E+00  0.10842578679E+01  0.90007780431E+02  0.90000042333E+02 0.  0.
         12    1    1    2    0    0  0.26655797712E+00  0.38242639898E+00 -0.10842578679E+01  0.11802195685E+01  0.00000000000E+00 0. -1.
         11    1    3    3    0    0 -0.26937684292E+02 -0.12332783015E+02  0.31463924603E+01  0.29793223351E+02  0.51100000000E-03 0. -1.
        -11    1    3    3    0    0  0.80384090592E+01  0.15943105297E+02  0.22755995955E+02  0.28924625821E+02  0.51100000000E-03 0.  1.
        -12    1    3    3    0    0  0.18632717255E+02 -0.39927486806E+01 -0.24818130547E+02  0.31289931259E+02  0.00000000000E+00 0.  1.
</event>
<event>
 7    1  0.2490895E-015  0.9000758E+02  0.7816164E-02  0.1186339E+00
        -11   -1    0    0    0    0  0.00000000000E+00  0.00000000000E+00  0.45593999997E+02  0.45594000000E+02  0.51100000000E-03 0.  1.
         11   -1    0    0    0    0 -0.00000000000E+00 -0.00000000000E+00 -0.45593999997E+02  0.45594000000E+02  0.51100000000E-03 0. -1.
    9900012    2    1    2    0    0  0.75271061532E+00  0.73086440958E+00  0.54096970653E+00  0.90007583006E+02  0.89999842302E+02 0.  0.
         12    1    1    2    0    0 -0.75271061532E+00 -0.73086440958E+00 -0.54096970653E+00  0.11804169937E+01  0.00000000000E+00 0. -1.
         11    1    3    3    0    0  0.29587197297E+02 -0.32184981638E+02  0.19205514540E+01  0.43760299417E+02  0.51100000000E-03 0. -1.
        -11    1    3    3    0    0 -0.18527745753E+01  0.84395642719E+01 -0.43935531402E+01  0.96934167446E+01  0.51100000000E-03 0.  1.
        -12    1    3    3    0    0 -0.26981712106E+02  0.24476281775E+02  0.30139713927E+01  0.36553866845E+02  0.00000000000E+00 0.  1.
</event>
<event>
 7    1  0.2490895E-015  0.9000772E+02  0.7816164E-02  0.1186339E+00
        -11   -1    0    0    0    0  0.00000000000E+00  0.00000000000E+00  0.45593999997E+02  0.45594000000E+02  0.51100000000E-03 0.  1.
         11   -1    0    0    0    0 -0.00000000000E+00 -0.00000000000E+00 -0.45593999997E+02  0.45594000000E+02  0.51100000000E-03 0. -1.
    9900012    2    1    2    0    0  0.61150814368E+00 -0.92624589774E+00 -0.40147079323E+00  0.90007723562E+02  0.89999984713E+02 0.  0.
         12    1    1    2    0    0 -0.61150814368E+00  0.92624589774E+00  0.40147079323E+00  0.11802764382E+01  0.00000000000E+00 0. -1.
         11    1    3    3    0    0 -0.14281006667E+02  0.32781201715E+02 -0.12999941238E+02  0.38046718777E+02  0.51100000000E-03 0. -1.
        -11    1    3    3    0    0  0.75982602101E+01  0.41331277211E+01 -0.45583004533E+01  0.97772391943E+01  0.51100000000E-03 0.  1.
        -12    1    3    3    0    0  0.72942546001E+01 -0.37840575333E+02  0.17156770898E+02  0.42183765590E+02  0.00000000000E+00 0.  1.
</event>
<event>
 7    1  0.2490895E-015  0.9000769E+02  0.7816164E-02  0.1186339E+00
        -11   -1    0    0    0    0  0.00000000000E+00  0.00000000000E+00  0.45593999997E+02  0.45594000000E+02  0.51100000000E-03 0.  1.
         11   -1    0    0    0    0 -0.00000000000E+00 -0.00000000000E+00 -0.45593999997E+02  0.45594000000E+02  0.51100000000E-03 0. -1.
    9900012    2    1    2    0    0 -0.38981526632E+00 -0.28366149640E+00  0.10773653563E+01  0.90007688220E+02  0.89999948905E+02 0.  0.
         12    1    1    2    0    0  0.38981526632E+00  0.28366149640E+00 -0.10773653563E+01  0.11803117797E+01  0.00000000000E+00 0. -1.
         11    1    3    3    0    0 -0.28733286660E+02 -0.16833503725E+02 -0.15756074946E+02  0.36840500918E+02  0.51100000000E-03 0. -1.
        -11    1    3    3    0    0 -0.65509176832E+01 -0.56500368082E+01  0.38719238375E+00  0.86595240417E+01  0.51100000000E-03 0.  1.
        -12    1    3    3    0    0  0.34894389076E+02  0.22199879037E+02  0.16446247919E+02  0.44507663260E+02  0.00000000000E+00 0.  1.
</event>
<event>
 7    1  0.2490895E-015  0.9000775E+02  0.7816164E-02  0.1186339E+00
        -11   -1    0    0    0    0  0.00000000000E+00  0.00000000000E+00  0.45593999997E+02  0.45594000000E+02  0.51100000000E-03 0.  1.
         11   -1    0    0    0    0 -0.00000000000E+00 -0.00000000000E+00 -0.45593999997E+02  0.45594000000E+02  0.51100000000E-03 0. -1.
    9900012    2    1    2    0    0  0.70832026377E+00  0.92902667699E+00  0.16789604632E+00  0.90007746957E+02  0.90000008417E+02 0.  0.
         12    1    1    2    0    0 -0.70832026377E+00 -0.92902667699E+00 -0.16789604632E+00  0.11802530428E+01  0.00000000000E+00 0. -1.
         11    1    3    3    0    0 -0.49471587122E+01 -0.25916261324E+01 -0.66779401183E+01  0.87055034213E+01  0.51100000000E-03 0. -1.
        -11    1    3    3    0    0 -0.26583526090E+02  0.13109300306E+02  0.28646021543E+02  0.41220530860E+02  0.51100000000E-03 0.  1.
         12    1    3    3    0    0  0.32239005066E+02 -0.95886474969E+01 -0.21800185379E+02  0.40081712675E+02  0.00000000000E+00 0. -1.
</event>
<event>
 7    1  0.2779785E-015  0.9000777E+02  0.7816164E-02  0.1186339E+00
        -11   -1    0    0    0    0  0.00000000000E+00  0.00000000000E+00  0.45593999997E+02  0.45594000000E+02  0.51100000000E-03 0.  1.
         11   -1    0    0    0    0 -0.00000000000E+00 -0.00000000000E+00 -0.45593999997E+02  0.45594000000E+02  0.51100000000E-03 0. -1.
    9900012    2    1    2    0    0  0.29531262426E+00 -0.11405133205E+01 -0.70489611780E-01  0.90007767410E+02  0.90000029140E+02 0.  0.
         12    1    1    2    0    0 -0.29531262426E+00  0.11405133205E+01  0.70489611780E-01  0.11802325896E+01  0.00000000000E+00 0. -1.
         11    1    3    3    0    0  0.29008681462E+01  0.38709449078E+02  0.70130440221E+01  0.39446410111E+02  0.51100000000E-03 0. -1.
        -11    1    3    3    0    0  0.58779664012E+01 -0.18729623121E+00 -0.80748662993E+01  0.99894461760E+01  0.51100000000E-03 0.  1.
        -12    1    3    3    0    0 -0.84835219232E+01 -0.39662666167E+02  0.99133266538E+00  0.40571911123E+02  0.00000000000E+00 0.  1.
</event>
<event>
 7    1  0.2490895E-015  0.9000774E+02  0.7816164E-02  0.1186339E+00
        -11   -1    0    0    0    0  0.00000000000E+00  0.00000000000E+00  0.45593999997E+02  0.45594000000E+02  0.51100000000E-03 0. -1.
         11   -1    0    0    0    0 -0.00000000000E+00 -0.00000000000E+00 -0.45593999997E+02  0.45594000000E+02  0.51100000000E-03 0.  1.
    9900012    2    1    2    0    0  0.24502516754E+00 -0.81109178455E+00  0.82164586820E+00  0.90007741914E+02  0.90000003308E+02 0.  0.
         12    1    1    2    0    0 -0.24502516754E+00  0.81109178455E+00 -0.82164586820E+00  0.11802580855E+01  0.00000000000E+00 0. -1.
         11    1    3    3    0    0  0.35993949834E+02  0.21562679933E+02  0.77241384696E+01  0.42663519614E+02  0.51100000000E-03 0. -1.
        -11    1    3    3    0    0 -0.12745050372E+01 -0.62843807005E+01 -0.67355414417E+01  0.92997485263E+01  0.51100000000E-03 0.  1.
        -12    1    3    3    0    0 -0.34474419629E+02 -0.16089391017E+02 -0.16695115971E+00  0.38044473774E+02  0.00000000000E+00 0.  1.
</event>
<event>
 7    1  0.2690459E-015  0.9000778E+02  0.7816164E-02  0.1186339E+00
        -11   -1    0    0    0    0  0.00000000000E+00  0.00000000000E+00  0.45593999997E+02  0.45594000000E+02  0.51100000000E-03 0. -1.
         11   -1    0    0    0    0 -0.00000000000E+00 -0.00000000000E+00 -0.45593999997E+02  0.45594000000E+02  0.51100000000E-03 0.  1.
    9900012    2    1    2    0    0 -0.31022385940E+00  0.42910793702E+00 -0.10547730873E+01  0.90007780220E+02  0.90000042118E+02 0.  0.
         12    1    1    2    0    0  0.31022385940E+00 -0.42910793702E+00  0.10547730873E+01  0.11802197805E+01  0.00000000000E+00 0. -1.
         11    1    3    3    0    0  0.53942330649E+01 -0.13457974776E+02  0.36637542921E+02  0.39402086074E+02  0.51100000000E-03 0. -1.
        -11    1    3    3    0    0 -0.87028015426E+01 -0.69204835543E+00  0.13392928574E+01  0.88324057445E+01  0.51100000000E-03 0.  1.
        -12    1    3    3    0    0  0.29983446183E+01  0.14579131068E+02 -0.39031608866E+02  0.41773288401E+02  0.00000000000E+00 0.  1.
</event>
<event>
 7    1  0.2490895E-015  0.9000772E+02  0.7816164E-02  0.1186339E+00
        -11   -1    0    0    0    0  0.00000000000E+00  0.00000000000E+00  0.45593999997E+02  0.45594000000E+02  0.51100000000E-03 0. -1.
         11   -1    0    0    0    0 -0.00000000000E+00 -0.00000000000E+00 -0.45593999997E+02  0.45594000000E+02  0.51100000000E-03 0.  1.
    9900012    2    1    2    0    0 -0.16837896245E+00  0.11299288159E+01  0.29658219994E+00  0.90007723928E+02  0.89999985084E+02 0.  0.
         12    1    1    2    0    0  0.16837896245E+00 -0.11299288159E+01 -0.29658219994E+00  0.11802760717E+01  0.00000000000E+00 0. -1.
         11    1    3    3    0    0 -0.11028104078E+00  0.41330698319E+01  0.83307580721E+01  0.93003203418E+01  0.51100000000E-03 0. -1.
        -11    1    3    3    0    0  0.71354103041E+01 -0.25518522602E+02  0.27397831923E+02  0.38114961241E+02  0.51100000000E-03 0.  1.
         12    1    3    3    0    0 -0.71935082258E+01  0.22515381586E+02 -0.35432007796E+02  0.42592442346E+02  0.00000000000E+00 0. -1.
</event>
<event>
 7    1  0.2490895E-015  0.9000780E+02  0.7816164E-02  0.1186339E+00
        -11   -1    0    0    0    0  0.00000000000E+00  0.00000000000E+00  0.45593999997E+02  0.45594000000E+02  0.51100000000E-03 0. -1.
         11   -1    0    0    0    0 -0.00000000000E+00 -0.00000000000E+00 -0.45593999997E+02  0.45594000000E+02  0.51100000000E-03 0.  1.
    9900012    2    1    2    0    0  0.61761871006E+00 -0.27701485978E+00 -0.96679042672E+00  0.90007799240E+02  0.90000061390E+02 0.  0.
         12    1    1    2    0    0 -0.61761871006E+00  0.27701485978E+00  0.96679042672E+00  0.11802007595E+01  0.00000000000E+00 0. -1.
         11    1    3    3    0    0 -0.27137920392E+02  0.37555510418E+01  0.24424117209E+02  0.36702975200E+02  0.51100000000E-03 0. -1.
        -11    1    3    3    0    0  0.50105200429E+00 -0.10321937403E+02  0.54384453565E+01  0.11677762329E+02  0.51100000000E-03 0.  1.
        -12    1    3    3    0    0  0.27254487098E+02  0.62893715014E+01 -0.30829352992E+02  0.41627061712E+02  0.00000000000E+00 0.  1.
</event>
<event>
 7    1  0.2490895E-015  0.9000786E+02  0.7816164E-02  0.1186339E+00
        -11   -1    0    0    0    0  0.00000000000E+00  0.00000000000E+00  0.45593999997E+02  0.45594000000E+02  0.51100000000E-03 0. -1.
         11   -1    0    0    0    0 -0.00000000000E+00 -0.00000000000E+00 -0.45593999997E+02  0.45594000000E+02  0.51100000000E-03 0.  1.
    9900012    2    1    2    0    0 -0.13372739038E+00 -0.39551299304E+00 -0.11038220556E+01  0.90007857351E+02  0.90000120268E+02 0.  0.
         12    1    1    2    0    0  0.13372739038E+00  0.39551299304E+00  0.11038220556E+01  0.11801426494E+01  0.00000000000E+00 0. -1.
         11    1    3    3    0    0  0.20173678450E+01 -0.18679199082E+02  0.31658560215E+02  0.36813675265E+02  0.51100000000E-03 0. -1.
        -11    1    3    3    0    0 -0.17168371096E+01 -0.29989943979E+01  0.71604473484E+01  0.79506920170E+01  0.51100000000E-03 0.  1.
        -12    1    3    3    0    0 -0.43425812576E+00  0.21282680487E+02 -0.39922829619E+02  0.45243490069E+02  0.00000000000E+00 0.  1.
</event>
<event>
 7    1  0.2490895E-015  0.9000771E+02  0.7816164E-02  0.1186339E+00
        -11   -1    0    0    0    0  0.00000000000E+00  0.00000000000E+00  0.45593999997E+02  0.45594000000E+02  0.51100000000E-03 0. -1.
         11   -1    0    0    0    0 -0.00000000000E+00 -0.00000000000E+00 -0.45593999997E+02  0.45594000000E+02  0.51100000000E-03 0.  1.
    9900012    2    1    2    0    0 -0.87888970336E+00 -0.78539867249E+00 -0.61483689541E-01  0.90007712565E+02  0.89999973571E+02 0.  0.
         12    1    1    2    0    0  0.87888970336E+00  0.78539867249E+00  0.61483689541E-01  0.11802874351E+01  0.00000000000E+00 0. -1.
         11    1    3    3    0    0 -0.37361367225E+02  0.85210473379E+01  0.17396991950E+02  0.42084858772E+02  0.51100000000E-03 0. -1.
        -11    1    3    3    0    0  0.62109720144E+01 -0.73212123225E+00  0.60084923480E+01  0.86726094931E+01  0.51100000000E-03 0.  1.
        -12    1    3    3    0    0  0.30271505507E+02 -0.85743247782E+01 -0.23466967988E+02  0.39250244300E+02  0.00000000000E+00 0.  1.
</event>
<event>
 7    1  0.2490895E-015  0.9000774E+02  0.7816164E-02  0.1186339E+00
        -11   -1    0    0    0    0  0.00000000000E+00  0.00000000000E+00  0.45593999997E+02  0.45594000000E+02  0.51100000000E-03 0.  1.
         11   -1    0    0    0    0 -0.00000000000E+00 -0.00000000000E+00 -0.45593999997E+02  0.45594000000E+02  0.51100000000E-03 0. -1.
    9900012    2    1    2    0    0 -0.18290961768E+00  0.92336861120E+00  0.71200556362E+00  0.90007738401E+02  0.89999999747E+02 0.  0.
         12    1    1    2    0    0  0.18290961768E+00 -0.92336861120E+00 -0.71200556362E+00  0.11802615994E+01  0.00000000000E+00 0. -1.
         11    1    3    3    0    0  0.17077192906E+02 -0.55581678154E+01 -0.42125520382E+01  0.18446391028E+02  0.51100000000E-03 0. -1.
        -11    1    3    3    0    0  0.14944387011E+02  0.19915425513E+02  0.21530961284E+02  0.32917186553E+02  0.51100000000E-03 0.  1.
         12    1    3    3    0    0 -0.32204489535E+02 -0.13433889086E+02 -0.16606403682E+02  0.38644160820E+02  0.00000000000E+00 0. -1.
</event>
<event>
 7    1  0.2490895E-015  0.9000731E+02  0.7816164E-02  0.1186340E+00
        -11   -1    0    0    0    0  0.00000000000E+00  0.00000000000E+00  0.45593999997E+02  0.45594000000E+02  0.51100000000E-03 0. -1.
         11   -1    0    0    0    0 -0.00000000000E+00 -0.00000000000E+00 -0.45593999997E+02  0.45594000000E+02  0.51100000000E-03 0.  1.
    9900012    2    1    2    0    0  0.29997721852E+00 -0.83830008898E+00 -0.77542767212E+00  0.90007313147E+02  0.89999568879E+02 0.  0.
         12    1    1    2    0    0 -0.29997721852E+00  0.83830008898E+00  0.77542767212E+00  0.11806868533E+01  0.00000000000E+00 0. -1.
         11    1    3    3    0    0  0.64444607182E+01 -0.70869199392E+01  0.13111581226E+01  0.96682285893E+01  0.51100000000E-03 0. -1.
        -11    1    3    3    0    0  0.25061251844E+02  0.53101654316E+01 -0.29302611643E+02  0.38921809442E+02  0.51100000000E-03 0.  1.
         12    1    3    3    0    0 -0.31205735343E+02  0.93845441856E+00  0.27216025848E+02  0.41417275115E+02  0.00000000000E+00 0. -1.
</event>
<event>
 7    1  0.2490895E-015  0.9000782E+02  0.7816164E-02  0.1186339E+00
        -11   -1    0    0    0    0  0.00000000000E+00  0.00000000000E+00  0.45593999997E+02  0.45594000000E+02  0.51100000000E-03 0.  1.
         11   -1    0    0    0    0 -0.00000000000E+00 -0.00000000000E+00 -0.45593999997E+02  0.45594000000E+02  0.51100000000E-03 0. -1.
    9900012    2    1    2    0    0  0.47448484448E+00  0.10486656497E+01  0.26076680843E+00  0.90007815760E+02  0.90000078128E+02 0.  0.
         12    1    1    2    0    0 -0.47448484448E+00 -0.10486656497E+01 -0.26076680843E+00  0.11801842402E+01  0.00000000000E+00 0. -1.
         11    1    3    3    0    0 -0.40171362565E+01 -0.86334154113E+01 -0.14137836887E+01  0.96266312876E+01  0.51100000000E-03 0. -1.
        -11    1    3    3    0    0  0.21578234202E+02  0.16934767607E+02  0.33646940496E+02  0.43411094782E+02  0.51100000000E-03 0.  1.
         12    1    3    3    0    0 -0.17086613101E+02 -0.72526865459E+01 -0.31972389999E+02  0.36970089690E+02  0.00000000000E+00 0. -1.
</event>
<event>
 7    1  0.2490895E-015  0.9000775E+02  0.7816164E-02  0.1186339E+00
        -11   -1    0    0    0    0  0.00000000000E+00  0.00000000000E+00  0.45593999997E+02  0.45594000000E+02  0.51100000000E-03 0.  1.
         11   -1    0    0    0    0 -0.00000000000E+00 -0.00000000000E+00 -0.45593999997E+02  0.45594000000E+02  0.51100000000E-03 0. -1.
    9900012    2    1    2    0    0 -0.25872937358E+00 -0.22320681604E+00  0.11296998072E+01  0.90007752642E+02  0.90000014177E+02 0.  0.
         12    1    1    2    0    0  0.25872937358E+00  0.22320681604E+00 -0.11296998072E+01  0.11802473580E+01  0.00000000000E+00 0. -1.
         11    1    3    3    0    0 -0.50364871004E+01  0.65339360999E+01  0.51806006953E+01  0.97415166732E+01  0.51100000000E-03 0. -1.
        -11    1    3    3    0    0  0.29240987488E+01 -0.38193506084E+01  0.37883774355E+02  0.38187932023E+02  0.51100000000E-03 0.  1.
         12    1    3    3    0    0  0.18536589780E+01 -0.29377923075E+01 -0.41934675243E+02  0.42078303946E+02  0.00000000000E+00 0. -1.
</event>
<event>
 7    1  0.2490895E-015  0.9000777E+02  0.7816164E-02  0.1186339E+00
        -11   -1    0    0    0    0  0.00000000000E+00  0.00000000000E+00  0.45593999997E+02  0.45594000000E+02  0.51100000000E-03 0.  1.
         11   -1    0    0    0    0 -0.00000000000E+00 -0.00000000000E+00 -0.45593999997E+02  0.45594000000E+02  0.51100000000E-03 0. -1.
    9900012    2    1    2    0    0 -0.50010339321E-01 -0.11480516138E+01 -0.26909684165E+00  0.90007772627E+02  0.90000034426E+02 0.  0.
         12    1    1    2    0    0  0.50010339321E-01  0.11480516138E+01  0.26909684165E+00  0.11802273731E+01  0.00000000000E+00 0. -1.
         11    1    3    3    0    0 -0.19521031576E+02  0.12500119428E+02 -0.30211229091E+02  0.38079417314E+02  0.51100000000E-03 0. -1.
        -11    1    3    3    0    0 -0.56020564263E+00  0.43101126012E+01 -0.57657129462E+01  0.72204118329E+01  0.51100000000E-03 0.  1.
        -12    1    3    3    0    0  0.20031226879E+02 -0.17958283643E+02  0.35707845196E+02  0.44707943480E+02  0.00000000000E+00 0.  1.
</event>
<event>
 7    1  0.2490895E-015  0.9000784E+02  0.7816164E-02  0.1186339E+00
        -11   -1    0    0    0    0  0.00000000000E+00  0.00000000000E+00  0.45593999997E+02  0.45594000000E+02  0.51100000000E-03 0.  1.
         11   -1    0    0    0    0 -0.00000000000E+00 -0.00000000000E+00 -0.45593999997E+02  0.45594000000E+02  0.51100000000E-03 0. -1.
    9900012    2    1    2    0    0  0.13024030982E+00 -0.10319044477E+01  0.55766916720E+00  0.90007837203E+02  0.90000099854E+02 0.  0.
         12    1    1    2    0    0 -0.13024030982E+00  0.10319044477E+01 -0.55766916720E+00  0.11801627970E+01  0.00000000000E+00 0. -1.
         11    1    3    3    0    0  0.57927444467E+01 -0.39462954878E+01  0.50145961299E+01  0.86183125325E+01  0.51100000000E-03 0. -1.
        -11    1    3    3    0    0 -0.35049247043E+02 -0.20713463577E+02  0.83627445988E+01  0.41562396335E+02  0.51100000000E-03 0.  1.
         12    1    3    3    0    0  0.29386742906E+02  0.23627854618E+02 -0.12819671561E+02  0.39827128335E+02  0.00000000000E+00 0. -1.
</event>
<event>
 7    1  0.2490895E-015  0.9000779E+02  0.7816164E-02  0.1186339E+00
        -11   -1    0    0    0    0  0.00000000000E+00  0.00000000000E+00  0.45593999997E+02  0.45594000000E+02  0.51100000000E-03 0. -1.
         11   -1    0    0    0    0 -0.00000000000E+00 -0.00000000000E+00 -0.45593999997E+02  0.45594000000E+02  0.51100000000E-03 0.  1.
    9900012    2    1    2    0    0  0.11366391781E+01 -0.26275686677E+00  0.17865084073E+00  0.90007785649E+02  0.90000047619E+02 0.  0.
         12    1    1    2    0    0 -0.11366391781E+01  0.26275686677E+00 -0.17865084073E+00  0.11802143513E+01  0.00000000000E+00 0. -1.
         11    1    3    3    0    0 -0.39986745848E+01  0.59641715937E+01 -0.64512322498E+01  0.96529342190E+01  0.51100000000E-03 0. -1.
        -11    1    3    3    0    0  0.39804092718E+02  0.96329794913E+01 -0.29058526744E+01  0.41056108815E+02  0.51100000000E-03 0.  1.
         12    1    3    3    0    0 -0.34668778956E+02 -0.15859907952E+02  0.95357357649E+01  0.39298742615E+02  0.00000000000E+00 0. -1.
</event>
<event>
 7    1  0.2490895E-015  0.9000777E+02  0.7816164E-02  0.1186339E+00
        -11   -1    0    0    0    0  0.00000000000E+00  0.00000000000E+00  0.45593999997E+02  0.45594000000E+02  0.51100000000E-03 0.  1.
         11   -1    0    0    0    0 -0.00000000000E+00 -0.00000000000E+00 -0.45593999997E+02  0.45594000000E+02  0.51100000000E-03 0. -1.
    9900012    2    1    2    0    0 -0.10097871131E+00  0.22013855791E-01  0.11756997456E+01  0.90007766463E+02  0.90000028180E+02 0.  0.
         12    1    1    2    0    0  0.10097871131E+00 -0.22013855791E-01 -0.11756997456E+01  0.11802335370E+01  0.00000000000E+00 0. -1.
         11    1    3    3    0    0  0.73525107444E+01  0.26019041908E+01  0.50930956533E+01  0.93149848771E+01  0.51100000000E-03 0. -1.
        -11    1    3    3    0    0 -0.20456462893E+01  0.19062859917E+02  0.32647076366E+02  0.37860386850E+02  0.51100000000E-03 0.  1.
         12    1    3    3    0    0 -0.54078431665E+01 -0.21642750252E+02 -0.36564472273E+02  0.42832394736E+02  0.00000000000E+00 0. -1.
</event>
<event>
 7    1  0.2490895E-015  0.9000773E+02  0.7816164E-02  0.1186339E+00
        -11   -1    0    0    0    0  0.00000000000E+00  0.00000000000E+00  0.45593999997E+02  0.45594000000E+02  0.51100000000E-03 0. -1.
         11   -1    0    0    0    0 -0.00000000000E+00 -0.00000000000E+00 -0.45593999997E+02  0.45594000000E+02  0.51100000000E-03 0.  1.
    9900012    2    1    2    0    0  0.21061831325E+00 -0.96925340692E+00  0.63970630657E+00  0.90007730370E+02  0.89999991611E+02 0.  0.
         12    1    1    2    0    0 -0.21061831325E+00  0.96925340692E+00 -0.63970630657E+00  0.11802696299E+01  0.00000000000E+00 0. -1.
         11    1    3    3    0    0 -0.17914248810E+02 -0.32024782417E+02  0.16431774629E+01  0.36731553625E+02  0.51100000000E-03 0. -1.
        -11    1    3    3    0    0 -0.85562212107E+01 -0.34449155161E+01 -0.27577855536E+01  0.96271359053E+01  0.51100000000E-03 0.  1.
        -12    1    3    3    0    0  0.26681088334E+02  0.34500444526E+02  0.17543143972E+01  0.43649040839E+02  0.00000000000E+00 0.  1.
</event>
<event>
 7    1  0.2490895E-015  0.9000775E+02  0.7816164E-02  0.1186339E+00
        -11   -1    0    0    0    0  0.00000000000E+00  0.00000000000E+00  0.45593999997E+02  0.45594000000E+02  0.51100000000E-03 0.  1.
         11   -1    0    0    0    0 -0.00000000000E+00 -0.00000000000E+00 -0.45593999997E+02  0.45594000000E+02  0.51100000000E-03 0. -1.
    9900012    2    1    2    0    0 -0.81555786119E+00 -0.64634692033E+00  0.55686509953E+00  0.90007746762E+02  0.90000008219E+02 0.  0.
         12    1    1    2    0    0  0.81555786119E+00  0.64634692033E+00 -0.55686509953E+00  0.11802532378E+01  0.00000000000E+00 0. -1.
         11    1    3    3    0    0 -0.21513417110E+02  0.51373986207E+00 -0.27050584709E+02  0.34566243327E+02  0.51100000000E-03 0. -1.
        -11    1    3    3    0    0  0.15445843229E+01 -0.40983762832E+01 -0.11221542535E+02  0.12045972191E+02  0.51100000000E-03 0.  1.
        -12    1    3    3    0    0  0.19153274926E+02  0.29382895008E+01  0.38828992344E+02  0.43395531244E+02  0.00000000000E+00 0.  1.
</event>
<event>
 7    1  0.2490895E-015  0.9000777E+02  0.7816164E-02  0.1186339E+00
        -11   -1    0    0    0    0  0.00000000000E+00  0.00000000000E+00  0.45593999997E+02  0.45594000000E+02  0.51100000000E-03 0.  1.
         11   -1    0    0    0    0 -0.00000000000E+00 -0.00000000000E+00 -0.45593999997E+02  0.45594000000E+02  0.51100000000E-03 0. -1.
    9900012    2    1    2    0    0  0.80642030489E+00  0.21572468451E+00  0.83432750167E+00  0.90007765605E+02  0.90000027311E+02 0.  0.
         12    1    1    2    0    0 -0.80642030489E+00 -0.21572468451E+00 -0.83432750167E+00  0.11802343952E+01  0.00000000000E+00 0. -1.
         11    1    3    3    0    0 -0.94123567390E+01 -0.24117466561E+01 -0.20753585422E+01  0.99355973477E+01  0.51100000000E-03 0. -1.
        -11    1    3    3    0    0 -0.18202019574E+02  0.20270147387E+01  0.33582592377E+02  0.38251964869E+02  0.51100000000E-03 0.  1.
         12    1    3    3    0    0  0.28420796618E+02  0.60045660183E+00 -0.30672906333E+02  0.41820203388E+02  0.00000000000E+00 0. -1.
</event>
<event>
 7    1  0.2490895E-015  0.9000776E+02  0.7816164E-02  0.1186339E+00
        -11   -1    0    0    0    0  0.00000000000E+00  0.00000000000E+00  0.45593999997E+02  0.45594000000E+02  0.51100000000E-03 0.  1.
         11   -1    0    0    0    0 -0.00000000000E+00 -0.00000000000E+00 -0.45593999997E+02  0.45594000000E+02  0.51100000000E-03 0. -1.
    9900012    2    1    2    0    0  0.41801439274E+00 -0.11983906323E+00  0.10972098586E+01  0.90007759809E+02  0.90000021439E+02 0.  0.
         12    1    1    2    0    0 -0.41801439274E+00  0.11983906323E+00 -0.10972098586E+01  0.11802401906E+01  0.00000000000E+00 0. -1.
         11    1    3    3    0    0 -0.19978569697E+02  0.22766978920E+02  0.33400434802E+01  0.30473504344E+02  0.51100000000E-03 0. -1.
        -11    1    3    3    0    0 -0.15140930469E+02  0.11737366861E+01  0.50469727053E+01  0.16003042430E+02  0.51100000000E-03 0.  1.
        -12    1    3    3    0    0  0.35537514559E+02 -0.24060554670E+02 -0.72898063269E+01  0.43531213035E+02  0.00000000000E+00 0.  1.
</event>
<event>
 7    1  0.2490895E-015  0.9000774E+02  0.7816164E-02  0.1186339E+00
        -11   -1    0    0    0    0  0.00000000000E+00  0.00000000000E+00  0.45593999997E+02  0.45594000000E+02  0.51100000000E-03 0.  1.
         11   -1    0    0    0    0 -0.00000000000E+00 -0.00000000000E+00 -0.45593999997E+02  0.45594000000E+02  0.51100000000E-03 0. -1.
    9900012    2    1    2    0    0  0.54700631343E+00 -0.10455675786E+01  0.24060064571E-01  0.90007743098E+02  0.90000004507E+02 0.  0.
         12    1    1    2    0    0 -0.54700631343E+00  0.10455675786E+01 -0.24060064571E-01  0.11802569022E+01  0.00000000000E+00 0. -1.
         11    1    3    3    0    0  0.15635633587E+02  0.39660764622E+02 -0.29184406802E+01  0.42731330243E+02  0.51100000000E-03 0. -1.
        -11    1    3    3    0    0 -0.17269156070E+01 -0.71922989246E+01  0.79411639976E+01  0.10852349388E+02  0.51100000000E-03 0.  1.
        -12    1    3    3    0    0 -0.13361711666E+02 -0.33514033277E+02 -0.49986632528E+01  0.36424063467E+02  0.00000000000E+00 0.  1.
</event>
<event>
 7    1  0.2490895E-015  0.9000771E+02  0.7816164E-02  0.1186339E+00
        -11   -1    0    0    0    0  0.00000000000E+00  0.00000000000E+00  0.45593999997E+02  0.45594000000E+02  0.51100000000E-03 0.  1.
         11   -1    0    0    0    0 -0.00000000000E+00 -0.00000000000E+00 -0.45593999997E+02  0.45594000000E+02  0.51100000000E-03 0. -1.
    9900012    2    1    2    0    0  0.10721705806E+00  0.53843595630E+00  0.10448369672E+01  0.90007706365E+02  0.89999967289E+02 0.  0.
         12    1    1    2    0    0 -0.10721705806E+00 -0.53843595630E+00 -0.10448369672E+01  0.11802936349E+01  0.00000000000E+00 0. -1.
         11    1    3    3    0    0  0.18616448813E+02 -0.96522826281E+01 -0.30572755107E+02  0.37073333833E+02  0.51100000000E-03 0. -1.
        -11    1    3    3    0    0 -0.92881931014E+01  0.26213477318E+01 -0.73822264752E+01  0.12150689816E+02  0.51100000000E-03 0.  1.
        -12    1    3    3    0    0 -0.92210386539E+01  0.75693708527E+01  0.38999818550E+02  0.40783682716E+02  0.00000000000E+00 0.  1.
</event>
<event>
 7    1  0.2490895E-015  0.9000749E+02  0.7816164E-02  0.1186340E+00
        -11   -1    0    0    0    0  0.00000000000E+00  0.00000000000E+00  0.45593999997E+02  0.45594000000E+02  0.51100000000E-03 0. -1.
         11   -1    0    0    0    0 -0.00000000000E+00 -0.00000000000E+00 -0.45593999997E+02  0.45594000000E+02  0.51100000000E-03 0.  1.
    9900012    2    1    2    0    0 -0.88464085557E+00 -0.18881489517E+00  0.75852794696E+00  0.90007489452E+02  0.89999747512E+02 0.  0.
         12    1    1    2    0    0  0.88464085557E+00  0.18881489517E+00 -0.75852794696E+00  0.11805105481E+01  0.00000000000E+00 0. -1.
         11    1    3    3    0    0 -0.19381552778E+02 -0.25581583676E+02  0.13478378725E+02  0.34809893777E+02  0.51100000000E-03 0. -1.
        -11    1    3    3    0    0 -0.10885117249E+02 -0.19559161300E+01  0.39356851242E+01  0.11738867198E+02  0.51100000000E-03 0.  1.
        -12    1    3    3    0    0  0.29382029172E+02  0.27348684911E+02 -0.16655535903E+02  0.43458728477E+02  0.00000000000E+00 0.  1.
</event>
<event>
 7    1  0.2490895E-015  0.9000768E+02  0.7816164E-02  0.1186339E+00
        -11   -1    0    0    0    0  0.00000000000E+00  0.00000000000E+00  0.45593999997E+02  0.45594000000E+02  0.51100000000E-03 0.  1.
         11   -1    0    0    0    0 -0.00000000000E+00 -0.00000000000E+00 -0.45593999997E+02  0.45594000000E+02  0.51100000000E-03 0. -1.
    9900012    2    1    2    0    0  0.84733898793E+00  0.82072786887E+00 -0.39697950201E-01  0.90007680754E+02  0.89999941340E+02 0.  0.
         12    1    1    2    0    0 -0.84733898793E+00 -0.82072786887E+00  0.39697950201E-01  0.11803192460E+01  0.00000000000E+00 0. -1.
         11    1    3    3    0    0  0.50703791545E+01  0.17925646922E+00 -0.55288176334E+01  0.75039124686E+01  0.51100000000E-03 0. -1.
        -11    1    3    3    0    0  0.15323445933E+01 -0.28503318568E+02  0.31862436173E+02  0.42778523683E+02  0.51100000000E-03 0.  1.
         12    1    3    3    0    0 -0.57553847598E+01  0.29144789968E+02 -0.26373316490E+02  0.39725244602E+02  0.00000000000E+00 0. -1.
</event>
<event>
 7    1  0.2490895E-015  0.9000770E+02  0.7816164E-02  0.1186339E+00
        -11   -1    0    0    0    0  0.00000000000E+00  0.00000000000E+00  0.45593999997E+02  0.45594000000E+02  0.51100000000E-03 0.  1.
         11   -1    0    0    0    0 -0.00000000000E+00 -0.00000000000E+00 -0.45593999997E+02  0.45594000000E+02  0.51100000000E-03 0. -1.
    9900012    2    1    2    0    0 -0.46728328651E+00 -0.10631641185E+01  0.21081177304E+00  0.90007697828E+02  0.89999958640E+02 0.  0.
         12    1    1    2    0    0  0.46728328651E+00  0.10631641185E+01 -0.21081177304E+00  0.11803021716E+01  0.00000000000E+00 0. -1.
         11    1    3    3    0    0  0.50009151248E+01  0.80035203673E+01 -0.82278754260E+00  0.94732502319E+01  0.51100000000E-03 0. -1.
        -11    1    3    3    0    0  0.11670159070E+02  0.26743118433E+02 -0.20223615966E+02  0.35501854025E+02  0.51100000000E-03 0.  1.
         12    1    3    3    0    0 -0.17138357482E+02 -0.35809802919E+02  0.21257215282E+02  0.45032593571E+02  0.00000000000E+00 0. -1.
</event>
<event>
 7    1  0.2490895E-015  0.9000771E+02  0.7816164E-02  0.1186339E+00
        -11   -1    0    0    0    0  0.00000000000E+00  0.00000000000E+00  0.45593999997E+02  0.45594000000E+02  0.51100000000E-03 0. -1.
         11   -1    0    0    0    0 -0.00000000000E+00 -0.00000000000E+00 -0.45593999997E+02  0.45594000000E+02  0.51100000000E-03 0.  1.
    9900012    2    1    2    0    0  0.38003671441E+00  0.93336896899E+00 -0.61439360658E+00  0.90007709764E+02  0.89999970733E+02 0.  0.
         12    1    1    2    0    0 -0.38003671441E+00 -0.93336896899E+00  0.61439360658E+00  0.11802902357E+01  0.00000000000E+00 0. -1.
         11    1    3    3    0    0 -0.48793402231E+01 -0.30932131584E+02  0.20445854935E+02  0.37398365066E+02  0.51100000000E-03 0. -1.
        -11    1    3    3    0    0 -0.42481960098E+01 -0.67503318391E+01 -0.91253134404E+00  0.80278803547E+01  0.51100000000E-03 0.  1.
        -12    1    3    3    0    0  0.95075729473E+01  0.38615832392E+02 -0.20147717197E+02  0.44581464343E+02  0.00000000000E+00 0.  1.
</event>
<event>
 7    1  0.2490895E-015  0.9000791E+02  0.7816164E-02  0.1186339E+00
        -11   -1    0    0    0    0  0.00000000000E+00  0.00000000000E+00  0.45593999997E+02  0.45594000000E+02  0.51100000000E-03 0. -1.
         11   -1    0    0    0    0 -0.00000000000E+00 -0.00000000000E+00 -0.45593999997E+02  0.45594000000E+02  0.51100000000E-03 0.  1.
    9900012    2    1    2    0    0  0.10074524777E+01 -0.61319922109E+00 -0.40612870793E-01  0.90007905434E+02  0.90000168986E+02 0.  0.
         12    1    1    2    0    0 -0.10074524777E+01  0.61319922109E+00  0.40612870793E-01  0.11800945661E+01  0.00000000000E+00 0. -1.
         11    1    3    3    0    0 -0.17311509516E+02 -0.27037216123E+02  0.20152961324E+02  0.37905689122E+02  0.51100000000E-03 0. -1.
        -11    1    3    3    0    0  0.10720246612E+02  0.11730078664E+02  0.92083805645E+01  0.18366074860E+02  0.51100000000E-03 0.  1.
        -12    1    3    3    0    0  0.75987153821E+01  0.14693938238E+02 -0.29401954760E+02  0.33736141452E+02  0.00000000000E+00 0.  1.
</event>
<event>
 7    1  0.2490895E-015  0.9000776E+02  0.7816164E-02  0.1186339E+00
        -11   -1    0    0    0    0  0.00000000000E+00  0.00000000000E+00  0.45593999997E+02  0.45594000000E+02  0.51100000000E-03 0. -1.
         11   -1    0    0    0    0 -0.00000000000E+00 -0.00000000000E+00 -0.45593999997E+02  0.45594000000E+02  0.51100000000E-03 0.  1.
    9900012    2    1    2    0    0  0.89595901056E+00 -0.13467802162E+00 -0.75635669448E+00  0.90007764359E+02  0.90000026049E+02 0.  0.
         12    1    1    2    0    0 -0.89595901056E+00  0.13467802162E+00  0.75635669448E+00  0.11802356406E+01  0.00000000000E+00 0. -1.
         11    1    3    3    0    0 -0.24845199573E+02 -0.24656420401E+02  0.42061948070E+00  0.35005712817E+02  0.51100000000E-03 0. -1.
        -11    1    3    3    0    0 -0.94334608142E+01 -0.31881109180E+01  0.18242989326E+01  0.10123354237E+02  0.51100000000E-03 0.  1.
        -12    1    3    3    0    0  0.35174619398E+02  0.27709853297E+02 -0.30012751078E+01  0.44878697305E+02  0.00000000000E+00 0.  1.
</event>
<event>
 7    1  0.2490895E-015  0.9000759E+02  0.7816164E-02  0.1186339E+00
        -11   -1    0    0    0    0  0.00000000000E+00  0.00000000000E+00  0.45593999997E+02  0.45594000000E+02  0.51100000000E-03 0. -1.
         11   -1    0    0    0    0 -0.00000000000E+00 -0.00000000000E+00 -0.45593999997E+02  0.45594000000E+02  0.51100000000E-03 0.  1.
    9900012    2    1    2    0    0  0.11438962871E+01  0.10622751186E+00  0.27125359990E+00  0.90007592649E+02  0.89999852071E+02 0.  0.
         12    1    1    2    0    0 -0.11438962871E+01 -0.10622751186E+00 -0.27125359990E+00  0.11804073515E+01  0.00000000000E+00 0. -1.
         11    1    3    3    0    0  0.81517877604E+01  0.50606304357E+01 -0.29745018550E+01  0.10045361399E+02  0.51100000000E-03 0. -1.
        -11    1    3    3    0    0 -0.16293262783E+02  0.35142448573E+02  0.12515403165E+01  0.38756011885E+02  0.51100000000E-03 0.  1.
         12    1    3    3    0    0  0.92853713095E+01 -0.40096851496E+02  0.19942151384E+01  0.41206219364E+02  0.00000000000E+00 0. -1.
</event>
<event>
 7    1  0.2490895E-015  0.9000771E+02  0.7816164E-02  0.1186339E+00
        -11   -1    0    0    0    0  0.00000000000E+00  0.00000000000E+00  0.45593999997E+02  0.45594000000E+02  0.51100000000E-03 0.  1.
         11   -1    0    0    0    0 -0.00000000000E+00 -0.00000000000E+00 -0.45593999997E+02  0.45594000000E+02  0.51100000000E-03 0. -1.
    9900012    2    1    2    0    0  0.15586959805E+00 -0.10557141649E+01  0.50424928342E+00  0.90007705516E+02  0.89999966429E+02 0.  0.
         12    1    1    2    0    0 -0.15586959805E+00  0.10557141649E+01 -0.50424928342E+00  0.11802944842E+01  0.00000000000E+00 0. -1.
         11    1    3    3    0    0  0.20656625944E+01  0.94850038266E+01 -0.17394600915E+01  0.98619461171E+01  0.51100000000E-03 0. -1.
        -11    1    3    3    0    0 -0.80609054075E+01  0.30978589637E+02  0.16249127858E+02  0.35898264140E+02  0.51100000000E-03 0.  1.
         12    1    3    3    0    0  0.61511124111E+01 -0.41519307628E+02 -0.14005418483E+02  0.44247495259E+02  0.00000000000E+00 0. -1.
</event>
<event>
 7    1  0.2490895E-015  0.9000788E+02  0.7816164E-02  0.1186339E+00
        -11   -1    0    0    0    0  0.00000000000E+00  0.00000000000E+00  0.45593999997E+02  0.45594000000E+02  0.51100000000E-03 0.  1.
         11   -1    0    0    0    0 -0.00000000000E+00 -0.00000000000E+00 -0.45593999997E+02  0.45594000000E+02  0.51100000000E-03 0. -1.
    9900012    2    1    2    0    0  0.22952793876E+00  0.34682711994E+00  0.11044028681E+01  0.90007882285E+02  0.90000145531E+02 0.  0.
         12    1    1    2    0    0 -0.22952793876E+00 -0.34682711994E+00 -0.11044028681E+01  0.11801177148E+01  0.00000000000E+00 0. -1.
         11    1    3    3    0    0  0.14030760128E+02 -0.40863635549E+01 -0.35744357941E+02  0.38616314192E+02  0.51100000000E-03 0. -1.
        -11    1    3    3    0    0 -0.33481188337E+01  0.68046918095E+01 -0.44034845570E+01  0.87695157707E+01  0.51100000000E-03 0.  1.
        -12    1    3    3    0    0 -0.10453113356E+02 -0.23715011347E+01  0.41252245366E+02  0.42622052323E+02  0.00000000000E+00 0.  1.
</event>
<event>
 7    1  0.2490895E-015  0.9000777E+02  0.7816164E-02  0.1186339E+00
        -11   -1    0    0    0    0  0.00000000000E+00  0.00000000000E+00  0.45593999997E+02  0.45594000000E+02  0.51100000000E-03 0.  1.
         11   -1    0    0    0    0 -0.00000000000E+00 -0.00000000000E+00 -0.45593999997E+02  0.45594000000E+02  0.51100000000E-03 0. -1.
    9900012    2    1    2    0    0  0.84627378069E+00  0.55237318899E+00  0.60962049739E+00  0.90007774342E+02  0.90000036164E+02 0.  0.
         12    1    1    2    0    0 -0.84627378069E+00 -0.55237318899E+00 -0.60962049739E+00  0.11802256575E+01  0.00000000000E+00 0. -1.
         11    1    3    3    0    0  0.18354601107E+02 -0.14130399753E+01 -0.39060344841E+02  0.43180998172E+02  0.51100000000E-03 0. -1.
        -11    1    3    3    0    0 -0.44005713653E+01  0.71067546509E+01  0.58777054849E+01  0.10218532773E+02  0.51100000000E-03 0.  1.
        -12    1    3    3    0    0 -0.13107755961E+02 -0.51413414866E+01  0.33792259853E+02  0.36608243397E+02  0.00000000000E+00 0.  1.
</event>
<event>
 7    1  0.2490895E-015  0.9000774E+02  0.7816164E-02  0.1186339E+00
        -11   -1    0    0    0    0  0.00000000000E+00  0.00000000000E+00  0.45593999997E+02  0.45594000000E+02  0.51100000000E-03 0.  1.
         11   -1    0    0    0    0 -0.00000000000E+00 -0.00000000000E+00 -0.45593999997E+02  0.45594000000E+02  0.51100000000E-03 0. -1.
    9900012    2    1    2    0    0  0.82648368326E+00  0.83813240842E+00 -0.86383140095E-01  0.90007744409E+02  0.90000005835E+02 0.  0.
         12    1    1    2    0    0 -0.82648368326E+00 -0.83813240842E+00  0.86383140095E-01  0.11802555908E+01  0.00000000000E+00 0. -1.
         11    1    3    3    0    0  0.43650625327E+01 -0.74341887797E+01  0.89799064582E+01  0.12448279158E+02  0.51100000000E-03 0. -1.
        -11    1    3    3    0    0  0.33624722048E+02 -0.84088592480E+01  0.37327928815E+01  0.34860645284E+02  0.51100000000E-03 0.  1.
         12    1    3    3    0    0 -0.37163300897E+02  0.16681180436E+02 -0.12799082480E+02  0.42698819968E+02  0.00000000000E+00 0. -1.
</event>
<event>
 7    1  0.2490895E-015  0.9000773E+02  0.7816164E-02  0.1186339E+00
        -11   -1    0    0    0    0  0.00000000000E+00  0.00000000000E+00  0.45593999997E+02  0.45594000000E+02  0.51100000000E-03 0. -1.
         11   -1    0    0    0    0 -0.00000000000E+00 -0.00000000000E+00 -0.45593999997E+02  0.45594000000E+02  0.51100000000E-03 0.  1.
    9900012    2    1    2    0    0 -0.76284525600E+00  0.74718268961E+00 -0.50281098860E+00  0.90007731494E+02  0.89999992750E+02 0.  0.
         12    1    1    2    0    0  0.76284525600E+00 -0.74718268961E+00  0.50281098860E+00  0.11802685061E+01  0.00000000000E+00 0. -1.
         11    1    3    3    0    0  0.55999656829E+01 -0.27365666510E+00 -0.48815590048E+01  0.74339842748E+01  0.51100000000E-03 0. -1.
        -11    1    3    3    0    0 -0.30238418427E+01 -0.34070634105E+00 -0.38963306849E+02  0.39081952116E+02  0.51100000000E-03 0.  1.
         12    1    3    3    0    0 -0.33389690962E+01  0.13615456958E+01  0.43342054866E+02  0.43491795103E+02  0.00000000000E+00 0. -1.
</event>
<event>
 7    1  0.2490895E-015  0.9000777E+02  0.7816164E-02  0.1186339E+00
        -11   -1    0    0    0    0  0.00000000000E+00  0.00000000000E+00  0.45593999997E+02  0.45594000000E+02  0.51100000000E-03 0. -1.
         11   -1    0    0    0    0 -0.00000000000E+00 -0.00000000000E+00 -0.45593999997E+02  0.45594000000E+02  0.51100000000E-03 0.  1.
    9900012    2    1    2    0    0  0.70404035675E-01  0.34490252449E+00 -0.11265114994E+01  0.90007770091E+02  0.90000031856E+02 0.  0.
         12    1    1    2    0    0 -0.70404035675E-01 -0.34490252449E+00  0.11265114994E+01  0.11802299089E+01  0.00000000000E+00 0. -1.
         11    1    3    3    0    0 -0.22875479776E+01 -0.36632317335E+01  0.86431371896E+01  0.96620889678E+01  0.51100000000E-03 0. -1.
        -11    1    3    3    0    0  0.34982971091E+02 -0.18623927999E+02 -0.80446794875E+00  0.39639703952E+02  0.51100000000E-03 0.  1.
         12    1    3    3    0    0 -0.32625019077E+02  0.22632062257E+02 -0.89651807402E+01  0.40705977172E+02  0.00000000000E+00 0. -1.
</event>
<event>
 7    1  0.2490895E-015  0.9000802E+02  0.7816164E-02  0.1186338E+00
        -11   -1    0    0    0    0  0.00000000000E+00  0.00000000000E+00  0.45593999997E+02  0.45594000000E+02  0.51100000000E-03 0.  1.
         11   -1    0    0    0    0 -0.00000000000E+00 -0.00000000000E+00 -0.45593999997E+02  0.45594000000E+02  0.51100000000E-03 0. -1.
    9900012    2    1    2    0    0  0.91493704591E+00  0.59659033351E-01  0.74274703185E+00  0.90008024512E+02  0.90000289635E+02 0.  0.
         12    1    1    2    0    0 -0.91493704591E+00 -0.59659033351E-01 -0.74274703185E+00  0.11799754877E+01  0.00000000000E+00 0. -1.
         11    1    3    3    0    0  0.86225913906E+01 -0.55061201035E+01 -0.13100243030E+02  0.16621757085E+02  0.51100000000E-03 0. -1.
        -11    1    3    3    0    0  0.23099463053E+02  0.13648222146E+02  0.27779664599E+02  0.38620835394E+02  0.51100000000E-03 0.  1.
         12    1    3    3    0    0 -0.30807117397E+02 -0.80824430092E+01 -0.13936674537E+02  0.34765432034E+02  0.00000000000E+00 0. -1.
</event>
<event>
 7    1  0.2490895E-015  0.9000775E+02  0.7816164E-02  0.1186339E+00
        -11   -1    0    0    0    0  0.00000000000E+00  0.00000000000E+00  0.45593999997E+02  0.45594000000E+02  0.51100000000E-03 0. -1.
         11   -1    0    0    0    0 -0.00000000000E+00 -0.00000000000E+00 -0.45593999997E+02  0.45594000000E+02  0.51100000000E-03 0.  1.
    9900012    2    1    2    0    0 -0.67534531607E+00 -0.59247843591E+00  0.76542305493E+00  0.90007748143E+02  0.90000009618E+02 0.  0.
         12    1    1    2    0    0  0.67534531607E+00  0.59247843591E+00 -0.76542305493E+00  0.11802518570E+01  0.00000000000E+00 0. -1.
         11    1    3    3    0    0  0.25711856095E+01  0.10148108610E+02 -0.88126178545E+00  0.10505794896E+02  0.51100000000E-03 0. -1.
        -11    1    3    3    0    0  0.42981126701E+00  0.65792679084E+01 -0.36688075679E+02  0.37275815232E+02  0.51100000000E-03 0.  1.
         12    1    3    3    0    0 -0.36763421926E+01 -0.17319854955E+02  0.38334760519E+02  0.42226138015E+02  0.00000000000E+00 0. -1.
</event>
<event>
 7    1  0.2490895E-015  0.9000775E+02  0.7816164E-02  0.1186339E+00
        -11   -1    0    0    0    0  0.00000000000E+00  0.00000000000E+00  0.45593999997E+02  0.45594000000E+02  0.51100000000E-03 0.  1.
         11   -1    0    0    0    0 -0.00000000000E+00 -0.00000000000E+00 -0.45593999997E+02  0.45594000000E+02  0.51100000000E-03 0. -1.
    9900012    2    1    2    0    0 -0.10768779568E+01 -0.17227639351E+00  0.45126787335E+00  0.90007750881E+02  0.90000012393E+02 0.  0.
         12    1    1    2    0    0  0.10768779568E+01  0.17227639351E+00 -0.45126787335E+00  0.11802491191E+01  0.00000000000E+00 0. -1.
         11    1    3    3    0    0 -0.89285616095E+01 -0.15348143111E+01  0.64298926204E+01  0.11109382825E+02  0.51100000000E-03 0. -1.
        -11    1    3    3    0    0  0.26419526213E+00 -0.38195450806E+02 -0.12787993145E+00  0.38196578576E+02  0.51100000000E-03 0.  1.
         12    1    3    3    0    0  0.75874883906E+01  0.39557988724E+02 -0.58507448155E+01  0.40701789479E+02  0.00000000000E+00 0. -1.
</event>
<event>
 7    1  0.2490895E-015  0.9000779E+02  0.7816164E-02  0.1186339E+00
        -11   -1    0    0    0    0  0.00000000000E+00  0.00000000000E+00  0.45593999997E+02  0.45594000000E+02  0.51100000000E-03 0.  1.
         11   -1    0    0    0    0 -0.00000000000E+00 -0.00000000000E+00 -0.45593999997E+02  0.45594000000E+02  0.51100000000E-03 0. -1.
    9900012    2    1    2    0    0  0.11470279883E+01  0.27786200672E+00 -0.26917193379E-02  0.90007793346E+02  0.90000055418E+02 0.  0.
         12    1    1    2    0    0 -0.11470279883E+01 -0.27786200672E+00  0.26917193379E-02  0.11802066539E+01  0.00000000000E+00 0. -1.
         11    1    3    3    0    0  0.33181630529E+02 -0.15656282599E+02 -0.60178742244E+01  0.37180029584E+02  0.51100000000E-03 0. -1.
        -11    1    3    3    0    0  0.33673881321E+01 -0.51790979955E+01 -0.72510579126E+01  0.95257650607E+01  0.51100000000E-03 0.  1.
        -12    1    3    3    0    0 -0.35401990673E+02  0.21113242601E+02  0.13266240418E+02  0.43301998702E+02  0.00000000000E+00 0.  1.
</event>
<event>
 7    1  0.2490895E-015  0.9000772E+02  0.7816164E-02  0.1186339E+00
        -11   -1    0    0    0    0  0.00000000000E+00  0.00000000000E+00  0.45593999997E+02  0.45594000000E+02  0.51100000000E-03 0. -1.
         11   -1    0    0    0    0 -0.00000000000E+00 -0.00000000000E+00 -0.45593999997E+02  0.45594000000E+02  0.51100000000E-03 0.  1.
    9900012    2    1    2    0    0 -0.96059977538E+00 -0.76013117131E-01  0.68156567467E+00  0.90007719656E+02  0.89999980755E+02 0.  0.
         12    1    1    2    0    0  0.96059977538E+00  0.76013117131E-01 -0.68156567467E+00  0.11802803444E+01  0.00000000000E+00 0. -1.
         11    1    3    3    0    0  0.43800706590E+01 -0.67799558674E+01 -0.35503647806E+01  0.88180446176E+01  0.51100000000E-03 0. -1.
        -11    1    3    3    0    0 -0.13132501726E+02 -0.32281799254E+02  0.17861732995E+02  0.39161443672E+02  0.51100000000E-03 0.  1.
         12    1    3    3    0    0  0.77918312915E+01  0.38985742004E+02 -0.13629802540E+02  0.42028231366E+02  0.00000000000E+00 0. -1.
</event>
<event>
 7    1  0.2490895E-015  0.9000789E+02  0.7816164E-02  0.1186339E+00
        -11   -1    0    0    0    0  0.00000000000E+00  0.00000000000E+00  0.45593999997E+02  0.45594000000E+02  0.51100000000E-03 0.  1.
         11   -1    0    0    0    0 -0.00000000000E+00 -0.00000000000E+00 -0.45593999997E+02  0.45594000000E+02  0.51100000000E-03 0. -1.
    9900012    2    1    2    0    0  0.60884121747E+00 -0.10108702135E+01  0.10899401269E-01  0.90007887711E+02  0.90000151029E+02 0.  0.
         12    1    1    2    0    0 -0.60884121747E+00  0.10108702135E+01 -0.10899401269E-01  0.11801122886E+01  0.00000000000E+00 0. -1.
         11    1    3    3    0    0  0.64269294877E+01  0.81602847387E+01  0.61947146315E+01  0.12094220078E+02  0.51100000000E-03 0. -1.
        -11    1    3    3    0    0  0.27755558218E+02  0.19150450124E+02 -0.36251941870E+01  0.33915376824E+02  0.51100000000E-03 0.  1.
         12    1    3    3    0    0 -0.33573646488E+02 -0.28321605076E+02 -0.25586210432E+01  0.43998290810E+02  0.00000000000E+00 0. -1.
</event>
<event>
 7    1  0.2490895E-015  0.9000780E+02  0.7816164E-02  0.1186339E+00
        -11   -1    0    0    0    0  0.00000000000E+00  0.00000000000E+00  0.45593999997E+02  0.45594000000E+02  0.51100000000E-03 0. -1.
         11   -1    0    0    0    0 -0.00000000000E+00 -0.00000000000E+00 -0.45593999997E+02  0.45594000000E+02  0.51100000000E-03 0.  1.
    9900012    2    1    2    0    0  0.45999975527E-01  0.11063722351E+01 -0.40829057312E+00  0.90007798020E+02  0.90000060154E+02 0.  0.
         12    1    1    2    0    0 -0.45999975527E-01 -0.11063722351E+01  0.40829057312E+00  0.11802019795E+01  0.00000000000E+00 0. -1.
         11    1    3    3    0    0 -0.19741150972E+01  0.64485443013E+01  0.91918345702E+01  0.11400468282E+02  0.51100000000E-03 0. -1.
        -11    1    3    3    0    0  0.20660057498E+02  0.26214963050E+02 -0.21930683740E+02  0.39937665844E+02  0.51100000000E-03 0.  1.
         12    1    3    3    0    0 -0.18639942425E+02 -0.31557135116E+02  0.12330558597E+02  0.38669663894E+02  0.00000000000E+00 0. -1.
</event>
<event>
 7    1  0.5816572E-015  0.9000748E+02  0.7816164E-02  0.1186340E+00
        -11   -1    0    0    0    0  0.00000000000E+00  0.00000000000E+00  0.45593999997E+02  0.45594000000E+02  0.51100000000E-03 0. -1.
         11   -1    0    0    0    0 -0.00000000000E+00 -0.00000000000E+00 -0.45593999997E+02  0.45594000000E+02  0.51100000000E-03 0.  1.
    9900012    2    1    2    0    0 -0.71647293990E+00 -0.85143516587E+00 -0.39413909504E+00  0.90007482765E+02  0.89999740737E+02 0.  0.
         12    1    1    2    0    0  0.71647293990E+00  0.85143516587E+00  0.39413909504E+00  0.11805172347E+01  0.00000000000E+00 0. -1.
         11    1    3    3    0    0 -0.29829234036E+02 -0.78317168795E+01  0.27053767872E+02  0.41024691940E+02  0.51100000000E-03 0. -1.
        -11    1    3    3    0    0  0.32672166557E+01  0.85397206971E+01  0.24159442726E+01  0.94571835791E+01  0.51100000000E-03 0.  1.
        -12    1    3    3    0    0  0.25845544440E+02 -0.15594389834E+01 -0.29863851239E+02  0.39525607246E+02  0.00000000000E+00 0.  1.
</event>
<event>
 7    1  0.2490895E-015  0.9000778E+02  0.7816164E-02  0.1186339E+00
        -11   -1    0    0    0    0  0.00000000000E+00  0.00000000000E+00  0.45593999997E+02  0.45594000000E+02  0.51100000000E-03 0. -1.
         11   -1    0    0    0    0 -0.00000000000E+00 -0.00000000000E+00 -0.45593999997E+02  0.45594000000E+02  0.51100000000E-03 0.  1.
    9900012    2    1    2    0    0  0.99678237805E+00  0.56802864506E+00 -0.27694371125E+00  0.90007775670E+02  0.90000037508E+02 0.  0.
         12    1    1    2    0    0 -0.99678237805E+00 -0.56802864506E+00  0.27694371125E+00  0.11802243304E+01  0.00000000000E+00 0. -1.
         11    1    3    3    0    0  0.54539014499E+00  0.18728560722E+02  0.37208636113E+02  0.41659801233E+02  0.51100000000E-03 0. -1.
        -11    1    3    3    0    0 -0.83961507574E+01 -0.44609170431E+01 -0.26280979721E+01  0.98641790139E+01  0.51100000000E-03 0.  1.
        -12    1    3    3    0    0  0.88475429905E+01 -0.13699615034E+02 -0.34857481852E+02  0.38483795423E+02  0.00000000000E+00 0.  1.
</event>
<event>
 7    1  0.2490895E-015  0.9000772E+02  0.7816164E-02  0.1186339E+00
        -11   -1    0    0    0    0  0.00000000000E+00  0.00000000000E+00  0.45593999997E+02  0.45594000000E+02  0.51100000000E-03 0. -1.
         11   -1    0    0    0    0 -0.00000000000E+00 -0.00000000000E+00 -0.45593999997E+02  0.45594000000E+02  0.51100000000E-03 0.  1.
    9900012    2    1    2    0    0 -0.65634148112E+00  0.50120990749E+00 -0.84324682192E+00  0.90007720070E+02  0.89999981175E+02 0.  0.
         12    1    1    2    0    0  0.65634148112E+00 -0.50120990749E+00  0.84324682192E+00  0.11802799303E+01  0.00000000000E+00 0. -1.
         11    1    3    3    0    0 -0.20035320656E+02  0.12715675763E+02 -0.32041846006E+02  0.39872075186E+02  0.51100000000E-03 0. -1.
        -11    1    3    3    0    0  0.44965037022E+01  0.38480511825E+01 -0.50542855053E+01  0.77827916378E+01  0.51100000000E-03 0.  1.
        -12    1    3    3    0    0  0.14882475473E+02 -0.16062517038E+02  0.36252884689E+02  0.42352853246E+02  0.00000000000E+00 0.  1.
</event>
<event>
 7    1  0.2490895E-015  0.9000770E+02  0.7816164E-02  0.1186339E+00
        -11   -1    0    0    0    0  0.00000000000E+00  0.00000000000E+00  0.45593999997E+02  0.45594000000E+02  0.51100000000E-03 0.  1.
         11   -1    0    0    0    0 -0.00000000000E+00 -0.00000000000E+00 -0.45593999997E+02  0.45594000000E+02  0.51100000000E-03 0. -1.
    9900012    2    1    2    0    0  0.65091502666E+00 -0.94956060506E+00  0.26027043583E+00  0.90007704946E+02  0.89999965851E+02 0.  0.
         12    1    1    2    0    0 -0.65091502666E+00  0.94956060506E+00 -0.26027043583E+00  0.11802950540E+01  0.00000000000E+00 0. -1.
         11    1    3    3    0    0 -0.31358200143E+02 -0.26849008917E+02 -0.75958119570E+01  0.41975020614E+02  0.51100000000E-03 0. -1.
        -11    1    3    3    0    0 -0.21679836551E+01  0.88363268580E+01  0.36766671265E+00  0.91058225626E+01  0.51100000000E-03 0.  1.
        -12    1    3    3    0    0  0.34177098824E+02  0.17063121454E+02  0.74884156801E+01  0.38926861769E+02  0.00000000000E+00 0.  1.
</event>
<event>
 7    1  0.2490895E-015  0.9000776E+02  0.7816164E-02  0.1186339E+00
        -11   -1    0    0    0    0  0.00000000000E+00  0.00000000000E+00  0.45593999997E+02  0.45594000000E+02  0.51100000000E-03 0. -1.
         11   -1    0    0    0    0 -0.00000000000E+00 -0.00000000000E+00 -0.45593999997E+02  0.45594000000E+02  0.51100000000E-03 0.  1.
    9900012    2    1    2    0    0  0.37898389601E+00 -0.96648051300E+00  0.56147144761E+00  0.90007761227E+02  0.90000022875E+02 0.  0.
         12    1    1    2    0    0 -0.37898389601E+00  0.96648051300E+00 -0.56147144761E+00  0.11802387733E+01  0.00000000000E+00 0. -1.
         11    1    3    3    0    0 -0.16856252475E+02 -0.26164107661E+02  0.59958436030E+01  0.31696118342E+02  0.51100000000E-03 0. -1.
        -11    1    3    3    0    0 -0.26323214881E+01 -0.10584535672E+02  0.97779308797E+01  0.14648189116E+02  0.51100000000E-03 0.  1.
        -12    1    3    3    0    0  0.19867557859E+02  0.35782162820E+02 -0.15212303035E+02  0.43663453769E+02  0.00000000000E+00 0.  1.
</event>
<event>
 7    1  0.2490895E-015  0.9000772E+02  0.7816164E-02  0.1186339E+00
        -11   -1    0    0    0    0  0.00000000000E+00  0.00000000000E+00  0.45593999997E+02  0.45594000000E+02  0.51100000000E-03 0.  1.
         11   -1    0    0    0    0 -0.00000000000E+00 -0.00000000000E+00 -0.45593999997E+02  0.45594000000E+02  0.51100000000E-03 0. -1.
    9900012    2    1    2    0    0  0.18997974123E+00  0.11665052077E+00  0.11590305407E+01  0.90007723998E+02  0.89999985155E+02 0.  0.
         12    1    1    2    0    0 -0.18997974123E+00 -0.11665052077E+00 -0.11590305407E+01  0.11802760018E+01  0.00000000000E+00 0. -1.
         11    1    3    3    0    0 -0.36181115838E+02 -0.66748332463E+01 -0.11241238054E+02  0.38470663828E+02  0.51100000000E-03 0. -1.
        -11    1    3    3    0    0 -0.60616261619E+00  0.28635862348E+01 -0.84238788705E+01  0.89179198654E+01  0.51100000000E-03 0.  1.
        -12    1    3    3    0    0  0.36977258195E+02  0.39278975323E+01  0.20824147465E+02  0.42619140305E+02  0.00000000000E+00 0.  1.
</event>
<event>
 7    1  0.2490895E-015  0.9000765E+02  0.7816164E-02  0.1186339E+00
        -11   -1    0    0    0    0  0.00000000000E+00  0.00000000000E+00  0.45593999997E+02  0.45594000000E+02  0.51100000000E-03 0. -1.
         11   -1    0    0    0    0 -0.00000000000E+00 -0.00000000000E+00 -0.45593999997E+02  0.45594000000E+02  0.51100000000E-03 0.  1.
    9900012    2    1    2    0    0  0.74719996453E-01 -0.10424229560E+01 -0.54863433543E+00  0.90007649064E+02  0.89999909232E+02 0.  0.
         12    1    1    2    0    0 -0.74719996453E-01  0.10424229560E+01  0.54863433543E+00  0.11803509356E+01  0.00000000000E+00 0. -1.
         11    1    3    3    0    0 -0.14183756552E+02 -0.11283342243E+02  0.29852996139E+02  0.34924119757E+02  0.51100000000E-03 0. -1.
        -11    1    3    3    0    0  0.29428548005E+01  0.58896288799E+00  0.10836981825E+02  0.11244885370E+02  0.51100000000E-03 0.  1.
        -12    1    3    3    0    0  0.11315621748E+02  0.96519563986E+01 -0.41238612299E+02  0.43838643937E+02  0.00000000000E+00 0.  1.
</event>
<event>
 7    1  0.2490895E-015  0.9000776E+02  0.7816164E-02  0.1186339E+00
        -11   -1    0    0    0    0  0.00000000000E+00  0.00000000000E+00  0.45593999997E+02  0.45594000000E+02  0.51100000000E-03 0.  1.
         11   -1    0    0    0    0 -0.00000000000E+00 -0.00000000000E+00 -0.45593999997E+02  0.45594000000E+02  0.51100000000E-03 0. -1.
    9900012    2    1    2    0    0 -0.29841382334E+00  0.21697129492E+00  0.11210898184E+01  0.90007758612E+02  0.90000020226E+02 0.  0.
         12    1    1    2    0    0  0.29841382334E+00 -0.21697129492E+00 -0.11210898184E+01  0.11802413879E+01  0.00000000000E+00 0. -1.
         11    1    3    3    0    0  0.46855879271E+01 -0.58095805966E+01 -0.58646069794E+01  0.94920796570E+01  0.51100000000E-03 0. -1.
        -11    1    3    3    0    0  0.27766370991E+01 -0.26737400712E+02  0.29577832749E+02  0.39968068515E+02  0.51100000000E-03 0.  1.
         12    1    3    3    0    0 -0.77606388495E+01  0.32763952604E+02 -0.22592135951E+02  0.40547610440E+02  0.00000000000E+00 0. -1.
</event>
<event>
 7    1  0.2490895E-015  0.9000768E+02  0.7816164E-02  0.1186339E+00
        -11   -1    0    0    0    0  0.00000000000E+00  0.00000000000E+00  0.45593999997E+02  0.45594000000E+02  0.51100000000E-03 0.  1.
         11   -1    0    0    0    0 -0.00000000000E+00 -0.00000000000E+00 -0.45593999997E+02  0.45594000000E+02  0.51100000000E-03 0. -1.
    9900012    2    1    2    0    0 -0.45681008883E+00 -0.21418669894E+00  0.10670568641E+01  0.90007677268E+02  0.89999937808E+02 0.  0.
         12    1    1    2    0    0  0.45681008883E+00  0.21418669894E+00 -0.10670568641E+01  0.11803227315E+01  0.00000000000E+00 0. -1.
         11    1    3    3    0    0 -0.10785628032E+02 -0.31806816944E+01  0.47679443036E+01  0.12213918341E+02  0.51100000000E-03 0. -1.
        -11    1    3    3    0    0  0.63242212055E+01  0.10735077812E+02  0.35503859968E+02  0.37626609498E+02  0.51100000000E-03 0.  1.
         12    1    3    3    0    0  0.40045967380E+01 -0.77685828163E+01 -0.39204747407E+02  0.40167149429E+02  0.00000000000E+00 0. -1.
</event>
<event>
 7    1  0.2490895E-015  0.9000779E+02  0.7816164E-02  0.1186339E+00
        -11   -1    0    0    0    0  0.00000000000E+00  0.00000000000E+00  0.45593999997E+02  0.45594000000E+02  0.51100000000E-03 0.  1.
         11   -1    0    0    0    0 -0.00000000000E+00 -0.00000000000E+00 -0.45593999997E+02  0.45594000000E+02  0.51100000000E-03 0. -1.
    9900012    2    1    2    0    0 -0.95000029271E+00  0.68789116640E+00 -0.13118469586E+00  0.90007786359E+02  0.90000048339E+02 0.  0.
         12    1    1    2    0    0  0.95000029271E+00 -0.68789116640E+00  0.13118469586E+00  0.11802136406E+01  0.00000000000E+00 0. -1.
         11    1    3    3    0    0 -0.14625689215E+02  0.66107564086E+01  0.22110738684E+01  0.16201905234E+02  0.51100000000E-03 0. -1.
        -11    1    3    3    0    0 -0.24574506127E+02 -0.21112385548E+02 -0.38265854720E+01  0.32623334157E+02  0.51100000000E-03 0.  1.
         12    1    3    3    0    0  0.38250195049E+02  0.15189520306E+02  0.14843269077E+01  0.41182546968E+02  0.00000000000E+00 0. -1.
</event>
<event>
 7    1  0.2490895E-015  0.9000773E+02  0.7816164E-02  0.1186339E+00
        -11   -1    0    0    0    0  0.00000000000E+00  0.00000000000E+00  0.45593999997E+02  0.45594000000E+02  0.51100000000E-03 0.  1.
         11   -1    0    0    0    0 -0.00000000000E+00 -0.00000000000E+00 -0.45593999997E+02  0.45594000000E+02  0.51100000000E-03 0. -1.
    9900012    2    1    2    0    0  0.19111468827E+00 -0.10310503316E+01  0.54171394904E+00  0.90007727314E+02  0.89999988515E+02 0.  0.
         12    1    1    2    0    0 -0.19111468827E+00  0.10310503316E+01 -0.54171394904E+00  0.11802726858E+01  0.00000000000E+00 0. -1.
         11    1    3    3    0    0  0.72457984045E+01 -0.43095958852E+02  0.47800280664E+00  0.43703452390E+02  0.51100000000E-03 0. -1.
        -11    1    3    3    0    0 -0.20337523691E+00  0.10310283789E+02  0.77766462959E+01  0.12915863934E+02  0.51100000000E-03 0.  1.
        -12    1    3    3    0    0 -0.68513084793E+01  0.31754624731E+02 -0.77129351535E+01  0.33388410989E+02  0.00000000000E+00 0.  1.
</event>
<event>
 7    1  0.2490895E-015  0.9000810E+02  0.7816164E-02  0.1186338E+00
        -11   -1    0    0    0    0  0.00000000000E+00  0.00000000000E+00  0.45593999997E+02  0.45594000000E+02  0.51100000000E-03 0.  1.
         11   -1    0    0    0    0 -0.00000000000E+00 -0.00000000000E+00 -0.45593999997E+02  0.45594000000E+02  0.51100000000E-03 0. -1.
    9900012    2    1    2    0    0 -0.11452873354E+01  0.26809057374E+00  0.92831744049E-01  0.90008096034E+02  0.90000362101E+02 0.  0.
         12    1    1    2    0    0  0.11452873354E+01 -0.26809057374E+00 -0.92831744049E-01  0.11799039661E+01  0.00000000000E+00 0. -1.
         11    1    3    3    0    0 -0.12510295810E+01 -0.11034584317E+02 -0.71538758160E+01  0.13210036545E+02  0.51100000000E-03 0. -1.
        -11    1    3    3    0    0  0.23790685283E+02  0.35384111993E+02  0.28108792454E+01  0.42730938794E+02  0.51100000000E-03 0.  1.
         12    1    3    3    0    0 -0.23684943038E+02 -0.24081437103E+02  0.44358283147E+01  0.34067120695E+02  0.00000000000E+00 0. -1.
</event>
<event>
 7    1  0.2490895E-015  0.9000777E+02  0.7816164E-02  0.1186339E+00
        -11   -1    0    0    0    0  0.00000000000E+00  0.00000000000E+00  0.45593999997E+02  0.45594000000E+02  0.51100000000E-03 0.  1.
         11   -1    0    0    0    0 -0.00000000000E+00 -0.00000000000E+00 -0.45593999997E+02  0.45594000000E+02  0.51100000000E-03 0. -1.
    9900012    2    1    2    0    0 -0.33491895373E+00  0.32631314291E+00  0.10836501609E+01  0.90007767547E+02  0.90000029278E+02 0.  0.
         12    1    1    2    0    0  0.33491895373E+00 -0.32631314291E+00 -0.10836501609E+01  0.11802324534E+01  0.00000000000E+00 0. -1.
         11    1    3    3    0    0 -0.42803947865E+00  0.11231682759E+02  0.39937125494E+01  0.11928271274E+02  0.51100000000E-03 0. -1.
        -11    1    3    3    0    0 -0.63028606561E+01  0.31786130725E+02  0.83572372253E+01  0.33465318962E+02  0.51100000000E-03 0.  1.
         12    1    3    3    0    0  0.63959811810E+01 -0.42691500340E+02 -0.11267299614E+02  0.44614177311E+02  0.00000000000E+00 0. -1.
</event>
<event>
 7    1  0.2490895E-015  0.9000774E+02  0.7816164E-02  0.1186339E+00
        -11   -1    0    0    0    0  0.00000000000E+00  0.00000000000E+00  0.45593999997E+02  0.45594000000E+02  0.51100000000E-03 0.  1.
         11   -1    0    0    0    0 -0.00000000000E+00 -0.00000000000E+00 -0.45593999997E+02  0.45594000000E+02  0.51100000000E-03 0. -1.
    9900012    2    1    2    0    0 -0.38486009975E+00 -0.92957850937E+00 -0.61708028395E+00  0.90007736649E+02  0.89999997973E+02 0.  0.
         12    1    1    2    0    0  0.38486009975E+00  0.92957850937E+00  0.61708028395E+00  0.11802633512E+01  0.00000000000E+00 0. -1.
         11    1    3    3    0    0  0.87772776204E+01  0.98016993993E+00  0.34016501284E+01  0.94642780704E+01  0.51100000000E-03 0. -1.
        -11    1    3    3    0    0  0.76986612825E+01 -0.35049755616E+02  0.14862791663E+02  0.38841438317E+02  0.51100000000E-03 0.  1.
         12    1    3    3    0    0 -0.16860799003E+02  0.33140007166E+02 -0.18881522075E+02  0.41702020261E+02  0.00000000000E+00 0. -1.
</event>
<event>
 7    1  0.2490895E-015  0.9000776E+02  0.7816164E-02  0.1186339E+00
        -11   -1    0    0    0    0  0.00000000000E+00  0.00000000000E+00  0.45593999997E+02  0.45594000000E+02  0.51100000000E-03 0.  1.
         11   -1    0    0    0    0 -0.00000000000E+00 -0.00000000000E+00 -0.45593999997E+02  0.45594000000E+02  0.51100000000E-03 0. -1.
    9900012    2    1    2    0    0 -0.27548944988E+00  0.47638202790E+00  0.10440917596E+01  0.90007761941E+02  0.90000023599E+02 0.  0.
         12    1    1    2    0    0  0.27548944988E+00 -0.47638202790E+00 -0.10440917596E+01  0.11802380590E+01  0.00000000000E+00 0. -1.
         11    1    3    3    0    0  0.13446571391E+02  0.23090300240E+02 -0.19796985937E+02  0.33254968046E+02  0.51100000000E-03 0. -1.
        -11    1    3    3    0    0  0.73569213639E+00  0.71554519269E+01 -0.94584601398E+01  0.11882937502E+02  0.51100000000E-03 0.  1.
        -12    1    3    3    0    0 -0.14457752977E+02 -0.29769370139E+02  0.30299537836E+02  0.44869856393E+02  0.00000000000E+00 0.  1.
</event>
<event>
 7    1  0.3719161E-015  0.9000775E+02  0.7816164E-02  0.1186339E+00
        -11   -1    0    0    0    0  0.00000000000E+00  0.00000000000E+00  0.45593999997E+02  0.45594000000E+02  0.51100000000E-03 0. -1.
         11   -1    0    0    0    0 -0.00000000000E+00 -0.00000000000E+00 -0.45593999997E+02  0.45594000000E+02  0.51100000000E-03 0.  1.
    9900012    2    1    2    0    0 -0.95611149222E+00 -0.56617993976E+00 -0.39785249745E+00  0.90007747688E+02  0.90000009158E+02 0.  0.
         12    1    1    2    0    0  0.95611149222E+00  0.56617993976E+00  0.39785249745E+00  0.11802523118E+01  0.00000000000E+00 0. -1.
         11    1    3    3    0    0 -0.15958662850E+02  0.32007479356E+01  0.36011510527E+02  0.39519015651E+02  0.51100000000E-03 0. -1.
        -11    1    3    3    0    0 -0.78751791630E+01 -0.43249906983E+01 -0.20657703429E+01  0.92190779778E+01  0.51100000000E-03 0.  1.
        -12    1    3    3    0    0  0.22877730520E+02  0.55806282287E+00 -0.34343592682E+02  0.41269654059E+02  0.00000000000E+00 0.  1.
</event>
<event>
 7    1  0.2490895E-015  0.9000775E+02  0.7816164E-02  0.1186339E+00
        -11   -1    0    0    0    0  0.00000000000E+00  0.00000000000E+00  0.45593999997E+02  0.45594000000E+02  0.51100000000E-03 0. -1.
         11   -1    0    0    0    0 -0.00000000000E+00 -0.00000000000E+00 -0.45593999997E+02  0.45594000000E+02  0.51100000000E-03 0.  1.
    9900012    2    1    2    0    0  0.73962528483E+00 -0.84409489930E+00  0.36529713007E+00  0.90007752672E+02  0.90000014208E+02 0.  0.
         12    1    1    2    0    0 -0.73962528483E+00  0.84409489930E+00 -0.36529713007E+00  0.11802473276E+01  0.00000000000E+00 0. -1.
         11    1    3    3    0    0 -0.84039731894E+01 -0.48152434614E+00  0.41996625225E+01  0.94072204518E+01  0.51100000000E-03 0. -1.
        -11    1    3    3    0    0 -0.63676582625E+01 -0.21443278364E+02  0.30252948636E+02  0.37624488836E+02  0.51100000000E-03 0.  1.
         12    1    3    3    0    0  0.15511256737E+02  0.21080707811E+02 -0.34087314028E+02  0.42976043385E+02  0.00000000000E+00 0. -1.
</event>
<event>
 7    1  0.2490895E-015  0.9000822E+02  0.7816164E-02  0.1186338E+00
        -11   -1    0    0    0    0  0.00000000000E+00  0.00000000000E+00  0.45593999997E+02  0.45594000000E+02  0.51100000000E-03 0.  1.
         11   -1    0    0    0    0 -0.00000000000E+00 -0.00000000000E+00 -0.45593999997E+02  0.45594000000E+02  0.51100000000E-03 0. -1.
    9900012    2    1    2    0    0 -0.23435483365E+00 -0.10841685570E+01 -0.40191075729E+00  0.90008222095E+02  0.90000489825E+02 0.  0.
         12    1    1    2    0    0  0.23435483365E+00  0.10841685570E+01  0.40191075729E+00  0.11797779049E+01  0.00000000000E+00 0. -1.
         11    1    3    3    0    0 -0.35869808616E+01  0.79486358778E+00 -0.39710807045E+02  0.39880401656E+02  0.51100000000E-03 0. -1.
        -11    1    3    3    0    0  0.23678881850E+01  0.12116126364E+02  0.54837055022E+01  0.13508458047E+02  0.51100000000E-03 0.  1.
        -12    1    3    3    0    0  0.98473784292E+00 -0.13995158508E+02  0.33825190786E+02  0.36619362392E+02  0.00000000000E+00 0.  1.
</event>
<event>
 7    1  0.2490895E-015  0.9000772E+02  0.7816164E-02  0.1186339E+00
        -11   -1    0    0    0    0  0.00000000000E+00  0.00000000000E+00  0.45593999997E+02  0.45594000000E+02  0.51100000000E-03 0.  1.
         11   -1    0    0    0    0 -0.00000000000E+00 -0.00000000000E+00 -0.45593999997E+02  0.45594000000E+02  0.51100000000E-03 0. -1.
    9900012    2    1    2    0    0 -0.10387144923E+01 -0.24816915181E+00  0.50254361742E+00  0.90007717910E+02  0.89999978986E+02 0.  0.
         12    1    1    2    0    0  0.10387144923E+01  0.24816915181E+00 -0.50254361742E+00  0.11802820899E+01  0.00000000000E+00 0. -1.
         11    1    3    3    0    0 -0.44656836633E+01  0.11861131769E+02 -0.19271201896E+02  0.23065298615E+02  0.51100000000E-03 0.  1.
        -11    1    3    3    0    0  0.82218504210E+01 -0.32763738733E+02 -0.52042616930E+01  0.34178147114E+02  0.51100000000E-03 0. -1.
        -12    1    3    3    0    0 -0.47948812500E+01  0.20654437812E+02  0.24978007207E+02  0.32764272181E+02  0.00000000000E+00 0.  1.
</event>
<event>
 7    1  0.2490895E-015  0.9000773E+02  0.7816164E-02  0.1186339E+00
        -11   -1    0    0    0    0  0.00000000000E+00  0.00000000000E+00  0.45593999997E+02  0.45594000000E+02  0.51100000000E-03 0. -1.
         11   -1    0    0    0    0 -0.00000000000E+00 -0.00000000000E+00 -0.45593999997E+02  0.45594000000E+02  0.51100000000E-03 0.  1.
    9900012    2    1    2    0    0 -0.40620326893E+00 -0.98349996602E-01 -0.11038003488E+01  0.90007725020E+02  0.89999986191E+02 0.  0.
         12    1    1    2    0    0  0.40620326893E+00  0.98349996602E-01  0.11038003488E+01  0.11802749796E+01  0.00000000000E+00 0. -1.
         11    1    3    3    0    0 -0.66080581338E+01  0.86729719876E+01 -0.58720125476E+01  0.12384159520E+02  0.51100000000E-03 0. -1.
        -11    1    3    3    0    0 -0.90883760205E+01 -0.22160919421E+02 -0.29366804059E+02  0.37896096226E+02  0.51100000000E-03 0.  1.
         12    1    3    3    0    0  0.15290230885E+02  0.13389597437E+02  0.34135016258E+02  0.39727469274E+02  0.00000000000E+00 0. -1.
</event>
<event>
 7    1  0.2490895E-015  0.9000769E+02  0.7816164E-02  0.1186339E+00
        -11   -1    0    0    0    0  0.00000000000E+00  0.00000000000E+00  0.45593999997E+02  0.45594000000E+02  0.51100000000E-03 0.  1.
         11   -1    0    0    0    0 -0.00000000000E+00 -0.00000000000E+00 -0.45593999997E+02  0.45594000000E+02  0.51100000000E-03 0. -1.
    9900012    2    1    2    0    0 -0.39615871209E+00  0.50277369511E+00  0.99167469265E+00  0.90007685716E+02  0.89999946367E+02 0.  0.
         12    1    1    2    0    0  0.39615871209E+00 -0.50277369511E+00 -0.99167469265E+00  0.11803142843E+01  0.00000000000E+00 0. -1.
         11    1    3    3    0    0  0.35896066718E+01  0.37339986834E+02  0.71228262188E+00  0.37518891770E+02  0.51100000000E-03 0. -1.
        -11    1    3    3    0    0 -0.70694448807E+01  0.60145890331E+01  0.19875273452E+01  0.94922387964E+01  0.51100000000E-03 0.  1.
        -12    1    3    3    0    0  0.30836794968E+01 -0.42851802172E+02 -0.17081352744E+01  0.42996555150E+02  0.00000000000E+00 0.  1.
</event>
<event>
 7    1  0.2490895E-015  0.9000774E+02  0.7816164E-02  0.1186339E+00
        -11   -1    0    0    0    0  0.00000000000E+00  0.00000000000E+00  0.45593999997E+02  0.45594000000E+02  0.51100000000E-03 0.  1.
         11   -1    0    0    0    0 -0.00000000000E+00 -0.00000000000E+00 -0.45593999997E+02  0.45594000000E+02  0.51100000000E-03 0. -1.
    9900012    2    1    2    0    0  0.58149417354E+00 -0.72666893235E+00  0.72582644587E+00  0.90007742723E+02  0.90000004127E+02 0.  0.
         12    1    1    2    0    0 -0.58149417354E+00  0.72666893235E+00 -0.72582644587E+00  0.11802572773E+01  0.00000000000E+00 0. -1.
         11    1    3    3    0    0 -0.10651662816E+02 -0.54912734327E+01 -0.39118882277E+02  0.40913310249E+02  0.51100000000E-03 0. -1.
        -11    1    3    3    0    0 -0.54546255487E+01 -0.49632547964E+01  0.40330047173E+01  0.84054723461E+01  0.51100000000E-03 0.  1.
        -12    1    3    3    0    0  0.16687782538E+02  0.97278592968E+01  0.35811704005E+02  0.40688960128E+02  0.00000000000E+00 0.  1.
</event>
<event>
 7    1  0.2490895E-015  0.9000773E+02  0.7816164E-02  0.1186339E+00
        -11   -1    0    0    0    0  0.00000000000E+00  0.00000000000E+00  0.45593999997E+02  0.45594000000E+02  0.51100000000E-03 0. -1.
         11   -1    0    0    0    0 -0.00000000000E+00 -0.00000000000E+00 -0.45593999997E+02  0.45594000000E+02  0.51100000000E-03 0.  1.
    9900012    2    1    2    0    0  0.71809224498E+00  0.77335571906E+00 -0.52848692082E+00  0.90007731401E+02  0.89999992655E+02 0.  0.
         12    1    1    2    0    0 -0.71809224498E+00 -0.77335571906E+00  0.52848692082E+00  0.11802685991E+01  0.00000000000E+00 0. -1.
         11    1    3    3    0    0  0.57893125319E+01 -0.34282116830E+01 -0.49039994652E+01  0.83257423664E+01  0.51100000000E-03 0. -1.
        -11    1    3    3    0    0  0.97313719110E+01  0.39229588067E+02 -0.89314326505E+01  0.41393606616E+02  0.51100000000E-03 0.  1.
         12    1    3    3    0    0 -0.14802592198E+02 -0.35028020665E+02  0.13306945195E+02  0.40288382419E+02  0.00000000000E+00 0. -1.
</event>
<event>
 7    1  0.2490895E-015  0.9000763E+02  0.7816164E-02  0.1186339E+00
        -11   -1    0    0    0    0  0.00000000000E+00  0.00000000000E+00  0.45593999997E+02  0.45594000000E+02  0.51100000000E-03 0.  1.
         11   -1    0    0    0    0 -0.00000000000E+00 -0.00000000000E+00 -0.45593999997E+02  0.45594000000E+02  0.51100000000E-03 0. -1.
    9900012    2    1    2    0    0 -0.52586801276E+00 -0.10534274647E+01  0.83815990178E-01  0.90007630689E+02  0.89999890614E+02 0.  0.
         12    1    1    2    0    0  0.52586801276E+00  0.10534274647E+01 -0.83815990178E-01  0.11803693111E+01  0.00000000000E+00 0. -1.
         11    1    3    3    0    0  0.68486794467E+01 -0.17124103401E+01  0.77613621931E+01  0.10491687314E+02  0.51100000000E-03 0. -1.
        -11    1    3    3    0    0  0.21908000380E+02 -0.58603044592E+01  0.25942427243E+02  0.34457411111E+02  0.51100000000E-03 0.  1.
         12    1    3    3    0    0 -0.29282547839E+02  0.65192873346E+01 -0.33619973445E+02  0.45058532264E+02  0.00000000000E+00 0. -1.
</event>
<event>
 7    1  0.2490895E-015  0.9000770E+02  0.7816164E-02  0.1186339E+00
        -11   -1    0    0    0    0  0.00000000000E+00  0.00000000000E+00  0.45593999997E+02  0.45594000000E+02  0.51100000000E-03 0.  1.
         11   -1    0    0    0    0 -0.00000000000E+00 -0.00000000000E+00 -0.45593999997E+02  0.45594000000E+02  0.51100000000E-03 0. -1.
    9900012    2    1    2    0    0 -0.10358639864E+01 -0.55773272284E+00 -0.94955074615E-01  0.90007704929E+02  0.89999965834E+02 0.  0.
         12    1    1    2    0    0  0.10358639864E+01  0.55773272284E+00  0.94955074615E-01  0.11802950710E+01  0.00000000000E+00 0. -1.
         11    1    3    3    0    0 -0.21802148852E+01 -0.98642608493E+01  0.86085726294E+00  0.10138937545E+02  0.51100000000E-03 0. -1.
        -11    1    3    3    0    0  0.15189352813E+02 -0.19963631892E+02  0.27123341469E+02  0.36945076667E+02  0.51100000000E-03 0.  1.
         12    1    3    3    0    0 -0.14045001915E+02  0.29270160019E+02 -0.28079153807E+02  0.42923690717E+02  0.00000000000E+00 0. -1.
</event>
<event>
 7    1  0.3222777E-015  0.9000742E+02  0.7816164E-02  0.1186340E+00
        -11   -1    0    0    0    0  0.00000000000E+00  0.00000000000E+00  0.45593999997E+02  0.45594000000E+02  0.51100000000E-03 0.  1.
         11   -1    0    0    0    0 -0.00000000000E+00 -0.00000000000E+00 -0.45593999997E+02  0.45594000000E+02  0.51100000000E-03 0. -1.
    9900012    2    1    2    0    0  0.25143296087E+00  0.10893211060E+01  0.37939357992E+00  0.90007416037E+02  0.89999673128E+02 0.  0.
         12    1    1    2    0    0 -0.25143296087E+00 -0.10893211060E+01 -0.37939357992E+00  0.11805839632E+01  0.00000000000E+00 0. -1.
         11    1    3    3    0    0  0.10261853174E+02  0.25683975616E+02 -0.26789554610E+02  0.38505226535E+02  0.51100000000E-03 0. -1.
        -11    1    3    3    0    0  0.22458556726E+01  0.81059592972E+01  0.26018573412E+01  0.88045502847E+01  0.51100000000E-03 0.  1.
        -12    1    3    3    0    0 -0.12256275886E+02 -0.32700613807E+02  0.24567090849E+02  0.42697639217E+02  0.00000000000E+00 0.  1.
</event>
<event>
 7    1  0.2490895E-015  0.9000787E+02  0.7816164E-02  0.1186339E+00
        -11   -1    0    0    0    0  0.00000000000E+00  0.00000000000E+00  0.45593999997E+02  0.45594000000E+02  0.51100000000E-03 0. -1.
         11   -1    0    0    0    0 -0.00000000000E+00 -0.00000000000E+00 -0.45593999997E+02  0.45594000000E+02  0.51100000000E-03 0.  1.
    9900012    2    1    2    0    0 -0.11268492051E+01  0.21544248693E+00  0.27660338752E+00  0.90007866944E+02  0.90000129987E+02 0.  0.
         12    1    1    2    0    0  0.11268492051E+01 -0.21544248693E+00 -0.27660338752E+00  0.11801330561E+01  0.00000000000E+00 0. -1.
         11    1    3    3    0    0 -0.73389346989E+01 -0.45709747682E+01  0.35777223970E+01  0.93570225317E+01  0.51100000000E-03 0. -1.
        -11    1    3    3    0    0 -0.23856168138E+02  0.23585215373E+02 -0.22434674030E+02  0.40357077961E+02  0.51100000000E-03 0.  1.
         12    1    3    3    0    0  0.30068253632E+02 -0.18798798118E+02  0.19133555020E+02  0.40293766452E+02  0.00000000000E+00 0. -1.
</event>
<event>
 7    1  0.2490895E-015  0.9000773E+02  0.7816164E-02  0.1186339E+00
        -11   -1    0    0    0    0  0.00000000000E+00  0.00000000000E+00  0.45593999997E+02  0.45594000000E+02  0.51100000000E-03 0. -1.
         11   -1    0    0    0    0 -0.00000000000E+00 -0.00000000000E+00 -0.45593999997E+02  0.45594000000E+02  0.51100000000E-03 0.  1.
    9900012    2    1    2    0    0  0.10426118056E+01 -0.13792373990E+00 -0.53570284772E+00  0.90007728897E+02  0.89999990119E+02 0.  0.
         12    1    1    2    0    0 -0.10426118056E+01  0.13792373990E+00  0.53570284772E+00  0.11802711029E+01  0.00000000000E+00 0. -1.
         11    1    3    3    0    0  0.23674184668E+00 -0.92586323580E+00 -0.13515532721E+02  0.13549276528E+02  0.51100000000E-03 0. -1.
        -11    1    3    3    0    0 -0.31420523791E+02 -0.16570121958E+02 -0.46589970756E+01  0.35826310318E+02  0.51100000000E-03 0.  1.
         12    1    3    3    0    0  0.32226393749E+02  0.17358061454E+02  0.17638826949E+02  0.40632142051E+02  0.00000000000E+00 0. -1.
</event>
<event>
 7    1  0.2490895E-015  0.9000772E+02  0.7816164E-02  0.1186339E+00
        -11   -1    0    0    0    0  0.00000000000E+00  0.00000000000E+00  0.45593999997E+02  0.45594000000E+02  0.51100000000E-03 0.  1.
         11   -1    0    0    0    0 -0.00000000000E+00 -0.00000000000E+00 -0.45593999997E+02  0.45594000000E+02  0.51100000000E-03 0. -1.
    9900012    2    1    2    0    0 -0.86301727669E+00 -0.80088321051E+00 -0.82747816909E-01  0.90007720398E+02  0.89999981508E+02 0.  0.
         12    1    1    2    0    0  0.86301727669E+00  0.80088321051E+00  0.82747816909E-01  0.11802796016E+01  0.00000000000E+00 0. -1.
         11    1    3    3    0    0  0.45614578260E+01 -0.44814023932E+01 -0.54557012008E+01  0.84056255425E+01  0.51100000000E-03 0. -1.
        -11    1    3    3    0    0 -0.21668233897E+02 -0.20642521776E+02  0.30728203527E+02  0.42893455884E+02  0.51100000000E-03 0.  1.
         12    1    3    3    0    0  0.16243758794E+02  0.24323040959E+02 -0.25355250143E+02  0.38708638972E+02  0.00000000000E+00 0. -1.
</event>
<event>
 7    1  0.2490895E-015  0.9000771E+02  0.7816164E-02  0.1186339E+00
        -11   -1    0    0    0    0  0.00000000000E+00  0.00000000000E+00  0.45593999997E+02  0.45594000000E+02  0.51100000000E-03 0. -1.
         11   -1    0    0    0    0 -0.00000000000E+00 -0.00000000000E+00 -0.45593999997E+02  0.45594000000E+02  0.51100000000E-03 0.  1.
    9900012    2    1    2    0    0  0.10253714171E+01  0.46737647173E+00 -0.35106513951E+00  0.90007714424E+02  0.89999975454E+02 0.  0.
         12    1    1    2    0    0 -0.10253714171E+01 -0.46737647173E+00  0.35106513951E+00  0.11802855762E+01  0.00000000000E+00 0. -1.
         11    1    3    3    0    0  0.16463832679E+01 -0.10251159494E+02 -0.90992182568E+00  0.10422322526E+02  0.51100000000E-03 0. -1.
        -11    1    3    3    0    0 -0.61144413990E+01 -0.32882612720E+02 -0.89489711421E+01  0.34622777151E+02  0.51100000000E-03 0.  1.
         12    1    3    3    0    0  0.54934295481E+01  0.43601148685E+02  0.95078278283E+01  0.44962614747E+02  0.00000000000E+00 0. -1.
</event>
<event>
 7    1  0.2490895E-015  0.9000772E+02  0.7816164E-02  0.1186339E+00
        -11   -1    0    0    0    0  0.00000000000E+00  0.00000000000E+00  0.45593999997E+02  0.45594000000E+02  0.51100000000E-03 0. -1.
         11   -1    0    0    0    0 -0.00000000000E+00 -0.00000000000E+00 -0.45593999997E+02  0.45594000000E+02  0.51100000000E-03 0.  1.
    9900012    2    1    2    0    0  0.14404250248E+00  0.94602229506E+00 -0.69090849730E+00  0.90007719958E+02  0.89999981062E+02 0.  0.
         12    1    1    2    0    0 -0.14404250248E+00 -0.94602229506E+00  0.69090849730E+00  0.11802800417E+01  0.00000000000E+00 0. -1.
         11    1    3    3    0    0  0.23195163035E+02 -0.24560074169E+02  0.74462451894E+01  0.34592765126E+02  0.51100000000E-03 0. -1.
        -11    1    3    3    0    0  0.93226805252E+01 -0.37791391568E+01  0.27400855662E+01  0.10426041152E+02  0.51100000000E-03 0.  1.
        -12    1    3    3    0    0 -0.32373801058E+02  0.29285235621E+02 -0.10877239253E+02  0.44988913679E+02  0.00000000000E+00 0.  1.
</event>
<event>
 7    1  0.2490895E-015  0.9000780E+02  0.7816164E-02  0.1186339E+00
        -11   -1    0    0    0    0  0.00000000000E+00  0.00000000000E+00  0.45593999997E+02  0.45594000000E+02  0.51100000000E-03 0. -1.
         11   -1    0    0    0    0 -0.00000000000E+00 -0.00000000000E+00 -0.45593999997E+02  0.45594000000E+02  0.51100000000E-03 0.  1.
    9900012    2    1    2    0    0  0.33152055471E-01  0.93514634994E+00 -0.71921238934E+00  0.90007803315E+02  0.90000065519E+02 0.  0.
         12    1    1    2    0    0 -0.33152055471E-01 -0.93514634994E+00  0.71921238934E+00  0.11801966851E+01  0.00000000000E+00 0. -1.
         11    1    3    3    0    0 -0.13824135340E+01 -0.39387923957E+01 -0.86702526726E+01  0.96228080300E+01  0.51100000000E-03 0. -1.
        -11    1    3    3    0    0  0.18849754256E+02 -0.98630745004E+01 -0.29592425335E+02  0.36445920369E+02  0.51100000000E-03 0.  1.
         12    1    3    3    0    0 -0.17434188666E+02  0.14737013246E+02  0.37543465618E+02  0.43939074916E+02  0.00000000000E+00 0. -1.
</event>
<event>
 7    1  0.2490895E-015  0.9000768E+02  0.7816164E-02  0.1186339E+00
        -11   -1    0    0    0    0  0.00000000000E+00  0.00000000000E+00  0.45593999997E+02  0.45594000000E+02  0.51100000000E-03 0.  1.
         11   -1    0    0    0    0 -0.00000000000E+00 -0.00000000000E+00 -0.45593999997E+02  0.45594000000E+02  0.51100000000E-03 0. -1.
    9900012    2    1    2    0    0  0.98780307467E+00 -0.56185648957E+00  0.31893648381E+00  0.90007678811E+02  0.89999939371E+02 0.  0.
         12    1    1    2    0    0 -0.98780307467E+00  0.56185648957E+00 -0.31893648381E+00  0.11803211893E+01  0.00000000000E+00 0. -1.
         11    1    3    3    0    0  0.14750224793E+02 -0.10681550615E+02 -0.31039265086E+02  0.35987506615E+02  0.51100000000E-03 0. -1.
        -11    1    3    3    0    0  0.14933445362E+01  0.62280663410E+01 -0.88011674548E+01  0.10884826001E+02  0.51100000000E-03 0.  1.
        -12    1    3    3    0    0 -0.15255766255E+02  0.38916277842E+01  0.40159369025E+02  0.43135346194E+02  0.00000000000E+00 0.  1.
</event>
<event>
 7    1  0.2490895E-015  0.9000777E+02  0.7816164E-02  0.1186339E+00
        -11   -1    0    0    0    0  0.00000000000E+00  0.00000000000E+00  0.45593999997E+02  0.45594000000E+02  0.51100000000E-03 0.  1.
         11   -1    0    0    0    0 -0.00000000000E+00 -0.00000000000E+00 -0.45593999997E+02  0.45594000000E+02  0.51100000000E-03 0. -1.
    9900012    2    1    2    0    0  0.85697496832E-01  0.11028396486E+01  0.41152008767E+00  0.90007767763E+02  0.90000029497E+02 0.  0.
         12    1    1    2    0    0 -0.85697496832E-01 -0.11028396486E+01 -0.41152008767E+00  0.11802322373E+01  0.00000000000E+00 0. -1.
         11    1    3    3    0    0 -0.43963826606E+01  0.45651523022E+01 -0.69729260604E+01  0.94228708017E+01  0.51100000000E-03 0. -1.
        -11    1    3    3    0    0 -0.21040576782E+02  0.25717283555E+02 -0.14290285025E+02  0.36170385554E+02  0.51100000000E-03 0.  1.
         12    1    3    3    0    0  0.25522656939E+02 -0.29179596208E+02  0.21674731173E+02  0.44414511407E+02  0.00000000000E+00 0. -1.
</event>
<event>
 7    1  0.2490895E-015  0.9000770E+02  0.7816164E-02  0.1186339E+00
        -11   -1    0    0    0    0  0.00000000000E+00  0.00000000000E+00  0.45593999997E+02  0.45594000000E+02  0.51100000000E-03 0.  1.
         11   -1    0    0    0    0 -0.00000000000E+00 -0.00000000000E+00 -0.45593999997E+02  0.45594000000E+02  0.51100000000E-03 0. -1.
    9900012    2    1    2    0    0 -0.22818163949E+00 -0.43370199705E+00  0.10737491361E+01  0.90007702796E+02  0.89999963673E+02 0.  0.
         12    1    1    2    0    0  0.22818163949E+00  0.43370199705E+00 -0.10737491361E+01  0.11802972042E+01  0.00000000000E+00 0. -1.
         11    1    3    3    0    0 -0.56270486767E+01 -0.86372752667E+01 -0.24724488036E+02  0.26787431936E+02  0.51100000000E-03 0. -1.
        -11    1    3    3    0    0 -0.16381405305E+02 -0.70695000127E+01 -0.85425461087E+01  0.19781389347E+02  0.51100000000E-03 0.  1.
        -12    1    3    3    0    0  0.21780272342E+02  0.15273073282E+02  0.34340783280E+02  0.43438881513E+02  0.00000000000E+00 0.  1.
</event>
<event>
 7    1  0.2490895E-015  0.9000773E+02  0.7816164E-02  0.1186339E+00
        -11   -1    0    0    0    0  0.00000000000E+00  0.00000000000E+00  0.45593999997E+02  0.45594000000E+02  0.51100000000E-03 0. -1.
         11   -1    0    0    0    0 -0.00000000000E+00 -0.00000000000E+00 -0.45593999997E+02  0.45594000000E+02  0.51100000000E-03 0.  1.
    9900012    2    1    2    0    0 -0.51576599004E+00  0.49494187453E+00  0.93917414541E+00  0.90007733042E+02  0.89999994319E+02 0.  0.
         12    1    1    2    0    0  0.51576599004E+00 -0.49494187453E+00 -0.93917414541E+00  0.11802669575E+01  0.00000000000E+00 0. -1.
         11    1    3    3    0    0  0.19040590065E+02 -0.15738306483E+02  0.23997400860E+02  0.34440000135E+02  0.51100000000E-03 0. -1.
        -11    1    3    3    0    0  0.56583397726E+01 -0.32738180071E+01  0.84911595192E+01  0.10716085272E+02  0.51100000000E-03 0.  1.
        -12    1    3    3    0    0 -0.25214695828E+02  0.19507066365E+02 -0.31549386234E+02  0.44851647635E+02  0.00000000000E+00 0.  1.
</event>
<event>
 7    1  0.2490895E-015  0.9000789E+02  0.7816164E-02  0.1186339E+00
        -11   -1    0    0    0    0  0.00000000000E+00  0.00000000000E+00  0.45593999997E+02  0.45594000000E+02  0.51100000000E-03 0. -1.
         11   -1    0    0    0    0 -0.00000000000E+00 -0.00000000000E+00 -0.45593999997E+02  0.45594000000E+02  0.51100000000E-03 0.  1.
    9900012    2    1    2    0    0 -0.63631177098E+00  0.61148893777E+00 -0.78348599112E+00  0.90007889120E+02  0.90000152456E+02 0.  0.
         12    1    1    2    0    0  0.63631177098E+00 -0.61148893777E+00  0.78348599112E+00  0.11801108800E+01  0.00000000000E+00 0. -1.
         11    1    3    3    0    0 -0.10327478856E+02 -0.33151284163E+02  0.10955971377E+02  0.36410132797E+02  0.51100000000E-03 0. -1.
        -11    1    3    3    0    0 -0.90024816276E+01 -0.11734588388E+01  0.52483667409E+01  0.10486516810E+02  0.51100000000E-03 0.  1.
        -12    1    3    3    0    0  0.18693648713E+02  0.34936231940E+02 -0.16987824109E+02  0.43111239513E+02  0.00000000000E+00 0.  1.
</event>
<event>
 7    1  0.2490895E-015  0.9000778E+02  0.7816164E-02  0.1186339E+00
        -11   -1    0    0    0    0  0.00000000000E+00  0.00000000000E+00  0.45593999997E+02  0.45594000000E+02  0.51100000000E-03 0. -1.
         11   -1    0    0    0    0 -0.00000000000E+00 -0.00000000000E+00 -0.45593999997E+02  0.45594000000E+02  0.51100000000E-03 0.  1.
    9900012    2    1    2    0    0  0.18776539711E+00 -0.11402870184E+01 -0.23962015613E+00  0.90007776230E+02  0.90000038076E+02 0.  0.
         12    1    1    2    0    0 -0.18776539711E+00  0.11402870184E+01  0.23962015613E+00  0.11802237703E+01  0.00000000000E+00 0. -1.
         11    1    3    3    0    0 -0.11286836417E+01 -0.32117702008E+02 -0.17336579206E+02  0.36515444511E+02  0.51100000000E-03 0. -1.
        -11    1    3    3    0    0 -0.46700055411E+01 -0.66841589191E+01 -0.48560664083E+01  0.94904327316E+01  0.51100000000E-03 0.  1.
        -12    1    3    3    0    0  0.59864545799E+01  0.37661573908E+02  0.21953025458E+02  0.44001898987E+02  0.00000000000E+00 0.  1.
</event>
<event>
 7    1  0.2490895E-015  0.9000793E+02  0.7816164E-02  0.1186339E+00
        -11   -1    0    0    0    0  0.00000000000E+00  0.00000000000E+00  0.45593999997E+02  0.45594000000E+02  0.51100000000E-03 0. -1.
         11   -1    0    0    0    0 -0.00000000000E+00 -0.00000000000E+00 -0.45593999997E+02  0.45594000000E+02  0.51100000000E-03 0.  1.
    9900012    2    1    2    0    0 -0.29973244975E+00 -0.10534846931E+01 -0.43919501139E+00  0.90007931443E+02  0.90000195338E+02 0.  0.
         12    1    1    2    0    0  0.29973244975E+00  0.10534846931E+01  0.43919501139E+00  0.11800685565E+01  0.00000000000E+00 0. -1.
         11    1    3    3    0    0 -0.23427891862E+02  0.72391279280E+00  0.28383419381E+02  0.36810442307E+02  0.51100000000E-03 0. -1.
        -11    1    3    3    0    0  0.24159024915E+01  0.12083139165E+00  0.93870501708E+01  0.96937039486E+01  0.51100000000E-03 0.  1.
        -12    1    3    3    0    0  0.20712256921E+02 -0.18982288776E+01 -0.38209664563E+02  0.43503785188E+02  0.00000000000E+00 0.  1.
</event>
<event>
 7    1  0.2490895E-015  0.9000776E+02  0.7816164E-02  0.1186339E+00
        -11   -1    0    0    0    0  0.00000000000E+00  0.00000000000E+00  0.45593999997E+02  0.45594000000E+02  0.51100000000E-03 0.  1.
         11   -1    0    0    0    0 -0.00000000000E+00 -0.00000000000E+00 -0.45593999997E+02  0.45594000000E+02  0.51100000000E-03 0. -1.
    9900012    2    1    2    0    0 -0.39437112484E+00 -0.98866713469E+00  0.50988632475E+00  0.90007756232E+02  0.90000017814E+02 0.  0.
         12    1    1    2    0    0  0.39437112484E+00  0.98866713469E+00 -0.50988632475E+00  0.11802437678E+01  0.00000000000E+00 0. -1.
         11    1    3    3    0    0 -0.15832442885E+02  0.32605833665E+01 -0.33274459306E+02  0.36993070891E+02  0.51100000000E-03 0. -1.
        -11    1    3    3    0    0 -0.11280196574E+02 -0.58220902777E+01  0.48216564150E+01  0.13578952125E+02  0.51100000000E-03 0.  1.
        -12    1    3    3    0    0  0.26718268334E+02  0.15728397765E+01  0.28962689215E+02  0.39435733217E+02  0.00000000000E+00 0.  1.
</event>
<event>
 7    1  0.2490895E-015  0.9000775E+02  0.7816164E-02  0.1186339E+00
        -11   -1    0    0    0    0  0.00000000000E+00  0.00000000000E+00  0.45593999997E+02  0.45594000000E+02  0.51100000000E-03 0.  1.
         11   -1    0    0    0    0 -0.00000000000E+00 -0.00000000000E+00 -0.45593999997E+02  0.45594000000E+02  0.51100000000E-03 0. -1.
    9900012    2    1    2    0    0 -0.22581599131E+00  0.75111319497E+00  0.88194505816E+00  0.90007749612E+02  0.90000011107E+02 0.  0.
         12    1    1    2    0    0  0.22581599131E+00 -0.75111319497E+00 -0.88194505816E+00  0.11802503884E+01  0.00000000000E+00 0. -1.
         11    1    3    3    0    0  0.31626310288E+02 -0.25486035507E+02  0.19219623884E+01  0.40662703402E+02  0.51100000000E-03 0. -1.
        -11    1    3    3    0    0 -0.50169005898E+01 -0.26576988154E+01  0.70886630122E+01  0.90819490245E+01  0.51100000000E-03 0.  1.
        -12    1    3    3    0    0 -0.26835225689E+02  0.28894847517E+02 -0.81286803424E+01  0.40263097185E+02  0.00000000000E+00 0.  1.
</event>
<event>
 7    1  0.2490895E-015  0.9000778E+02  0.7816164E-02  0.1186339E+00
        -11   -1    0    0    0    0  0.00000000000E+00  0.00000000000E+00  0.45593999997E+02  0.45594000000E+02  0.51100000000E-03 0.  1.
         11   -1    0    0    0    0 -0.00000000000E+00 -0.00000000000E+00 -0.45593999997E+02  0.45594000000E+02  0.51100000000E-03 0. -1.
    9900012    2    1    2    0    0  0.29813688728E+00 -0.47616734847E+00  0.10379248581E+01  0.90007784359E+02  0.90000046313E+02 0.  0.
         12    1    1    2    0    0 -0.29813688728E+00  0.47616734847E+00 -0.10379248581E+01  0.11802156406E+01  0.00000000000E+00 0. -1.
         11    1    3    3    0    0 -0.27461362374E+00  0.34661537497E+02 -0.22241092045E+02  0.41184508858E+02  0.51100000000E-03 0. -1.
        -11    1    3    3    0    0 -0.41527172331E+01  0.18036767687E+01 -0.62359042126E+00  0.45702489625E+01  0.51100000000E-03 0.  1.
        -12    1    3    3    0    0  0.47254677441E+01 -0.36941381614E+02  0.23902607325E+02  0.44253026539E+02  0.00000000000E+00 0.  1.
</event>
<event>
 7    1  0.2490895E-015  0.9000781E+02  0.7816164E-02  0.1186339E+00
        -11   -1    0    0    0    0  0.00000000000E+00  0.00000000000E+00  0.45593999997E+02  0.45594000000E+02  0.51100000000E-03 0. -1.
         11   -1    0    0    0    0 -0.00000000000E+00 -0.00000000000E+00 -0.45593999997E+02  0.45594000000E+02  0.51100000000E-03 0.  1.
    9900012    2    1    2    0    0  0.46174428652E+00 -0.58601459691E+00 -0.91445319282E+00  0.90007811229E+02  0.90000073537E+02 0.  0.
         12    1    1    2    0    0 -0.46174428652E+00  0.58601459691E+00  0.91445319282E+00  0.11801887713E+01  0.00000000000E+00 0. -1.
         11    1    3    3    0    0  0.96976483253E+01 -0.33921224610E+02 -0.19819390268E+01  0.35335845040E+02  0.51100000000E-03 0. -1.
        -11    1    3    3    0    0 -0.83127724674E+00 -0.91465745901E+01 -0.57466163233E+01  0.10833948866E+02  0.51100000000E-03 0.  1.
        -12    1    3    3    0    0 -0.84046267920E+01  0.42481784604E+02  0.68141021573E+01  0.43838017323E+02  0.00000000000E+00 0.  1.
</event>
<event>
 7    1  0.2490895E-015  0.9000769E+02  0.7816164E-02  0.1186339E+00
        -11   -1    0    0    0    0  0.00000000000E+00  0.00000000000E+00  0.45593999997E+02  0.45594000000E+02  0.51100000000E-03 0. -1.
         11   -1    0    0    0    0 -0.00000000000E+00 -0.00000000000E+00 -0.45593999997E+02  0.45594000000E+02  0.51100000000E-03 0.  1.
    9900012    2    1    2    0    0 -0.92669626327E+00  0.60801701618E+00 -0.40580284122E+00  0.90007692158E+02  0.89999952894E+02 0.  0.
         12    1    1    2    0    0  0.92669626327E+00 -0.60801701618E+00  0.40580284122E+00  0.11803078422E+01  0.00000000000E+00 0. -1.
         11    1    3    3    0    0 -0.67994951366E+01  0.54550464492E+01 -0.71208431956E+00  0.87462980864E+01  0.51100000000E-03 0. -1.
        -11    1    3    3    0    0  0.81237814596E+01 -0.35232650840E+01 -0.39950469539E+02  0.40920034686E+02  0.51100000000E-03 0.  1.
         12    1    3    3    0    0 -0.22509825862E+01 -0.13237643491E+01  0.40256751017E+02  0.40341359386E+02  0.00000000000E+00 0. -1.
</event>
<event>
 7    1  0.2490895E-015  0.9000775E+02  0.7816164E-02  0.1186339E+00
        -11   -1    0    0    0    0  0.00000000000E+00  0.00000000000E+00  0.45593999997E+02  0.45594000000E+02  0.51100000000E-03 0. -1.
         11   -1    0    0    0    0 -0.00000000000E+00 -0.00000000000E+00 -0.45593999997E+02  0.45594000000E+02  0.51100000000E-03 0.  1.
    9900012    2    1    2    0    0 -0.99651041309E+00  0.21117073888E-01 -0.63207168304E+00  0.90007748524E+02  0.90000010004E+02 0.  0.
         12    1    1    2    0    0  0.99651041309E+00 -0.21117073888E-01  0.63207168304E+00  0.11802514760E+01  0.00000000000E+00 0. -1.
         11    1    3    3    0    0  0.31716804515E+02  0.55054148664E+01  0.28273236388E+01  0.32314997148E+02  0.51100000000E-03 0. -1.
        -11    1    3    3    0    0  0.11167415205E+02 -0.61885383279E+01 -0.51663799336E+01  0.13773185938E+02  0.51100000000E-03 0.  1.
        -12    1    3    3    0    0 -0.43880730133E+02  0.70424053536E+00  0.17069846117E+01  0.43919565438E+02  0.00000000000E+00 0.  1.
</event>
<event>
 7    1  0.2903456E-015  0.9000778E+02  0.7816164E-02  0.1186339E+00
        -11   -1    0    0    0    0  0.00000000000E+00  0.00000000000E+00  0.45593999997E+02  0.45594000000E+02  0.51100000000E-03 0. -1.
         11   -1    0    0    0    0 -0.00000000000E+00 -0.00000000000E+00 -0.45593999997E+02  0.45594000000E+02  0.51100000000E-03 0.  1.
    9900012    2    1    2    0    0 -0.21193011405E+00 -0.46744095955E+00 -0.10627786298E+01  0.90007782291E+02  0.90000044218E+02 0.  0.
         12    1    1    2    0    0  0.21193011405E+00  0.46744095955E+00  0.10627786298E+01  0.11802177087E+01  0.00000000000E+00 0. -1.
         11    1    3    3    0    0 -0.22616698078E+02 -0.25454221973E+02  0.14454457344E+02  0.36991401509E+02  0.51100000000E-03 0. -1.
        -11    1    3    3    0    0 -0.32270523567E+01  0.49624198555E+00  0.92244897806E+01  0.97852611102E+01  0.51100000000E-03 0.  1.
        -12    1    3    3    0    0  0.25631820321E+02  0.24490539028E+02 -0.24741725755E+02  0.43231119673E+02  0.00000000000E+00 0.  1.
</event>
<event>
 7    1  0.2490895E-015  0.9000763E+02  0.7816164E-02  0.1186339E+00
        -11   -1    0    0    0    0  0.00000000000E+00  0.00000000000E+00  0.45593999997E+02  0.45594000000E+02  0.51100000000E-03 0. -1.
         11   -1    0    0    0    0 -0.00000000000E+00 -0.00000000000E+00 -0.45593999997E+02  0.45594000000E+02  0.51100000000E-03 0.  1.
    9900012    2    1    2    0    0 -0.91208362201E-01  0.11648939054E+01 -0.16727005131E+00  0.90007628852E+02  0.89999888753E+02 0.  0.
         12    1    1    2    0    0  0.91208362201E-01 -0.11648939054E+01  0.16727005131E+00  0.11803711477E+01  0.00000000000E+00 0. -1.
         11    1    3    3    0    0 -0.36208963403E+02  0.11612750429E+02 -0.10958170358E+02  0.39573052714E+02  0.51100000000E-03 0. -1.
        -11    1    3    3    0    0 -0.18991931135E+01 -0.73668513497E+01 -0.50532147019E+01  0.91330396022E+01  0.51100000000E-03 0.  1.
        -12    1    3    3    0    0  0.38016948154E+02 -0.30810051734E+01  0.15844115009E+02  0.41301536536E+02  0.00000000000E+00 0.  1.
</event>
<event>
 7    1  0.2490895E-015  0.9000773E+02  0.7816164E-02  0.1186339E+00
        -11   -1    0    0    0    0  0.00000000000E+00  0.00000000000E+00  0.45593999997E+02  0.45594000000E+02  0.51100000000E-03 0. -1.
         11   -1    0    0    0    0 -0.00000000000E+00 -0.00000000000E+00 -0.45593999997E+02  0.45594000000E+02  0.51100000000E-03 0.  1.
    9900012    2    1    2    0    0 -0.33864200110E+00  0.36750724897E+00 -0.10692537284E+01  0.90007727354E+02  0.89999988555E+02 0.  0.
         12    1    1    2    0    0  0.33864200110E+00 -0.36750724897E+00  0.10692537284E+01  0.11802726459E+01  0.00000000000E+00 0. -1.
         11    1    3    3    0    0  0.66377681142E+01 -0.28837677346E+01 -0.36748517327E+01  0.81166875882E+01  0.51100000000E-03 0. -1.
        -11    1    3    3    0    0 -0.19652282021E+02  0.20444569632E+02 -0.31036001445E+02  0.42040765954E+02  0.51100000000E-03 0.  1.
         12    1    3    3    0    0  0.12675871905E+02 -0.17193294648E+02  0.33641599449E+02  0.39850273812E+02  0.00000000000E+00 0. -1.
</event>
<event>
 7    1  0.2490895E-015  0.9000775E+02  0.7816164E-02  0.1186339E+00
        -11   -1    0    0    0    0  0.00000000000E+00  0.00000000000E+00  0.45593999997E+02  0.45594000000E+02  0.51100000000E-03 0. -1.
         11   -1    0    0    0    0 -0.00000000000E+00 -0.00000000000E+00 -0.45593999997E+02  0.45594000000E+02  0.51100000000E-03 0.  1.
    9900012    2    1    2    0    0  0.16131072780E+00  0.61563326316E-01 -0.11675557866E+01  0.90007746761E+02  0.90000008218E+02 0.  0.
         12    1    1    2    0    0 -0.16131072780E+00 -0.61563326316E-01  0.11675557866E+01  0.11802532393E+01  0.00000000000E+00 0. -1.
         11    1    3    3    0    0  0.61171011082E+01  0.48395329021E+00 -0.13563122396E+02  0.14886619030E+02  0.51100000000E-03 0. -1.
        -11    1    3    3    0    0 -0.34983526600E+02 -0.13459833126E+02 -0.66019839676E+01  0.38060483887E+02  0.51100000000E-03 0.  1.
         12    1    3    3    0    0  0.29027736219E+02  0.13037443162E+02  0.18997550577E+02  0.37060643844E+02  0.00000000000E+00 0. -1.
</event>
<event>
 7    1  0.2490895E-015  0.9000773E+02  0.7816164E-02  0.1186339E+00
        -11   -1    0    0    0    0  0.00000000000E+00  0.00000000000E+00  0.45593999997E+02  0.45594000000E+02  0.51100000000E-03 0. -1.
         11   -1    0    0    0    0 -0.00000000000E+00 -0.00000000000E+00 -0.45593999997E+02  0.45594000000E+02  0.51100000000E-03 0.  1.
    9900012    2    1    2    0    0  0.97665008532E+00 -0.57893345464E+00  0.32252846349E+00  0.90007731410E+02  0.89999992665E+02 0.  0.
         12    1    1    2    0    0 -0.97665008532E+00  0.57893345464E+00 -0.32252846349E+00  0.11802685897E+01  0.00000000000E+00 0. -1.
         11    1    3    3    0    0  0.11625471481E+02  0.66060868176E+01  0.38681397921E+02  0.40927283266E+02  0.51100000000E-03 0. -1.
        -11    1    3    3    0    0  0.51131452559E+01 -0.77895666608E+01 -0.21177078652E+01  0.95554324880E+01  0.51100000000E-03 0.  1.
        -12    1    3    3    0    0 -0.15761966651E+02  0.60454638854E+00 -0.36241161592E+02  0.39525015656E+02  0.00000000000E+00 0.  1.
</event>
<event>
 7    1  0.2490895E-015  0.9000786E+02  0.7816164E-02  0.1186339E+00
        -11   -1    0    0    0    0  0.00000000000E+00  0.00000000000E+00  0.45593999997E+02  0.45594000000E+02  0.51100000000E-03 0. -1.
         11   -1    0    0    0    0 -0.00000000000E+00 -0.00000000000E+00 -0.45593999997E+02  0.45594000000E+02  0.51100000000E-03 0.  1.
    9900012    2    1    2    0    0  0.47643774215E+00  0.66821574802E+00 -0.84807118080E+00  0.90007860205E+02  0.90000123160E+02 0.  0.
         12    1    1    2    0    0 -0.47643774215E+00 -0.66821574802E+00  0.84807118080E+00  0.11801397950E+01  0.00000000000E+00 0. -1.
         11    1    3    3    0    0  0.38012768869E+01 -0.18093686782E+01 -0.78925646156E+01  0.89451717399E+01  0.51100000000E-03 0. -1.
        -11    1    3    3    0    0 -0.20797789842E+02 -0.74303090408E+01 -0.30987395847E+02  0.38052283196E+02  0.51100000000E-03 0.  1.
         12    1    3    3    0    0  0.17472950698E+02  0.99078934670E+01  0.38031889282E+02  0.43010405269E+02  0.00000000000E+00 0. -1.
</event>
<event>
 7    1  0.2490895E-015  0.9000770E+02  0.7816164E-02  0.1186339E+00
        -11   -1    0    0    0    0  0.00000000000E+00  0.00000000000E+00  0.45593999997E+02  0.45594000000E+02  0.51100000000E-03 0. -1.
         11   -1    0    0    0    0 -0.00000000000E+00 -0.00000000000E+00 -0.45593999997E+02  0.45594000000E+02  0.51100000000E-03 0.  1.
    9900012    2    1    2    0    0  0.80152668204E+00 -0.86358589636E+00 -0.69940527067E-01  0.90007696099E+02  0.89999956887E+02 0.  0.
         12    1    1    2    0    0 -0.80152668204E+00  0.86358589636E+00  0.69940527067E-01  0.11803039014E+01  0.00000000000E+00 0. -1.
         11    1    3    3    0    0 -0.11457513723E+02 -0.49601991966E+01  0.62862053123E+01  0.13978360929E+02  0.51100000000E-03 0. -1.
        -11    1    3    3    0    0 -0.23477519084E+02 -0.20543227192E+02 -0.92112028485E+01  0.32527901008E+02  0.51100000000E-03 0.  1.
        -12    1    3    3    0    0  0.35736559489E+02  0.24639840492E+02  0.28550570092E+01  0.43501434162E+02  0.00000000000E+00 0.  1.
</event>
<event>
 7    1  0.2490895E-015  0.9000897E+02  0.7816164E-02  0.1186337E+00
        -11   -1    0    0    0    0  0.00000000000E+00  0.00000000000E+00  0.45593999997E+02  0.45594000000E+02  0.51100000000E-03 0.  1.
         11   -1    0    0    0    0 -0.00000000000E+00 -0.00000000000E+00 -0.45593999997E+02  0.45594000000E+02  0.51100000000E-03 0. -1.
    9900012    2    1    2    0    0 -0.10608034301E+01  0.45388423807E+00  0.24249944057E+00  0.90008966159E+02  0.90001243704E+02 0.  0.
         12    1    1    2    0    0  0.10608034301E+01 -0.45388423807E+00 -0.24249944057E+00  0.11790338407E+01  0.00000000000E+00 0. -1.
         11    1    3    3    0    0 -0.40349211282E+01  0.12064224130E+00 -0.93014503922E+01  0.10139631291E+02  0.51100000000E-03 0. -1.
        -11    1    3    3    0    0  0.18751473297E+02 -0.33313086643E+02  0.17212847741E+02  0.41924475192E+02  0.51100000000E-03 0.  1.
         12    1    3    3    0    0 -0.15777355599E+02  0.33646328640E+02 -0.76688979085E+01  0.37944859676E+02  0.00000000000E+00 0. -1.
</event>
<event>
 7    1  0.2490895E-015  0.9000786E+02  0.7816164E-02  0.1186339E+00
        -11   -1    0    0    0    0  0.00000000000E+00  0.00000000000E+00  0.45593999997E+02  0.45594000000E+02  0.51100000000E-03 0.  1.
         11   -1    0    0    0    0 -0.00000000000E+00 -0.00000000000E+00 -0.45593999997E+02  0.45594000000E+02  0.51100000000E-03 0. -1.
    9900012    2    1    2    0    0  0.78034605214E-01  0.91537836399E+00  0.74075169690E+00  0.90007864404E+02  0.90000127414E+02 0.  0.
         12    1    1    2    0    0 -0.78034605214E-01 -0.91537836399E+00 -0.74075169690E+00  0.11801355962E+01  0.00000000000E+00 0. -1.
         11    1    3    3    0    0 -0.32973835745E+02  0.10333655465E+02  0.37658085528E+00  0.34557200297E+02  0.51100000000E-03 0. -1.
        -11    1    3    3    0    0 -0.78639254034E+01  0.74159811683E+01 -0.25679918351E+01  0.11110026182E+02  0.51100000000E-03 0.  1.
        -12    1    3    3    0    0  0.40915795753E+02 -0.16834258269E+02  0.29321626767E+01  0.44340637925E+02  0.00000000000E+00 0.  1.
</event>
<event>
 7    1  0.2490895E-015  0.9000775E+02  0.7816164E-02  0.1186339E+00
        -11   -1    0    0    0    0  0.00000000000E+00  0.00000000000E+00  0.45593999997E+02  0.45594000000E+02  0.51100000000E-03 0. -1.
         11   -1    0    0    0    0 -0.00000000000E+00 -0.00000000000E+00 -0.45593999997E+02  0.45594000000E+02  0.51100000000E-03 0.  1.
    9900012    2    1    2    0    0  0.77043280746E+00 -0.83065180799E+00  0.33081848955E+00  0.90007750022E+02  0.90000011523E+02 0.  0.
         12    1    1    2    0    0 -0.77043280746E+00  0.83065180799E+00 -0.33081848955E+00  0.11802499777E+01  0.00000000000E+00 0. -1.
         11    1    3    3    0    0  0.54540320062E+01  0.42076678086E+00 -0.83642295494E+01  0.99941906138E+01  0.51100000000E-03 0. -1.
        -11    1    3    3    0    0 -0.16012582064E+02 -0.37613910064E+02 -0.29076135485E+00  0.40881457375E+02  0.51100000000E-03 0.  1.
         12    1    3    3    0    0  0.11328982865E+02  0.36362491476E+02  0.89858093938E+01  0.39132102033E+02  0.00000000000E+00 0. -1.
</event>
<event>
 7    1  0.2490895E-015  0.9000780E+02  0.7816164E-02  0.1186339E+00
        -11   -1    0    0    0    0  0.00000000000E+00  0.00000000000E+00  0.45593999997E+02  0.45594000000E+02  0.51100000000E-03 0. -1.
         11   -1    0    0    0    0 -0.00000000000E+00 -0.00000000000E+00 -0.45593999997E+02  0.45594000000E+02  0.51100000000E-03 0.  1.
    9900012    2    1    2    0    0  0.56936011827E+00 -0.71719297084E+00 -0.74453874639E+00  0.90007798896E+02  0.90000061041E+02 0.  0.
         12    1    1    2    0    0 -0.56936011827E+00  0.71719297084E+00  0.74453874639E+00  0.11802011043E+01  0.00000000000E+00 0. -1.
         11    1    3    3    0    0 -0.72411804973E+01  0.42987607708E+02 -0.45331029554E+01  0.43828280073E+02  0.51100000000E-03 0. -1.
        -11    1    3    3    0    0 -0.43756573235E+00 -0.48350320512E+01  0.42340768049E+01  0.64417703590E+01  0.51100000000E-03 0.  1.
        -12    1    3    3    0    0  0.82481063479E+01 -0.38869768628E+02 -0.44551259595E+00  0.39737748464E+02  0.00000000000E+00 0.  1.
</event>
<event>
 7    1  0.2490895E-015  0.9000779E+02  0.7816164E-02  0.1186339E+00
        -11   -1    0    0    0    0  0.00000000000E+00  0.00000000000E+00  0.45593999997E+02  0.45594000000E+02  0.51100000000E-03 0.  1.
         11   -1    0    0    0    0 -0.00000000000E+00 -0.00000000000E+00 -0.45593999997E+02  0.45594000000E+02  0.51100000000E-03 0. -1.
    9900012    2    1    2    0    0 -0.45589527693E+00 -0.10603924987E+01  0.24620753682E+00  0.90007792007E+02  0.90000054062E+02 0.  0.
         12    1    1    2    0    0  0.45589527693E+00  0.10603924987E+01 -0.24620753682E+00  0.11802079927E+01  0.00000000000E+00 0. -1.
         11    1    3    3    0    0 -0.16095709120E+01  0.12171955859E+02  0.36225157761E+00  0.12283259113E+02  0.51100000000E-03 0.  1.
        -11    1    3    3    0    0  0.57363220147E+01  0.31859341777E+02 -0.10922872160E+01  0.32390062370E+02  0.51100000000E-03 0. -1.
         12    1    3    3    0    0 -0.45826463796E+01 -0.45091690135E+02  0.97624317523E+00  0.45334470525E+02  0.00000000000E+00 0. -1.
</event>
<event>
 7    1  0.2490895E-015  0.9000766E+02  0.7816164E-02  0.1186339E+00
        -11   -1    0    0    0    0  0.00000000000E+00  0.00000000000E+00  0.45593999997E+02  0.45594000000E+02  0.51100000000E-03 0. -1.
         11   -1    0    0    0    0 -0.00000000000E+00 -0.00000000000E+00 -0.45593999997E+02  0.45594000000E+02  0.51100000000E-03 0.  1.
    9900012    2    1    2    0    0 -0.11050268453E+01 -0.41475647793E+00 -0.97598930317E-02  0.90007659998E+02  0.89999920310E+02 0.  0.
         12    1    1    2    0    0  0.11050268453E+01  0.41475647793E+00  0.97598930317E-02  0.11803400020E+01  0.00000000000E+00 0. -1.
         11    1    3    3    0    0 -0.11875703961E+02 -0.17028957870E+02 -0.29517907041E+02  0.36087734579E+02  0.51100000000E-03 0. -1.
        -11    1    3    3    0    0 -0.10055932530E+02  0.23823575425E+01 -0.47526126785E+01  0.11374741054E+02  0.51100000000E-03 0.  1.
        -12    1    3    3    0    0  0.20826609646E+02  0.14231843850E+02  0.34260759827E+02  0.42545184365E+02  0.00000000000E+00 0.  1.
</event>
<event>
 7    1  0.2490895E-015  0.9000772E+02  0.7816164E-02  0.1186339E+00
        -11   -1    0    0    0    0  0.00000000000E+00  0.00000000000E+00  0.45593999997E+02  0.45594000000E+02  0.51100000000E-03 0. -1.
         11   -1    0    0    0    0 -0.00000000000E+00 -0.00000000000E+00 -0.45593999997E+02  0.45594000000E+02  0.51100000000E-03 0.  1.
    9900012    2    1    2    0    0 -0.79079016291E+00 -0.37469452671E+00 -0.79203876023E+00  0.90007715938E+02  0.89999976988E+02 0.  0.
         12    1    1    2    0    0  0.79079016291E+00  0.37469452671E+00  0.79203876023E+00  0.11802840623E+01  0.00000000000E+00 0. -1.
         11    1    3    3    0    0 -0.48097209691E+01 -0.55076255758E+01  0.51943830282E+01  0.89693350138E+01  0.51100000000E-03 0. -1.
        -11    1    3    3    0    0 -0.30979124378E+02  0.13557049204E+02 -0.23327835725E+02  0.41081475755E+02  0.51100000000E-03 0.  1.
         12    1    3    3    0    0  0.34998055184E+02 -0.84241181550E+01  0.17341413936E+02  0.39956905169E+02  0.00000000000E+00 0. -1.
</event>
<event>
 7    1  0.2490895E-015  0.9000774E+02  0.7816164E-02  0.1186339E+00
        -11   -1    0    0    0    0  0.00000000000E+00  0.00000000000E+00  0.45593999997E+02  0.45594000000E+02  0.51100000000E-03 0.  1.
         11   -1    0    0    0    0 -0.00000000000E+00 -0.00000000000E+00 -0.45593999997E+02  0.45594000000E+02  0.51100000000E-03 0. -1.
    9900012    2    1    2    0    0 -0.21930295095E+00  0.57008516746E+00  0.10099143153E+01  0.90007738247E+02  0.89999999591E+02 0.  0.
         12    1    1    2    0    0  0.21930295095E+00 -0.57008516746E+00 -0.10099143153E+01  0.11802617534E+01  0.00000000000E+00 0. -1.
         11    1    3    3    0    0 -0.12417192594E+02  0.46370048032E+01 -0.33030970350E+02  0.35591199586E+02  0.51100000000E-03 0. -1.
        -11    1    3    3    0    0 -0.11299594084E+01 -0.12656862427E+02 -0.39028053551E+01  0.13293038203E+02  0.51100000000E-03 0.  1.
        -12    1    3    3    0    0  0.13327849052E+02  0.85899427912E+01  0.37943690020E+02  0.41123500457E+02  0.00000000000E+00 0.  1.
</event>
<event>
 7    1  0.2490895E-015  0.9000778E+02  0.7816164E-02  0.1186339E+00
        -11   -1    0    0    0    0  0.00000000000E+00  0.00000000000E+00  0.45593999997E+02  0.45594000000E+02  0.51100000000E-03 0.  1.
         11   -1    0    0    0    0 -0.00000000000E+00 -0.00000000000E+00 -0.45593999997E+02  0.45594000000E+02  0.51100000000E-03 0. -1.
    9900012    2    1    2    0    0  0.84894448145E+00  0.17345694762E+00  0.80132933195E+00  0.90007778519E+02  0.90000040396E+02 0.  0.
         12    1    1    2    0    0 -0.84894448145E+00 -0.17345694762E+00 -0.80132933195E+00  0.11802214807E+01  0.00000000000E+00 0. -1.
         11    1    3    3    0    0 -0.28478524853E+02 -0.62400322026E+01  0.19177349029E+02  0.34896061321E+02  0.51100000000E-03 0. -1.
        -11    1    3    3    0    0 -0.85978339581E+01  0.23526197436E+00  0.51803692177E+01  0.10040633569E+02  0.51100000000E-03 0.  1.
        -12    1    3    3    0    0  0.37925303292E+02  0.61782271759E+01 -0.23556388915E+02  0.45071083630E+02  0.00000000000E+00 0.  1.
</event>
<event>
 7    1  0.3453772E-015  0.9000772E+02  0.7816164E-02  0.1186339E+00
        -11   -1    0    0    0    0  0.00000000000E+00  0.00000000000E+00  0.45593999997E+02  0.45594000000E+02  0.51100000000E-03 0.  1.
         11   -1    0    0    0    0 -0.00000000000E+00 -0.00000000000E+00 -0.45593999997E+02  0.45594000000E+02  0.51100000000E-03 0. -1.
    9900012    2    1    2    0    0  0.57908871905E+00 -0.41456124365E+00  0.94120252261E+00  0.90007717425E+02  0.89999978495E+02 0.  0.
         12    1    1    2    0    0 -0.57908871905E+00  0.41456124365E+00 -0.94120252261E+00  0.11802825754E+01  0.00000000000E+00 0. -1.
         11    1    3    3    0    0 -0.22325415510E+02  0.18107688245E+02 -0.21089263142E+02  0.35652062653E+02  0.51100000000E-03 0. -1.
        -11    1    3    3    0    0 -0.65430961483E+01  0.70395263039E-01 -0.65835679920E+01  0.92822642963E+01  0.51100000000E-03 0.  1.
        -12    1    3    3    0    0  0.29447600377E+02 -0.18592644752E+02  0.28614033656E+02  0.45073390475E+02  0.00000000000E+00 0.  1.
</event>
<event>
 7    1  0.2490895E-015  0.9000793E+02  0.7816164E-02  0.1186339E+00
        -11   -1    0    0    0    0  0.00000000000E+00  0.00000000000E+00  0.45593999997E+02  0.45594000000E+02  0.51100000000E-03 0.  1.
         11   -1    0    0    0    0 -0.00000000000E+00 -0.00000000000E+00 -0.45593999997E+02  0.45594000000E+02  0.51100000000E-03 0. -1.
    9900012    2    1    2    0    0  0.57769567797E+00 -0.10284057734E+01  0.34898753736E-01  0.90007928539E+02  0.90000192395E+02 0.  0.
         12    1    1    2    0    0 -0.57769567797E+00  0.10284057734E+01 -0.34898753736E-01  0.11800714615E+01  0.00000000000E+00 0. -1.
         11    1    3    3    0    0  0.28939833501E+02 -0.15472609210E+02 -0.18748131678E+02  0.37794285818E+02  0.51100000000E-03 0. -1.
        -11    1    3    3    0    0  0.83692619379E+01 -0.16039024928E+01  0.46718969638E+01  0.97182133179E+01  0.51100000000E-03 0.  1.
        -12    1    3    3    0    0 -0.36731399761E+02  0.16048105929E+02  0.14111133468E+02  0.42495429402E+02  0.00000000000E+00 0.  1.
</event>
<event>
 7    1  0.2490895E-015  0.9000786E+02  0.7816164E-02  0.1186339E+00
        -11   -1    0    0    0    0  0.00000000000E+00  0.00000000000E+00  0.45593999997E+02  0.45594000000E+02  0.51100000000E-03 0. -1.
         11   -1    0    0    0    0 -0.00000000000E+00 -0.00000000000E+00 -0.45593999997E+02  0.45594000000E+02  0.51100000000E-03 0.  1.
    9900012    2    1    2    0    0 -0.21702166418E+00  0.42829624185E+00 -0.10780506378E+01  0.90007860495E+02  0.90000123453E+02 0.  0.
         12    1    1    2    0    0  0.21702166418E+00 -0.42829624185E+00  0.10780506378E+01  0.11801395050E+01  0.00000000000E+00 0. -1.
         11    1    3    3    0    0 -0.28107950668E+02  0.18087514691E+02  0.15799235858E+02  0.36970676656E+02  0.51100000000E-03 0. -1.
        -11    1    3    3    0    0  0.20958684918E+01  0.52198620784E+01  0.85230019433E+01  0.10211816060E+02  0.51100000000E-03 0.  1.
        -12    1    3    3    0    0  0.25795060512E+02 -0.22879080527E+02 -0.25400288439E+02  0.42825367779E+02  0.00000000000E+00 0.  1.
</event>
<event>
 7    1  0.2490895E-015  0.9000786E+02  0.7816164E-02  0.1186339E+00
        -11   -1    0    0    0    0  0.00000000000E+00  0.00000000000E+00  0.45593999997E+02  0.45594000000E+02  0.51100000000E-03 0. -1.
         11   -1    0    0    0    0 -0.00000000000E+00 -0.00000000000E+00 -0.45593999997E+02  0.45594000000E+02  0.51100000000E-03 0.  1.
    9900012    2    1    2    0    0 -0.10140139861E+00 -0.36251660166E+00 -0.11184956209E+01  0.90007858913E+02  0.90000121851E+02 0.  0.
         12    1    1    2    0    0  0.10140139861E+00  0.36251660166E+00  0.11184956209E+01  0.11801410866E+01  0.00000000000E+00 0. -1.
         11    1    3    3    0    0  0.90697350765E+00 -0.14274220569E+02  0.28768101487E+02  0.32127552618E+02  0.51100000000E-03 0. -1.
        -11    1    3    3    0    0 -0.18522998412E+01  0.23972604028E+02  0.22938584481E+01  0.24153230538E+02  0.51100000000E-03 0.  1.
        -12    1    3    3    0    0  0.84392493491E+00 -0.10060900060E+02 -0.32180455556E+02  0.33727075757E+02  0.00000000000E+00 0.  1.
</event>
<event>
 7    1  0.2490895E-015  0.9000776E+02  0.7816164E-02  0.1186339E+00
        -11   -1    0    0    0    0  0.00000000000E+00  0.00000000000E+00  0.45593999997E+02  0.45594000000E+02  0.51100000000E-03 0. -1.
         11   -1    0    0    0    0 -0.00000000000E+00 -0.00000000000E+00 -0.45593999997E+02  0.45594000000E+02  0.51100000000E-03 0.  1.
    9900012    2    1    2    0    0 -0.75601347038E-01  0.70989164042E+00 -0.93984815262E+00  0.90007755849E+02  0.90000017427E+02 0.  0.
         12    1    1    2    0    0  0.75601347038E-01 -0.70989164042E+00  0.93984815262E+00  0.11802441505E+01  0.00000000000E+00 0. -1.
         11    1    3    3    0    0 -0.30651242259E+01  0.16881599373E+02  0.47674306369E+01  0.17807632606E+02  0.51100000000E-03 0. -1.
        -11    1    3    3    0    0 -0.27662477373E+02  0.46915536069E+01 -0.17766833581E+02  0.33209692944E+02  0.51100000000E-03 0.  1.
         12    1    3    3    0    0  0.30652000252E+02 -0.20863261339E+02  0.12059554791E+02  0.38990430299E+02  0.00000000000E+00 0. -1.
</event>
<event>
 7    1  0.2490895E-015  0.9000775E+02  0.7816164E-02  0.1186339E+00
        -11   -1    0    0    0    0  0.00000000000E+00  0.00000000000E+00  0.45593999997E+02  0.45594000000E+02  0.51100000000E-03 0. -1.
         11   -1    0    0    0    0 -0.00000000000E+00 -0.00000000000E+00 -0.45593999997E+02  0.45594000000E+02  0.51100000000E-03 0.  1.
    9900012    2    1    2    0    0  0.22767369636E+00 -0.43612790059E+00 -0.10728208337E+01  0.90007751128E+02  0.90000012643E+02 0.  0.
         12    1    1    2    0    0 -0.22767369636E+00  0.43612790059E+00  0.10728208337E+01  0.11802488716E+01  0.00000000000E+00 0. -1.
         11    1    3    3    0    0  0.18735759540E+02  0.13159941020E+02  0.20421527416E+02  0.30679822611E+02  0.51100000000E-03 0. -1.
        -11    1    3    3    0    0 -0.10734701575E+02  0.17064333249E+01  0.15276349623E+02  0.18748669037E+02  0.51100000000E-03 0.  1.
        -12    1    3    3    0    0 -0.77733842685E+01 -0.15302502245E+02 -0.36770697873E+02  0.40579259481E+02  0.00000000000E+00 0.  1.
</event>
<event>
 7    1  0.2490895E-015  0.9000788E+02  0.7816164E-02  0.1186339E+00
        -11   -1    0    0    0    0  0.00000000000E+00  0.00000000000E+00  0.45593999997E+02  0.45594000000E+02  0.51100000000E-03 0. -1.
         11   -1    0    0    0    0 -0.00000000000E+00 -0.00000000000E+00 -0.45593999997E+02  0.45594000000E+02  0.51100000000E-03 0.  1.
    9900012    2    1    2    0    0  0.58076121814E+00 -0.93646232280E+00 -0.42242433099E+00  0.90007878146E+02  0.90000141338E+02 0.  0.
         12    1    1    2    0    0 -0.58076121814E+00  0.93646232280E+00  0.42242433099E+00  0.11801218538E+01  0.00000000000E+00 0. -1.
         11    1    3    3    0    0  0.22817300367E+01 -0.53635222186E+01 -0.10089228423E+02  0.11651875084E+02  0.51100000000E-03 0. -1.
        -11    1    3    3    0    0 -0.39240481549E+02  0.10370422555E+00 -0.42891350107E+00  0.39242962602E+02  0.51100000000E-03 0.  1.
         12    1    3    3    0    0  0.37539512730E+02  0.43233556702E+01  0.10095717593E+02  0.39113040460E+02  0.00000000000E+00 0. -1.
</event>
<event>
 7    1  0.2490895E-015  0.9000744E+02  0.7816164E-02  0.1186340E+00
        -11   -1    0    0    0    0  0.00000000000E+00  0.00000000000E+00  0.45593999997E+02  0.45594000000E+02  0.51100000000E-03 0.  1.
         11   -1    0    0    0    0 -0.00000000000E+00 -0.00000000000E+00 -0.45593999997E+02  0.45594000000E+02  0.51100000000E-03 0. -1.
    9900012    2    1    2    0    0  0.11761001620E+01 -0.25973096970E-01 -0.99127902938E-01  0.90007443973E+02  0.89999701432E+02 0.  0.
         12    1    1    2    0    0 -0.11761001620E+01  0.25973096970E-01  0.99127902938E-01  0.11805560275E+01  0.00000000000E+00 0. -1.
         11    1    3    3    0    0  0.29739806947E+01  0.98104882494E+01  0.55549811282E+00  0.10266392710E+02  0.51100000000E-03 0. -1.
        -11    1    3    3    0    0  0.35239173596E+02  0.11247970263E+02 -0.25706269929E+01  0.37079971874E+02  0.51100000000E-03 0.  1.
         12    1    3    3    0    0 -0.37037054129E+02 -0.21084431609E+02  0.19160009771E+01  0.42661079388E+02  0.00000000000E+00 0. -1.
</event>
<event>
 7    1  0.2490895E-015  0.9000773E+02  0.7816164E-02  0.1186339E+00
        -11   -1    0    0    0    0  0.00000000000E+00  0.00000000000E+00  0.45593999997E+02  0.45594000000E+02  0.51100000000E-03 0. -1.
         11   -1    0    0    0    0 -0.00000000000E+00 -0.00000000000E+00 -0.45593999997E+02  0.45594000000E+02  0.51100000000E-03 0.  1.
    9900012    2    1    2    0    0 -0.63764967584E+00 -0.10109835842E+00 -0.98803314990E+00  0.90007734143E+02  0.89999995434E+02 0.  0.
         12    1    1    2    0    0  0.63764967584E+00  0.10109835842E+00  0.98803314990E+00  0.11802658567E+01  0.00000000000E+00 0. -1.
         11    1    3    3    0    0  0.12555190915E+02 -0.11177550142E+01 -0.16953026602E+01  0.12718342917E+02  0.51100000000E-03 0. -1.
        -11    1    3    3    0    0  0.21336576231E+02 -0.16793240918E+02 -0.19564442635E+02  0.33466846904E+02  0.51100000000E-03 0.  1.
         12    1    3    3    0    0 -0.34529416821E+02  0.17809897574E+02  0.20271712146E+02  0.43822544323E+02  0.00000000000E+00 0. -1.
</event>
<event>
 7    1  0.2490895E-015  0.9000774E+02  0.7816164E-02  0.1186339E+00
        -11   -1    0    0    0    0  0.00000000000E+00  0.00000000000E+00  0.45593999997E+02  0.45594000000E+02  0.51100000000E-03 0.  1.
         11   -1    0    0    0    0 -0.00000000000E+00 -0.00000000000E+00 -0.45593999997E+02  0.45594000000E+02  0.51100000000E-03 0. -1.
    9900012    2    1    2    0    0 -0.86845947825E+00 -0.29657723872E+00  0.74218639082E+00  0.90007737079E+02  0.89999998408E+02 0.  0.
         12    1    1    2    0    0  0.86845947825E+00  0.29657723872E+00 -0.74218639082E+00  0.11802629210E+01  0.00000000000E+00 0. -1.
         11    1    3    3    0    0  0.61296453225E+01 -0.31113613944E+02  0.29905615743E+02  0.43588706997E+02  0.51100000000E-03 0. -1.
        -11    1    3    3    0    0 -0.46912573136E+01  0.60249994967E+01  0.54591793703E+00  0.76554908904E+01  0.51100000000E-03 0.  1.
        -12    1    3    3    0    0 -0.23068474872E+01  0.24792037209E+02 -0.29709347289E+02  0.38763539191E+02  0.00000000000E+00 0.  1.
</event>
<event>
 7    1  0.2490895E-015  0.9000766E+02  0.7816164E-02  0.1186339E+00
        -11   -1    0    0    0    0  0.00000000000E+00  0.00000000000E+00  0.45593999997E+02  0.45594000000E+02  0.51100000000E-03 0. -1.
         11   -1    0    0    0    0 -0.00000000000E+00 -0.00000000000E+00 -0.45593999997E+02  0.45594000000E+02  0.51100000000E-03 0.  1.
    9900012    2    1    2    0    0 -0.11295602403E+01 -0.28559761539E+00  0.18903355373E+00  0.90007658516E+02  0.89999918808E+02 0.  0.
         12    1    1    2    0    0  0.11295602403E+01  0.28559761539E+00 -0.18903355373E+00  0.11803414840E+01  0.00000000000E+00 0. -1.
         11    1    3    3    0    0  0.27458410256E+01 -0.64979862987E+01 -0.57152582185E+01  0.90789672123E+01  0.51100000000E-03 0. -1.
        -11    1    3    3    0    0  0.20859630127E+02  0.35605953402E+02 -0.33864043566E+01  0.41405021694E+02  0.51100000000E-03 0.  1.
         12    1    3    3    0    0 -0.24735031393E+02 -0.29393564719E+02  0.92906961288E+01  0.39523669610E+02  0.00000000000E+00 0. -1.
</event>
<event>
 7    1  0.2490895E-015  0.9000771E+02  0.7816164E-02  0.1186339E+00
        -11   -1    0    0    0    0  0.00000000000E+00  0.00000000000E+00  0.45593999997E+02  0.45594000000E+02  0.51100000000E-03 0.  1.
         11   -1    0    0    0    0 -0.00000000000E+00 -0.00000000000E+00 -0.45593999997E+02  0.45594000000E+02  0.51100000000E-03 0. -1.
    9900012    2    1    2    0    0  0.53506169241E+00  0.71091546159E+00  0.77548889318E+00  0.90007714089E+02  0.89999975115E+02 0.  0.
         12    1    1    2    0    0 -0.53506169241E+00 -0.71091546159E+00 -0.77548889318E+00  0.11802859110E+01  0.00000000000E+00 0. -1.
         11    1    3    3    0    0 -0.47393996979E+01  0.29536619141E+01 -0.38252423724E+02  0.38657909271E+02  0.51100000000E-03 0. -1.
        -11    1    3    3    0    0 -0.23733923701E+01 -0.98914940702E+01 -0.68012458049E+00  0.10194960323E+02  0.51100000000E-03 0.  1.
        -12    1    3    3    0    0  0.76478537604E+01  0.76487476177E+01  0.39708037198E+02  0.41154844495E+02  0.00000000000E+00 0.  1.
</event>
<event>
 7    1  0.2490895E-015  0.9000781E+02  0.7816164E-02  0.1186339E+00
        -11   -1    0    0    0    0  0.00000000000E+00  0.00000000000E+00  0.45593999997E+02  0.45594000000E+02  0.51100000000E-03 0. -1.
         11   -1    0    0    0    0 -0.00000000000E+00 -0.00000000000E+00 -0.45593999997E+02  0.45594000000E+02  0.51100000000E-03 0.  1.
    9900012    2    1    2    0    0  0.70967053391E+00 -0.45714696332E+00 -0.82476436323E+00  0.90007808546E+02  0.90000070819E+02 0.  0.
         12    1    1    2    0    0 -0.70967053391E+00  0.45714696332E+00  0.82476436323E+00  0.11801914538E+01  0.00000000000E+00 0. -1.
         11    1    3    3    0    0  0.32654202291E+01  0.65096702130E+01  0.87275848040E+01  0.11367036216E+02  0.51100000000E-03 0. -1.
        -11    1    3    3    0    0  0.21283323746E+02 -0.34902243262E+02 -0.92589721651E+01  0.41915092988E+02  0.51100000000E-03 0.  1.
         12    1    3    3    0    0 -0.23839073441E+02  0.27935426086E+02 -0.29337700214E+00  0.36725679343E+02  0.00000000000E+00 0. -1.
</event>
<event>
 7    1  0.2490895E-015  0.9000770E+02  0.7816164E-02  0.1186339E+00
        -11   -1    0    0    0    0  0.00000000000E+00  0.00000000000E+00  0.45593999997E+02  0.45594000000E+02  0.51100000000E-03 0.  1.
         11   -1    0    0    0    0 -0.00000000000E+00 -0.00000000000E+00 -0.45593999997E+02  0.45594000000E+02  0.51100000000E-03 0. -1.
    9900012    2    1    2    0    0 -0.29438284540E+00  0.11321621723E+01 -0.15700532339E+00  0.90007702107E+02  0.89999962975E+02 0.  0.
         12    1    1    2    0    0  0.29438284540E+00 -0.11321621723E+01  0.15700532339E+00  0.11802978928E+01  0.00000000000E+00 0. -1.
         11    1    3    3    0    0 -0.77521500878E+01  0.37064170887E+02  0.18354247561E+02  0.42080007110E+02  0.51100000000E-03 0. -1.
        -11    1    3    3    0    0 -0.16451994894E+01  0.89529345643E-01 -0.95729595707E+01  0.97137146379E+01  0.51100000000E-03 0.  1.
        -12    1    3    3    0    0  0.91029667318E+01 -0.36021538061E+02 -0.89382933136E+01  0.38213980360E+02  0.00000000000E+00 0.  1.
</event>
<event>
 7    1  0.2490895E-015  0.9000760E+02  0.7816164E-02  0.1186339E+00
        -11   -1    0    0    0    0  0.00000000000E+00  0.00000000000E+00  0.45593999997E+02  0.45594000000E+02  0.51100000000E-03 0. -1.
         11   -1    0    0    0    0 -0.00000000000E+00 -0.00000000000E+00 -0.45593999997E+02  0.45594000000E+02  0.51100000000E-03 0.  1.
    9900012    2    1    2    0    0 -0.91791782567E+00 -0.20743455748E-01  0.74184767487E+00  0.90007601170E+02  0.89999860705E+02 0.  0.
         12    1    1    2    0    0  0.91791782567E+00  0.20743455748E-01 -0.74184767487E+00  0.11803988302E+01  0.00000000000E+00 0. -1.
         11    1    3    3    0    0 -0.17678053659E+02 -0.33543436722E+02  0.15872879201E+02  0.41105036463E+02  0.51100000000E-03 0. -1.
        -11    1    3    3    0    0 -0.71241342471E+01  0.64258975399E+01  0.35891623135E+00  0.96007431528E+01  0.51100000000E-03 0.  1.
        -12    1    3    3    0    0  0.23884270080E+02  0.27096795726E+02 -0.15489947757E+02  0.39301821554E+02  0.00000000000E+00 0.  1.
</event>
<event>
 7    1  0.2490895E-015  0.9000774E+02  0.7816164E-02  0.1186339E+00
        -11   -1    0    0    0    0  0.00000000000E+00  0.00000000000E+00  0.45593999997E+02  0.45594000000E+02  0.51100000000E-03 0.  1.
         11   -1    0    0    0    0 -0.00000000000E+00 -0.00000000000E+00 -0.45593999997E+02  0.45594000000E+02  0.51100000000E-03 0. -1.
    9900012    2    1    2    0    0 -0.11184032461E+01  0.32839076908E+00 -0.18534561001E+00  0.90007737608E+02  0.89999998945E+02 0.  0.
         12    1    1    2    0    0  0.11184032461E+01 -0.32839076908E+00  0.18534561001E+00  0.11802623917E+01  0.00000000000E+00 0. -1.
         11    1    3    3    0    0  0.81715356626E+01  0.60783517451E+01  0.21355183259E+01  0.10405805774E+02  0.51100000000E-03 0. -1.
        -11    1    3    3    0    0  0.20784827674E+02  0.25130903300E+02  0.11108679947E+02  0.34452490948E+02  0.51100000000E-03 0.  1.
         12    1    3    3    0    0 -0.30074766582E+02 -0.30880864276E+02 -0.13429543883E+02  0.45149440886E+02  0.00000000000E+00 0. -1.
</event>
<event>
 7    1  0.2490895E-015  0.9000774E+02  0.7816164E-02  0.1186339E+00
        -11   -1    0    0    0    0  0.00000000000E+00  0.00000000000E+00  0.45593999997E+02  0.45594000000E+02  0.51100000000E-03 0. -1.
         11   -1    0    0    0    0 -0.00000000000E+00 -0.00000000000E+00 -0.45593999997E+02  0.45594000000E+02  0.51100000000E-03 0.  1.
    9900012    2    1    2    0    0 -0.52735592084E+00  0.10516317081E+01  0.94825081096E-01  0.90007735067E+02  0.89999996370E+02 0.  0.
         12    1    1    2    0    0  0.52735592084E+00 -0.10516317081E+01 -0.94825081096E-01  0.11802649333E+01  0.00000000000E+00 0. -1.
         11    1    3    3    0    0  0.61228586678E+01  0.13068329392E+01  0.88702030736E+01  0.10857150336E+02  0.51100000000E-03 0. -1.
        -11    1    3    3    0    0 -0.12371957838E+01 -0.39032588174E+02 -0.12208999234E+00  0.39052381480E+02  0.51100000000E-03 0.  1.
         12    1    3    3    0    0 -0.54130188049E+01  0.38777386943E+02 -0.86532880002E+01  0.40098203251E+02  0.00000000000E+00 0. -1.
</event>
<event>
 7    1  0.2490895E-015  0.9000770E+02  0.7816164E-02  0.1186339E+00
        -11   -1    0    0    0    0  0.00000000000E+00  0.00000000000E+00  0.45593999997E+02  0.45594000000E+02  0.51100000000E-03 0. -1.
         11   -1    0    0    0    0 -0.00000000000E+00 -0.00000000000E+00 -0.45593999997E+02  0.45594000000E+02  0.51100000000E-03 0.  1.
    9900012    2    1    2    0    0 -0.94687978674E+00 -0.11047835476E+00 -0.69592755053E+00  0.90007702600E+02  0.89999963474E+02 0.  0.
         12    1    1    2    0    0  0.94687978674E+00  0.11047835476E+00  0.69592755053E+00  0.11802974002E+01  0.00000000000E+00 0. -1.
         11    1    3    3    0    0  0.41393504352E+00 -0.10411986526E+01 -0.95655341300E+01  0.96309335117E+01  0.51100000000E-03 0. -1.
        -11    1    3    3    0    0 -0.16844747004E+02 -0.50190330128E+01 -0.31866744228E+02  0.36392658353E+02  0.51100000000E-03 0.  1.
         12    1    3    3    0    0  0.15483932174E+02  0.59497533106E+01  0.40736350808E+02  0.43984110735E+02  0.00000000000E+00 0. -1.
</event>
<event>
 7    1  0.2490895E-015  0.9000782E+02  0.7816164E-02  0.1186339E+00
        -11   -1    0    0    0    0  0.00000000000E+00  0.00000000000E+00  0.45593999997E+02  0.45594000000E+02  0.51100000000E-03 0.  1.
         11   -1    0    0    0    0 -0.00000000000E+00 -0.00000000000E+00 -0.45593999997E+02  0.45594000000E+02  0.51100000000E-03 0. -1.
    9900012    2    1    2    0    0 -0.99926281977E+00 -0.60587744695E+00 -0.16495936421E+00  0.90007819821E+02  0.90000082242E+02 0.  0.
         12    1    1    2    0    0  0.99926281977E+00  0.60587744695E+00  0.16495936421E+00  0.11801801793E+01  0.00000000000E+00 0. -1.
         11    1    3    3    0    0 -0.15653492934E+01 -0.92989616965E+01 -0.20233208301E+01  0.96444198626E+01  0.51100000000E-03 0. -1.
        -11    1    3    3    0    0 -0.20382458899E+02 -0.29389467870E+02 -0.57906630695E+01  0.36231439821E+02  0.51100000000E-03 0.  1.
         12    1    3    3    0    0  0.20948545372E+02  0.38082552120E+02  0.76490245355E+01  0.44131960137E+02  0.00000000000E+00 0. -1.
</event>
<event>
 8    1  0.2490895E-015  0.9000772E+02  0.7816164E-02  0.1186339E+00
        -11   -1    0    0    0    0  0.00000000000E+00  0.00000000000E+00  0.45593999997E+02  0.45594000000E+02  0.51100000000E-03 0. -1.
         11   -1    0    0    0    0 -0.00000000000E+00 -0.00000000000E+00 -0.45593999997E+02  0.45594000000E+02  0.51100000000E-03 0.  1.
    9900012    2    1    2    0    0 -0.19170557909E+00 -0.28465124387E-01 -0.11642552110E+01  0.90007723978E+02  0.89999985134E+02 0.  0.
         23    2    3    3    0    0 -0.30326645282E-01  0.22079352054E+02 -0.16077653116E+02  0.63339558299E+02  0.57148140905E+02 0.  0.
         12    1    1    2    0    0  0.19170557909E+00  0.28465124387E-01  0.11642552110E+01  0.11802760223E+01  0.00000000000E+00 0. -1.
         11    1    4    4    0    0  0.43404505062E+00  0.32839211695E+02 -0.30849300033E+02  0.45058645482E+02  0.51100000000E-03 0. -1.
        -11    1    4    4    0    0 -0.46437169591E+00 -0.10759859640E+02  0.14771646917E+02  0.18280912818E+02  0.51100000000E-03 0.  1.
        -12    1    3    3    0    0 -0.16137893381E+00 -0.22107817179E+02  0.14913397905E+02  0.26668165679E+02  0.00000000000E+00 0.  1.
</event>
<event>
 7    1  0.2490895E-015  0.9000769E+02  0.7816164E-02  0.1186339E+00
        -11   -1    0    0    0    0  0.00000000000E+00  0.00000000000E+00  0.45593999997E+02  0.45594000000E+02  0.51100000000E-03 0.  1.
         11   -1    0    0    0    0 -0.00000000000E+00 -0.00000000000E+00 -0.45593999997E+02  0.45594000000E+02  0.51100000000E-03 0. -1.
    9900012    2    1    2    0    0  0.86530120498E+00  0.21595417120E+00  0.77314356697E+00  0.90007689297E+02  0.89999949996E+02 0.  0.
         12    1    1    2    0    0 -0.86530120498E+00 -0.21595417120E+00 -0.77314356697E+00  0.11803107025E+01  0.00000000000E+00 0. -1.
         11    1    3    3    0    0  0.62551073257E+01  0.75687424334E+00 -0.70432843999E+01  0.94502424135E+01  0.51100000000E-03 0. -1.
        -11    1    3    3    0    0  0.28098418860E+02 -0.10164043737E+02 -0.20014019711E+02  0.35963730518E+02  0.51100000000E-03 0.  1.
         12    1    3    3    0    0 -0.33488224981E+02  0.96231236644E+01  0.27830447678E+02  0.44593716366E+02  0.00000000000E+00 0. -1.
</event>
<event>
 7    1  0.2490895E-015  0.9000772E+02  0.7816164E-02  0.1186339E+00
        -11   -1    0    0    0    0  0.00000000000E+00  0.00000000000E+00  0.45593999997E+02  0.45594000000E+02  0.51100000000E-03 0. -1.
         11   -1    0    0    0    0 -0.00000000000E+00 -0.00000000000E+00 -0.45593999997E+02  0.45594000000E+02  0.51100000000E-03 0.  1.
    9900012    2    1    2    0    0 -0.46819090706E+00  0.50445467633E-01 -0.10822737941E+01  0.90007718662E+02  0.89999979749E+02 0.  0.
         12    1    1    2    0    0  0.46819090706E+00 -0.50445467633E-01  0.10822737941E+01  0.11802813376E+01  0.00000000000E+00 0. -1.
         11    1    3    3    0    0 -0.69462307676E+01 -0.36082143176E+01  0.49092440570E+01  0.92395892717E+01  0.51100000000E-03 0. -1.
        -11    1    3    3    0    0 -0.27997988314E+02  0.41661504227E+01 -0.28038573241E+02  0.39842260838E+02  0.51100000000E-03 0.  1.
         12    1    3    3    0    0  0.34476028175E+02 -0.50749063746E+00  0.22047055390E+02  0.40925868553E+02  0.00000000000E+00 0. -1.
</event>
<event>
 7    1  0.2490895E-015  0.9000789E+02  0.7816164E-02  0.1186339E+00
        -11   -1    0    0    0    0  0.00000000000E+00  0.00000000000E+00  0.45593999997E+02  0.45594000000E+02  0.51100000000E-03 0.  1.
         11   -1    0    0    0    0 -0.00000000000E+00 -0.00000000000E+00 -0.45593999997E+02  0.45594000000E+02  0.51100000000E-03 0. -1.
    9900012    2    1    2    0    0  0.29681659252E+00 -0.11421271642E+01 -0.98262354626E-02  0.90007893605E+02  0.90000157000E+02 0.  0.
         12    1    1    2    0    0 -0.29681659252E+00  0.11421271642E+01  0.98262354626E-02  0.11801063950E+01  0.00000000000E+00 0. -1.
         11    1    3    3    0    0 -0.11437097186E+02  0.14473309893E+02 -0.31684839750E+02  0.36663509945E+02  0.51100000000E-03 0. -1.
        -11    1    3    3    0    0 -0.80543382392E+01 -0.43160187928E+00 -0.46274555858E+01  0.92990316761E+01  0.51100000000E-03 0.  1.
        -12    1    3    3    0    0  0.19788252017E+02 -0.15183835178E+02  0.36302469100E+02  0.44045351984E+02  0.00000000000E+00 0.  1.
</event>
<event>
 7    1  0.2490895E-015  0.9000775E+02  0.7816164E-02  0.1186339E+00
        -11   -1    0    0    0    0  0.00000000000E+00  0.00000000000E+00  0.45593999997E+02  0.45594000000E+02  0.51100000000E-03 0.  1.
         11   -1    0    0    0    0 -0.00000000000E+00 -0.00000000000E+00 -0.45593999997E+02  0.45594000000E+02  0.51100000000E-03 0. -1.
    9900012    2    1    2    0    0  0.10142740902E+01  0.10124777071E+00 -0.59497205706E+00  0.90007747997E+02  0.90000009471E+02 0.  0.
         12    1    1    2    0    0 -0.10142740902E+01 -0.10124777071E+00  0.59497205706E+00  0.11802520027E+01  0.00000000000E+00 0. -1.
         11    1    3    3    0    0 -0.15253193977E+02 -0.35366818827E+02 -0.17897014974E+02  0.42470871732E+02  0.51100000000E-03 0. -1.
        -11    1    3    3    0    0  0.12676924736E+01  0.85950437917E+01 -0.45354042966E+01  0.98005976544E+01  0.51100000000E-03 0.  1.
        -12    1    3    3    0    0  0.14999775594E+02  0.26873022806E+02  0.21837447213E+02  0.37736278611E+02  0.00000000000E+00 0.  1.
</event>
<event>
 7    1  0.2490895E-015  0.9000776E+02  0.7816164E-02  0.1186339E+00
        -11   -1    0    0    0    0  0.00000000000E+00  0.00000000000E+00  0.45593999997E+02  0.45594000000E+02  0.51100000000E-03 0.  1.
         11   -1    0    0    0    0 -0.00000000000E+00 -0.00000000000E+00 -0.45593999997E+02  0.45594000000E+02  0.51100000000E-03 0. -1.
    9900012    2    1    2    0    0 -0.17685136239E-01 -0.10915858587E+01  0.44842954851E+00  0.90007762096E+02  0.90000023755E+02 0.  0.
         12    1    1    2    0    0  0.17685136239E-01  0.10915858587E+01 -0.44842954851E+00  0.11802379043E+01  0.00000000000E+00 0. -1.
         11    1    3    3    0    0  0.21575066583E+01 -0.21823931013E+01  0.81282688206E+01  0.86882926350E+01  0.51100000000E-03 0. -1.
        -11    1    3    3    0    0 -0.25706046343E+01 -0.11407631204E+02  0.34970487101E+02  0.36873798641E+02  0.51100000000E-03 0.  1.
         12    1    3    3    0    0  0.39541283978E+00  0.12498438446E+02 -0.42650326373E+02  0.44445670820E+02  0.00000000000E+00 0. -1.
</event>
<event>
 7    1  0.2490895E-015  0.9000835E+02  0.7816164E-02  0.1186338E+00
        -11   -1    0    0    0    0  0.00000000000E+00  0.00000000000E+00  0.45593999997E+02  0.45594000000E+02  0.51100000000E-03 0. -1.
         11   -1    0    0    0    0 -0.00000000000E+00 -0.00000000000E+00 -0.45593999997E+02  0.45594000000E+02  0.51100000000E-03 0.  1.
    9900012    2    1    2    0    0  0.80284505736E+00  0.67178841482E+00  0.54380448870E+00  0.90008346160E+02  0.90000615527E+02 0.  0.
         12    1    1    2    0    0 -0.80284505736E+00 -0.67178841482E+00 -0.54380448870E+00  0.11796538401E+01  0.00000000000E+00 0. -1.
         11    1    3    3    0    0  0.27140706032E+01  0.65716242378E+01 -0.77934791608E+01  0.10549442737E+02  0.51100000000E-03 0. -1.
        -11    1    3    3    0    0  0.20588691525E+02 -0.35689206944E+02  0.87681998520E+01  0.42124755666E+02  0.51100000000E-03 0.  1.
         12    1    3    3    0    0 -0.22499917071E+02  0.29789371121E+02 -0.43091620252E+00  0.37334147757E+02  0.00000000000E+00 0. -1.
</event>
<event>
 7    1  0.2490895E-015  0.9000752E+02  0.7816164E-02  0.1186339E+00
        -11   -1    0    0    0    0  0.00000000000E+00  0.00000000000E+00  0.45593999997E+02  0.45594000000E+02  0.51100000000E-03 0.  1.
         11   -1    0    0    0    0 -0.00000000000E+00 -0.00000000000E+00 -0.45593999997E+02  0.45594000000E+02  0.51100000000E-03 0. -1.
    9900012    2    1    2    0    0  0.48446033345E+00  0.10036384277E+01  0.38927632334E+00  0.90007522146E+02  0.89999780638E+02 0.  0.
         12    1    1    2    0    0 -0.48446033345E+00 -0.10036384277E+01 -0.38927632334E+00  0.11804778541E+01  0.00000000000E+00 0. -1.
         11    1    3    3    0    0 -0.62550480717E+01 -0.77296330752E+01 -0.31488217844E+01  0.10430145385E+02  0.51100000000E-03 0. -1.
        -11    1    3    3    0    0 -0.32956760426E+02  0.17863398022E+02  0.88014310519E+01  0.38506028560E+02  0.51100000000E-03 0.  1.
         12    1    3    3    0    0  0.39696268831E+02 -0.91301265188E+01 -0.52633329442E+01  0.41071348201E+02  0.00000000000E+00 0. -1.
</event>
<event>
 7    1  0.2490895E-015  0.9000777E+02  0.7816164E-02  0.1186339E+00
        -11   -1    0    0    0    0  0.00000000000E+00  0.00000000000E+00  0.45593999997E+02  0.45594000000E+02  0.51100000000E-03 0. -1.
         11   -1    0    0    0    0 -0.00000000000E+00 -0.00000000000E+00 -0.45593999997E+02  0.45594000000E+02  0.51100000000E-03 0.  1.
    9900012    2    1    2    0    0  0.79885194454E+00 -0.36707782045E+00 -0.78742224850E+00  0.90007769364E+02  0.90000031120E+02 0.  0.
         12    1    1    2    0    0 -0.79885194454E+00  0.36707782045E+00  0.78742224850E+00  0.11802306355E+01  0.00000000000E+00 0. -1.
         11    1    3    3    0    0  0.19891210412E+01 -0.13839386833E+02  0.31496540919E+02  0.34460373192E+02  0.51100000000E-03 0. -1.
        -11    1    3    3    0    0 -0.22163503545E+01 -0.40721301529E+01  0.93058759197E+01  0.10396815848E+02  0.51100000000E-03 0.  1.
        -12    1    3    3    0    0  0.10260812578E+01  0.17544439165E+02 -0.41589839087E+02  0.45150580325E+02  0.00000000000E+00 0.  1.
</event>
<event>
 7    1  0.2490895E-015  0.9000789E+02  0.7816164E-02  0.1186339E+00
        -11   -1    0    0    0    0  0.00000000000E+00  0.00000000000E+00  0.45593999997E+02  0.45594000000E+02  0.51100000000E-03 0. -1.
         11   -1    0    0    0    0 -0.00000000000E+00 -0.00000000000E+00 -0.45593999997E+02  0.45594000000E+02  0.51100000000E-03 0.  1.
    9900012    2    1    2    0    0  0.28500093059E+00  0.11039290387E+01  0.30460047460E+00  0.90007887166E+02  0.90000150476E+02 0.  0.
         12    1    1    2    0    0 -0.28500093059E+00 -0.11039290387E+01 -0.30460047460E+00  0.11801128344E+01  0.00000000000E+00 0. -1.
         11    1    3    3    0    0 -0.13345670734E+02 -0.54954138471E+01 -0.92010811164E+01  0.17116261118E+02  0.51100000000E-03 0. -1.
        -11    1    3    3    0    0 -0.55383772832E+01  0.35708412185E+02  0.11663471043E+02  0.37971053195E+02  0.51100000000E-03 0.  1.
         12    1    3    3    0    0  0.19169048948E+02 -0.29109069299E+02 -0.21577894520E+01  0.34920572852E+02  0.00000000000E+00 0. -1.
</event>
<event>
 7    1  0.2490895E-015  0.9000776E+02  0.7816164E-02  0.1186339E+00
        -11   -1    0    0    0    0  0.00000000000E+00  0.00000000000E+00  0.45593999997E+02  0.45594000000E+02  0.51100000000E-03 0.  1.
         11   -1    0    0    0    0 -0.00000000000E+00 -0.00000000000E+00 -0.45593999997E+02  0.45594000000E+02  0.51100000000E-03 0. -1.
    9900012    2    1    2    0    0  0.52492994622E+00  0.74895244983E+00  0.74598470649E+00  0.90007756634E+02  0.90000018222E+02 0.  0.
         12    1    1    2    0    0 -0.52492994622E+00 -0.74895244983E+00 -0.74598470649E+00  0.11802433659E+01  0.00000000000E+00 0. -1.
         11    1    3    3    0    0  0.17386043080E+02 -0.36406508103E+02  0.24040093720E+01  0.40416427199E+02  0.51100000000E-03 0. -1.
        -11    1    3    3    0    0 -0.30237952938E+01  0.35323682597E+01  0.10312556326E+02  0.11312372949E+02  0.51100000000E-03 0.  1.
        -12    1    3    3    0    0 -0.13837317840E+02  0.33623092293E+02 -0.11970580992E+02  0.38278956486E+02  0.00000000000E+00 0.  1.
</event>
<event>
 7    1  0.2490895E-015  0.9000775E+02  0.7816164E-02  0.1186339E+00
        -11   -1    0    0    0    0  0.00000000000E+00  0.00000000000E+00  0.45593999997E+02  0.45594000000E+02  0.51100000000E-03 0.  1.
         11   -1    0    0    0    0 -0.00000000000E+00 -0.00000000000E+00 -0.45593999997E+02  0.45594000000E+02  0.51100000000E-03 0. -1.
    9900012    2    1    2    0    0  0.73080758124E+00  0.60287535467E+00 -0.70387767671E+00  0.90007753332E+02  0.90000014876E+02 0.  0.
         12    1    1    2    0    0 -0.73080758124E+00 -0.60287535467E+00  0.70387767671E+00  0.11802466682E+01  0.00000000000E+00 0. -1.
         11    1    3    3    0    0  0.35152756205E+02  0.21067794145E+01 -0.28284300331E+02  0.45168090880E+02  0.51100000000E-03 0. -1.
        -11    1    3    3    0    0 -0.51940458032E+01 -0.21898724697E+01  0.74559362837E+01  0.93469053363E+01  0.51100000000E-03 0.  1.
        -12    1    3    3    0    0 -0.29227902821E+02  0.68596840985E+00  0.20124486371E+02  0.35492757115E+02  0.00000000000E+00 0.  1.
</event>
<event>
 7    1  0.2490895E-015  0.9000791E+02  0.7816164E-02  0.1186339E+00
        -11   -1    0    0    0    0  0.00000000000E+00  0.00000000000E+00  0.45593999997E+02  0.45594000000E+02  0.51100000000E-03 0.  1.
         11   -1    0    0    0    0 -0.00000000000E+00 -0.00000000000E+00 -0.45593999997E+02  0.45594000000E+02  0.51100000000E-03 0. -1.
    9900012    2    1    2    0    0  0.48392556181E+00 -0.21806468279E+00  0.10539807797E+01  0.90007910326E+02  0.90000173942E+02 0.  0.
         12    1    1    2    0    0 -0.48392556181E+00  0.21806468279E+00 -0.10539807797E+01  0.11800896742E+01  0.00000000000E+00 0. -1.
         11    1    3    3    0    0  0.60837453667E+01 -0.43765653497E+01 -0.34559682709E+02  0.35362946019E+02  0.51100000000E-03 0. -1.
        -11    1    3    3    0    0  0.37665458544E+00  0.18932903935E+01 -0.91885627329E+01  0.93891481269E+01  0.51100000000E-03 0.  1.
        -12    1    3    3    0    0 -0.59764743904E+01  0.22652102734E+01  0.44802226221E+02  0.45255816180E+02  0.00000000000E+00 0.  1.
</event>
<event>
 7    1  0.2490895E-015  0.9000780E+02  0.7816164E-02  0.1186339E+00
        -11   -1    0    0    0    0  0.00000000000E+00  0.00000000000E+00  0.45593999997E+02  0.45594000000E+02  0.51100000000E-03 0. -1.
         11   -1    0    0    0    0 -0.00000000000E+00 -0.00000000000E+00 -0.45593999997E+02  0.45594000000E+02  0.51100000000E-03 0.  1.
    9900012    2    1    2    0    0  0.60801683899E+00 -0.88353488186E+00 -0.49248643304E+00  0.90007804571E+02  0.90000066791E+02 0.  0.
         12    1    1    2    0    0 -0.60801683899E+00  0.88353488186E+00  0.49248643304E+00  0.11801954290E+01  0.00000000000E+00 0. -1.
         11    1    3    3    0    0 -0.36648856376E+00 -0.91782968367E+01 -0.15252501779E+01  0.93113820165E+01  0.51100000000E-03 0. -1.
        -11    1    3    3    0    0  0.28539407040E+02 -0.16246897416E+02 -0.19768892328E+02  0.38331038780E+02  0.51100000000E-03 0.  1.
         12    1    3    3    0    0 -0.27564901638E+02  0.24541659371E+02  0.20801656072E+02  0.42365383774E+02  0.00000000000E+00 0. -1.
</event>
<event>
 7    1  0.2490895E-015  0.9000772E+02  0.7816164E-02  0.1186339E+00
        -11   -1    0    0    0    0  0.00000000000E+00  0.00000000000E+00  0.45593999997E+02  0.45594000000E+02  0.51100000000E-03 0.  1.
         11   -1    0    0    0    0 -0.00000000000E+00 -0.00000000000E+00 -0.45593999997E+02  0.45594000000E+02  0.51100000000E-03 0. -1.
    9900012    2    1    2    0    0  0.81416704547E+00 -0.45444021106E+00  0.72366323567E+00  0.90007715135E+02  0.89999976175E+02 0.  0.
         12    1    1    2    0    0 -0.81416704547E+00  0.45444021106E+00 -0.72366323567E+00  0.11802848648E+01  0.00000000000E+00 0. -1.
         11    1    3    3    0    0  0.11126745724E+02  0.86617909193E+01 -0.33960074501E+02  0.36771153813E+02  0.51100000000E-03 0. -1.
        -11    1    3    3    0    0 -0.81280594358E+01 -0.37424585307E+01 -0.68691010334E+01  0.11280775475E+02  0.51100000000E-03 0.  1.
        -12    1    3    3    0    0 -0.21845192428E+01 -0.53737725997E+01  0.41552838770E+02  0.41955785848E+02  0.00000000000E+00 0.  1.
</event>
<event>
 7    1  0.2490895E-015  0.9000774E+02  0.7816164E-02  0.1186339E+00
        -11   -1    0    0    0    0  0.00000000000E+00  0.00000000000E+00  0.45593999997E+02  0.45594000000E+02  0.51100000000E-03 0.  1.
         11   -1    0    0    0    0 -0.00000000000E+00 -0.00000000000E+00 -0.45593999997E+02  0.45594000000E+02  0.51100000000E-03 0. -1.
    9900012    2    1    2    0    0  0.14188480910E+00 -0.75076857745E+00  0.89957014050E+00  0.90007741048E+02  0.90000002430E+02 0.  0.
         12    1    1    2    0    0 -0.14188480910E+00  0.75076857745E+00 -0.89957014050E+00  0.11802589519E+01  0.00000000000E+00 0. -1.
         11    1    3    3    0    0 -0.18253676155E+02 -0.38513862023E+01 -0.37896017518E+02  0.42239057907E+02  0.51100000000E-03 0. -1.
        -11    1    3    3    0    0  0.96399936359E+01 -0.27764289820E+01  0.30278032492E+01  0.10478818062E+02  0.51100000000E-03 0.  1.
        -12    1    3    3    0    0  0.87555673284E+01  0.58770466068E+01  0.35767784410E+02  0.37289865079E+02  0.00000000000E+00 0.  1.
</event>
<event>
 7    1  0.2490895E-015  0.9000775E+02  0.7816164E-02  0.1186339E+00
        -11   -1    0    0    0    0  0.00000000000E+00  0.00000000000E+00  0.45593999997E+02  0.45594000000E+02  0.51100000000E-03 0. -1.
         11   -1    0    0    0    0 -0.00000000000E+00 -0.00000000000E+00 -0.45593999997E+02  0.45594000000E+02  0.51100000000E-03 0.  1.
    9900012    2    1    2    0    0  0.43434087688E+00 -0.13525017519E+00 -0.10890531652E+01  0.90007753668E+02  0.90000015217E+02 0.  0.
         12    1    1    2    0    0 -0.43434087688E+00  0.13525017519E+00  0.10890531652E+01  0.11802463318E+01  0.00000000000E+00 0. -1.
         11    1    3    3    0    0 -0.70579870305E+01 -0.34086283451E+01 -0.63461315892E+01  0.10085004439E+02  0.51100000000E-03 0. -1.
        -11    1    3    3    0    0 -0.22699808245E+02 -0.23207384437E+02 -0.14037823063E+02  0.35368410529E+02  0.51100000000E-03 0.  1.
         12    1    3    3    0    0  0.30192136152E+02  0.26480762607E+02  0.19294901487E+02  0.44554338701E+02  0.00000000000E+00 0. -1.
</event>
<event>
 7    1  0.2490895E-015  0.9000779E+02  0.7816164E-02  0.1186339E+00
        -11   -1    0    0    0    0  0.00000000000E+00  0.00000000000E+00  0.45593999997E+02  0.45594000000E+02  0.51100000000E-03 0. -1.
         11   -1    0    0    0    0 -0.00000000000E+00 -0.00000000000E+00 -0.45593999997E+02  0.45594000000E+02  0.51100000000E-03 0.  1.
    9900012    2    1    2    0    0  0.66282717867E+00 -0.71703399635E+00 -0.66288221167E+00  0.90007792202E+02  0.90000054259E+02 0.  0.
         12    1    1    2    0    0 -0.66282717867E+00  0.71703399635E+00  0.66288221167E+00  0.11802077983E+01  0.00000000000E+00 0. -1.
         11    1    3    3    0    0 -0.23483294550E+01  0.51516143667E+01 -0.64441446925E+01  0.85779241598E+01  0.51100000000E-03 0. -1.
        -11    1    3    3    0    0  0.32014227723E+02  0.39338426469E+01 -0.22837719063E+02  0.39521479058E+02  0.51100000000E-03 0.  1.
         12    1    3    3    0    0 -0.29003071090E+02 -0.98024910099E+01  0.28618981543E+02  0.41908388984E+02  0.00000000000E+00 0. -1.
</event>
<event>
 7    1  0.2490895E-015  0.9000773E+02  0.7816164E-02  0.1186339E+00
        -11   -1    0    0    0    0  0.00000000000E+00  0.00000000000E+00  0.45593999997E+02  0.45594000000E+02  0.51100000000E-03 0. -1.
         11   -1    0    0    0    0 -0.00000000000E+00 -0.00000000000E+00 -0.45593999997E+02  0.45594000000E+02  0.51100000000E-03 0.  1.
    9900012    2    1    2    0    0  0.52576177053E-02 -0.70890353245E+00 -0.94364344758E+00  0.90007731040E+02  0.89999992290E+02 0.  0.
         12    1    1    2    0    0 -0.52576177053E-02  0.70890353245E+00  0.94364344758E+00  0.11802689596E+01  0.00000000000E+00 0. -1.
         11    1    3    3    0    0 -0.79346497284E+01  0.81839139288E+01 -0.38864490816E+01  0.12043238777E+02  0.51100000000E-03 0. -1.
        -11    1    3    3    0    0  0.21246560487E+02  0.14462543402E+02 -0.27305161713E+02  0.37498711319E+02  0.51100000000E-03 0.  1.
         12    1    3    3    0    0 -0.13306653141E+02 -0.23355360863E+02  0.30247967347E+02  0.40465780945E+02  0.00000000000E+00 0. -1.
</event>
<event>
 7    1  0.2490895E-015  0.9000774E+02  0.7816164E-02  0.1186339E+00
        -11   -1    0    0    0    0  0.00000000000E+00  0.00000000000E+00  0.45593999997E+02  0.45594000000E+02  0.51100000000E-03 0.  1.
         11   -1    0    0    0    0 -0.00000000000E+00 -0.00000000000E+00 -0.45593999997E+02  0.45594000000E+02  0.51100000000E-03 0. -1.
    9900012    2    1    2    0    0 -0.78893597923E+00 -0.81665694597E-01  0.87402515776E+00  0.90007741875E+02  0.90000003268E+02 0.  0.
         12    1    1    2    0    0  0.78893597923E+00  0.81665694597E-01 -0.87402515776E+00  0.11802581249E+01  0.00000000000E+00 0. -1.
         11    1    3    3    0    0 -0.91677516931E+01 -0.78817555727E+01 -0.24867881281E+01  0.12343170479E+02  0.51100000000E-03 0. -1.
        -11    1    3    3    0    0 -0.17580779345E+02  0.24778423105E+02  0.25410433951E+02  0.39607375674E+02  0.51100000000E-03 0.  1.
         12    1    3    3    0    0  0.25959595058E+02 -0.16978333227E+02 -0.22049620665E+02  0.38057195722E+02  0.00000000000E+00 0. -1.
</event>
<event>
 7    1  0.2490895E-015  0.9000770E+02  0.7816164E-02  0.1186339E+00
        -11   -1    0    0    0    0  0.00000000000E+00  0.00000000000E+00  0.45593999997E+02  0.45594000000E+02  0.51100000000E-03 0.  1.
         11   -1    0    0    0    0 -0.00000000000E+00 -0.00000000000E+00 -0.45593999997E+02  0.45594000000E+02  0.51100000000E-03 0. -1.
    9900012    2    1    2    0    0 -0.54977356749E-01  0.11248964459E+01  0.35310477992E+00  0.90007704482E+02  0.89999965381E+02 0.  0.
         12    1    1    2    0    0  0.54977356749E-01 -0.11248964459E+01 -0.35310477992E+00  0.11802955178E+01  0.00000000000E+00 0. -1.
         11    1    3    3    0    0  0.15142747129E+00 -0.34150803701E+02 -0.19931290533E+02  0.39541834382E+02  0.51100000000E-03 0. -1.
        -11    1    3    3    0    0  0.73991729433E+01 -0.11268393482E+00 -0.23631100890E+01  0.77681881715E+01  0.51100000000E-03 0.  1.
        -12    1    3    3    0    0 -0.76055777713E+01  0.35388384082E+02  0.22647505402E+02  0.42697681929E+02  0.00000000000E+00 0.  1.
</event>
<event>
 7    1  0.2490895E-015  0.9000776E+02  0.7816164E-02  0.1186339E+00
        -11   -1    0    0    0    0  0.00000000000E+00  0.00000000000E+00  0.45593999997E+02  0.45594000000E+02  0.51100000000E-03 0.  1.
         11   -1    0    0    0    0 -0.00000000000E+00 -0.00000000000E+00 -0.45593999997E+02  0.45594000000E+02  0.51100000000E-03 0. -1.
    9900012    2    1    2    0    0  0.59178768568E+00 -0.95810135331E+00 -0.35325137515E+00  0.90007763836E+02  0.90000025519E+02 0.  0.
         12    1    1    2    0    0 -0.59178768568E+00  0.95810135331E+00  0.35325137515E+00  0.11802361637E+01  0.00000000000E+00 0. -1.
         11    1    3    3    0    0  0.27370841147E+01  0.38973017981E+01  0.86587960543E+01  0.98820716516E+01  0.51100000000E-03 0. -1.
        -11    1    3    3    0    0 -0.22126662756E+01  0.36706283584E+02  0.29098488578E+01  0.36887862058E+02  0.51100000000E-03 0.  1.
         12    1    3    3    0    0  0.67369846628E-01 -0.41561686735E+02 -0.11921896287E+02  0.43237830127E+02  0.00000000000E+00 0. -1.
</event>
<event>
 7    1  0.2490895E-015  0.9000766E+02  0.7816164E-02  0.1186339E+00
        -11   -1    0    0    0    0  0.00000000000E+00  0.00000000000E+00  0.45593999997E+02  0.45594000000E+02  0.51100000000E-03 0.  1.
         11   -1    0    0    0    0 -0.00000000000E+00 -0.00000000000E+00 -0.45593999997E+02  0.45594000000E+02  0.51100000000E-03 0. -1.
    9900012    2    1    2    0    0  0.63338778043E+00 -0.90992427958E+00  0.40504722967E+00  0.90007658722E+02  0.89999919017E+02 0.  0.
         12    1    1    2    0    0 -0.63338778043E+00  0.90992427958E+00 -0.40504722967E+00  0.11803412783E+01  0.00000000000E+00 0. -1.
         11    1    3    3    0    0 -0.14333060848E+02  0.36914777092E+02 -0.79389007069E+01  0.40387665762E+02  0.51100000000E-03 0. -1.
        -11    1    3    3    0    0  0.10025628818E+02  0.13059258224E+00  0.49850502514E+01  0.11197366382E+02  0.51100000000E-03 0.  1.
        -12    1    3    3    0    0  0.49408198107E+01 -0.37955293954E+02  0.33588976852E+01  0.38422626578E+02  0.00000000000E+00 0.  1.
</event>
<event>
 7    1  0.2490895E-015  0.9000770E+02  0.7816164E-02  0.1186339E+00
        -11   -1    0    0    0    0  0.00000000000E+00  0.00000000000E+00  0.45593999997E+02  0.45594000000E+02  0.51100000000E-03 0.  1.
         11   -1    0    0    0    0 -0.00000000000E+00 -0.00000000000E+00 -0.45593999997E+02  0.45594000000E+02  0.51100000000E-03 0. -1.
    9900012    2    1    2    0    0 -0.73589384976E+00  0.88553647037E+00  0.25960271763E+00  0.90007699966E+02  0.89999960806E+02 0.  0.
         12    1    1    2    0    0  0.73589384976E+00 -0.88553647037E+00 -0.25960271763E+00  0.11803000337E+01  0.00000000000E+00 0. -1.
         11    1    3    3    0    0  0.56473466394E+01 -0.64579155418E+01  0.27181601070E+01  0.89991995110E+01  0.51100000000E-03 0. -1.
        -11    1    3    3    0    0  0.30488117961E+02  0.10656778545E+02  0.19731592342E+02  0.37847430592E+02  0.51100000000E-03 0.  1.
         12    1    3    3    0    0 -0.36871358451E+02 -0.33133265328E+01 -0.22190149731E+02  0.43161069864E+02  0.00000000000E+00 0. -1.
</event>
<event>
 7    1  0.2490895E-015  0.9000781E+02  0.7816164E-02  0.1186339E+00
        -11   -1    0    0    0    0  0.00000000000E+00  0.00000000000E+00  0.45593999997E+02  0.45594000000E+02  0.51100000000E-03 0. -1.
         11   -1    0    0    0    0 -0.00000000000E+00 -0.00000000000E+00 -0.45593999997E+02  0.45594000000E+02  0.51100000000E-03 0.  1.
    9900012    2    1    2    0    0  0.63688240365E+00  0.21986967090E+00 -0.96896274152E+00  0.90007809057E+02  0.90000071336E+02 0.  0.
         12    1    1    2    0    0 -0.63688240365E+00 -0.21986967090E+00  0.96896274152E+00  0.11801909433E+01  0.00000000000E+00 0. -1.
         11    1    3    3    0    0 -0.43100559436E+00  0.69748270757E+01  0.51082931393E+01  0.86561329482E+01  0.51100000000E-03 0. -1.
        -11    1    3    3    0    0 -0.39292682068E+02 -0.86949666145E+01 -0.74230216355E+01  0.40922103550E+02  0.51100000000E-03 0.  1.
         12    1    3    3    0    0  0.40360570066E+02  0.19400092097E+01  0.13457657547E+01  0.40429572558E+02  0.00000000000E+00 0. -1.
</event>
<event>
 7    1  0.2490895E-015  0.9000767E+02  0.7816164E-02  0.1186339E+00
        -11   -1    0    0    0    0  0.00000000000E+00  0.00000000000E+00  0.45593999997E+02  0.45594000000E+02  0.51100000000E-03 0.  1.
         11   -1    0    0    0    0 -0.00000000000E+00 -0.00000000000E+00 -0.45593999997E+02  0.45594000000E+02  0.51100000000E-03 0. -1.
    9900012    2    1    2    0    0 -0.10188200329E+01  0.59032741890E+00 -0.81902578550E-01  0.90007665830E+02  0.89999926219E+02 0.  0.
         12    1    1    2    0    0  0.10188200329E+01 -0.59032741890E+00  0.81902578550E-01  0.11803341702E+01  0.00000000000E+00 0. -1.
         11    1    3    3    0    0 -0.46580548791E+01 -0.29298109821E+01 -0.13631821222E+01  0.56691739617E+01  0.51100000000E-03 0. -1.
        -11    1    3    3    0    0 -0.18263015841E+01 -0.37180718557E+02  0.16265498371E+02  0.40623978724E+02  0.51100000000E-03 0.  1.
         12    1    3    3    0    0  0.54655364303E+01  0.40700856958E+02 -0.14984218827E+02  0.43714513144E+02  0.00000000000E+00 0. -1.
</event>
<event>
 7    1  0.2490895E-015  0.9000774E+02  0.7816164E-02  0.1186339E+00
        -11   -1    0    0    0    0  0.00000000000E+00  0.00000000000E+00  0.45593999997E+02  0.45594000000E+02  0.51100000000E-03 0.  1.
         11   -1    0    0    0    0 -0.00000000000E+00 -0.00000000000E+00 -0.45593999997E+02  0.45594000000E+02  0.51100000000E-03 0. -1.
    9900012    2    1    2    0    0  0.87778194870E-01 -0.50378070346E+00  0.10637313384E+01  0.90007735467E+02  0.89999996775E+02 0.  0.
         12    1    1    2    0    0 -0.87778194870E-01  0.50378070346E+00 -0.10637313384E+01  0.11802645335E+01  0.00000000000E+00 0. -1.
         11    1    3    3    0    0 -0.36285224006E+01 -0.48606354069E+01  0.80707029503E+01  0.10095949571E+02  0.51100000000E-03 0. -1.
        -11    1    3    3    0    0  0.16921122458E+02  0.96349466881E+01  0.32520356786E+02  0.37904223889E+02  0.51100000000E-03 0.  1.
         12    1    3    3    0    0 -0.13204821863E+02 -0.52780919847E+01 -0.39527328398E+02  0.42007562006E+02  0.00000000000E+00 0. -1.
</event>
<event>
 7    1  0.2490895E-015  0.9000776E+02  0.7816164E-02  0.1186339E+00
        -11   -1    0    0    0    0  0.00000000000E+00  0.00000000000E+00  0.45593999997E+02  0.45594000000E+02  0.51100000000E-03 0. -1.
         11   -1    0    0    0    0 -0.00000000000E+00 -0.00000000000E+00 -0.45593999997E+02  0.45594000000E+02  0.51100000000E-03 0.  1.
    9900012    2    1    2    0    0 -0.81041937611E+00 -0.16969831272E+00 -0.84106128399E+00  0.90007762242E+02  0.90000023903E+02 0.  0.
         12    1    1    2    0    0  0.81041937611E+00  0.16969831272E+00  0.84106128399E+00  0.11802377582E+01  0.00000000000E+00 0. -1.
         11    1    3    3    0    0  0.38529566640E+01  0.41676105786E+00  0.47226403184E+01  0.61091977110E+01  0.51100000000E-03 0. -1.
        -11    1    3    3    0    0  0.33933420572E+02 -0.21030720465E+02 -0.48517087752E+01  0.40215759514E+02  0.51100000000E-03 0.  1.
         12    1    3    3    0    0 -0.38596796612E+02  0.20444261094E+02 -0.71199282717E+00  0.43682805017E+02  0.00000000000E+00 0. -1.
</event>
<event>
 7    1  0.2490895E-015  0.9000801E+02  0.7816164E-02  0.1186339E+00
        -11   -1    0    0    0    0  0.00000000000E+00  0.00000000000E+00  0.45593999997E+02  0.45594000000E+02  0.51100000000E-03 0. -1.
         11   -1    0    0    0    0 -0.00000000000E+00 -0.00000000000E+00 -0.45593999997E+02  0.45594000000E+02  0.51100000000E-03 0.  1.
    9900012    2    1    2    0    0  0.42780653408E+00 -0.10865863705E+01 -0.16939068287E+00  0.90008007807E+02  0.90000272710E+02 0.  0.
         12    1    1    2    0    0 -0.42780653408E+00  0.10865863705E+01  0.16939068287E+00  0.11799921926E+01  0.00000000000E+00 0. -1.
         11    1    3    3    0    0  0.36653112688E+01  0.60804721475E+00 -0.11631708119E+02  0.12210686391E+02  0.51100000000E-03 0. -1.
        -11    1    3    3    0    0 -0.17659859405E+02  0.29806266354E+02 -0.11185552981E+02  0.36406053671E+02  0.51100000000E-03 0.  1.
         12    1    3    3    0    0  0.14422354670E+02 -0.31500899939E+02  0.22647870417E+02  0.41391267746E+02  0.00000000000E+00 0. -1.
</event>
<event>
 7    1  0.2490895E-015  0.9000758E+02  0.7816164E-02  0.1186339E+00
        -11   -1    0    0    0    0  0.00000000000E+00  0.00000000000E+00  0.45593999997E+02  0.45594000000E+02  0.51100000000E-03 0. -1.
         11   -1    0    0    0    0 -0.00000000000E+00 -0.00000000000E+00 -0.45593999997E+02  0.45594000000E+02  0.51100000000E-03 0.  1.
    9900012    2    1    2    0    0  0.12330975003E+00 -0.86969648840E+00 -0.78854567830E+00  0.90007584157E+02  0.89999843467E+02 0.  0.
         12    1    1    2    0    0 -0.12330975003E+00  0.86969648840E+00  0.78854567830E+00  0.11804158433E+01  0.00000000000E+00 0. -1.
         11    1    3    3    0    0  0.65011725756E+01 -0.65490605803E+01 -0.42432377267E+01  0.10156796050E+02  0.51100000000E-03 0. -1.
        -11    1    3    3    0    0 -0.19191997741E+01  0.14146181728E+02 -0.36276041158E+02  0.38983957568E+02  0.51100000000E-03 0.  1.
         12    1    3    3    0    0 -0.44586630515E+01 -0.84668176366E+01  0.39730733207E+02  0.40866830538E+02  0.00000000000E+00 0. -1.
</event>
<event>
 7    1  0.2490895E-015  0.9000755E+02  0.7816164E-02  0.1186339E+00
        -11   -1    0    0    0    0  0.00000000000E+00  0.00000000000E+00  0.45593999997E+02  0.45594000000E+02  0.51100000000E-03 0. -1.
         11   -1    0    0    0    0 -0.00000000000E+00 -0.00000000000E+00 -0.45593999997E+02  0.45594000000E+02  0.51100000000E-03 0.  1.
    9900012    2    1    2    0    0 -0.49942185304E+00  0.74218995008E+00 -0.77018841026E+00  0.90007551654E+02  0.89999810536E+02 0.  0.
         12    1    1    2    0    0  0.49942185304E+00 -0.74218995008E+00  0.77018841026E+00  0.11804483456E+01  0.00000000000E+00 0. -1.
         11    1    3    3    0    0 -0.32707418745E+01  0.51570114966E+00 -0.94906205723E+01  0.10051645596E+02  0.51100000000E-03 0. -1.
        -11    1    3    3    0    0  0.22774231158E+02  0.44878105229E+01 -0.28940970826E+02  0.37099674402E+02  0.51100000000E-03 0.  1.
         12    1    3    3    0    0 -0.20002911136E+02 -0.42613217225E+01  0.37661402988E+02  0.42856231656E+02  0.00000000000E+00 0. -1.
</event>
<event>
 7    1  0.2490895E-015  0.9000770E+02  0.7816164E-02  0.1186339E+00
        -11   -1    0    0    0    0  0.00000000000E+00  0.00000000000E+00  0.45593999997E+02  0.45594000000E+02  0.51100000000E-03 0. -1.
         11   -1    0    0    0    0 -0.00000000000E+00 -0.00000000000E+00 -0.45593999997E+02  0.45594000000E+02  0.51100000000E-03 0.  1.
    9900012    2    1    2    0    0 -0.57236945219E+00 -0.90679556468E+00 -0.49317350243E+00  0.90007701271E+02  0.89999962128E+02 0.  0.
         12    1    1    2    0    0  0.57236945219E+00  0.90679556468E+00  0.49317350243E+00  0.11802987289E+01  0.00000000000E+00 0. -1.
         11    1    3    3    0    0 -0.18095531810E+01  0.30992347269E+00 -0.97487994874E+01  0.99201626489E+01  0.51100000000E-03 0. -1.
        -11    1    3    3    0    0  0.35992451742E+01 -0.32651127304E+02 -0.18834009461E+02  0.37865163312E+02  0.51100000000E-03 0.  1.
         12    1    3    3    0    0 -0.23620614454E+01  0.31434408266E+02  0.28089635446E+02  0.42222375310E+02  0.00000000000E+00 0. -1.
</event>
<event>
 7    1  0.2490895E-015  0.9000830E+02  0.7816164E-02  0.1186338E+00
        -11   -1    0    0    0    0  0.00000000000E+00  0.00000000000E+00  0.45593999997E+02  0.45594000000E+02  0.51100000000E-03 0. -1.
         11   -1    0    0    0    0 -0.00000000000E+00 -0.00000000000E+00 -0.45593999997E+02  0.45594000000E+02  0.51100000000E-03 0.  1.
    9900012    2    1    2    0    0 -0.15840241516E-01 -0.12067520911E+00 -0.11734065379E+01  0.90008298206E+02  0.90000566941E+02 0.  0.
         12    1    1    2    0    0  0.15840241516E-01  0.12067520911E+00  0.11734065379E+01  0.11797017939E+01  0.00000000000E+00 0. -1.
         11    1    3    3    0    0 -0.99608793602E+00  0.61160017817E+01  0.58527211075E+01  0.85236150543E+01  0.51100000000E-03 0. -1.
        -11    1    3    3    0    0  0.11702350722E+02  0.35004043466E+02 -0.11450706626E+02  0.38643844968E+02  0.51100000000E-03 0.  1.
         12    1    3    3    0    0 -0.10722103028E+02 -0.41240720457E+02  0.44245789802E+01  0.42840838184E+02  0.00000000000E+00 0. -1.
</event>
<event>
 7    1  0.2490895E-015  0.9000774E+02  0.7816164E-02  0.1186339E+00
        -11   -1    0    0    0    0  0.00000000000E+00  0.00000000000E+00  0.45593999997E+02  0.45594000000E+02  0.51100000000E-03 0.  1.
         11   -1    0    0    0    0 -0.00000000000E+00 -0.00000000000E+00 -0.45593999997E+02  0.45594000000E+02  0.51100000000E-03 0. -1.
    9900012    2    1    2    0    0 -0.78533441722E+00 -0.65031475588E+00 -0.59444007031E+00  0.90007737984E+02  0.89999999326E+02 0.  0.
         12    1    1    2    0    0  0.78533441722E+00  0.65031475588E+00  0.59444007031E+00  0.11802620157E+01  0.00000000000E+00 0. -1.
         11    1    3    3    0    0 -0.41848473597E+02 -0.20406354989E+01 -0.46824532424E+01  0.42159035856E+02  0.51100000000E-03 0. -1.
        -11    1    3    3    0    0  0.50862312482E+01  0.72826235139E+01  0.69523162417E+01  0.11280117683E+02  0.51100000000E-03 0.  1.
        -12    1    3    3    0    0  0.35976907932E+02 -0.58923027709E+01 -0.28643030696E+01  0.36568584446E+02  0.00000000000E+00 0.  1.
</event>
<event>
 7    1  0.2490895E-015  0.9000777E+02  0.7816164E-02  0.1186339E+00
        -11   -1    0    0    0    0  0.00000000000E+00  0.00000000000E+00  0.45593999997E+02  0.45594000000E+02  0.51100000000E-03 0.  1.
         11   -1    0    0    0    0 -0.00000000000E+00 -0.00000000000E+00 -0.45593999997E+02  0.45594000000E+02  0.51100000000E-03 0. -1.
    9900012    2    1    2    0    0  0.56852451665E+00  0.97116155007E+00  0.35575835640E+00  0.90007771679E+02  0.90000033465E+02 0.  0.
         12    1    1    2    0    0 -0.56852451665E+00 -0.97116155007E+00 -0.35575835640E+00  0.11802283213E+01  0.00000000000E+00 0. -1.
         11    1    3    3    0    0 -0.20716021189E+02 -0.42449810218E+01 -0.28198675237E+02  0.35246825150E+02  0.51100000000E-03 0. -1.
        -11    1    3    3    0    0 -0.90193860203E+01  0.13018188170E+01 -0.41414112515E+01  0.10009762426E+02  0.51100000000E-03 0.  1.
        -12    1    3    3    0    0  0.30303931726E+02  0.39143237548E+01  0.32695844845E+02  0.44751184103E+02  0.00000000000E+00 0.  1.
</event>
<event>
 7    1  0.2490895E-015  0.9000763E+02  0.7816164E-02  0.1186339E+00
        -11   -1    0    0    0    0  0.00000000000E+00  0.00000000000E+00  0.45593999997E+02  0.45594000000E+02  0.51100000000E-03 0.  1.
         11   -1    0    0    0    0 -0.00000000000E+00 -0.00000000000E+00 -0.45593999997E+02  0.45594000000E+02  0.51100000000E-03 0. -1.
    9900012    2    1    2    0    0  0.10441740327E+01  0.51315919707E+00  0.19910202370E+00  0.90007629978E+02  0.89999889894E+02 0.  0.
         12    1    1    2    0    0 -0.10441740327E+01 -0.51315919707E+00 -0.19910202370E+00  0.11803700217E+01  0.00000000000E+00 0. -1.
         11    1    3    3    0    0  0.96271177892E+00 -0.26525956137E+01 -0.81755686002E+01  0.86488727390E+01  0.51100000000E-03 0. -1.
        -11    1    3    3    0    0  0.31967673554E+02 -0.23238835878E+02  0.45456536379E+01  0.39782390736E+02  0.51100000000E-03 0.  1.
         12    1    3    3    0    0 -0.31886211300E+02  0.26404590689E+02  0.38290169859E+01  0.41576366503E+02  0.00000000000E+00 0. -1.
</event>
<event>
 7    1  0.2490895E-015  0.9000781E+02  0.7816164E-02  0.1186339E+00
        -11   -1    0    0    0    0  0.00000000000E+00  0.00000000000E+00  0.45593999997E+02  0.45594000000E+02  0.51100000000E-03 0.  1.
         11   -1    0    0    0    0 -0.00000000000E+00 -0.00000000000E+00 -0.45593999997E+02  0.45594000000E+02  0.51100000000E-03 0. -1.
    9900012    2    1    2    0    0 -0.48105037416E+00 -0.41238691747E+00  0.99567917103E+00  0.90007809573E+02  0.90000071859E+02 0.  0.
         12    1    1    2    0    0  0.48105037416E+00  0.41238691747E+00 -0.99567917103E+00  0.11801904269E+01  0.00000000000E+00 0. -1.
         11    1    3    3    0    0  0.10669661021E+02  0.48025946743E+01 -0.37436372191E+02  0.39222296529E+02  0.51100000000E-03 0. -1.
        -11    1    3    3    0    0  0.14934624237E+01  0.82041232188E+01  0.20174711351E+00  0.83413889706E+01  0.51100000000E-03 0.  1.
        -12    1    3    3    0    0 -0.12644173818E+02 -0.13419104811E+02  0.38230304248E+02  0.42444124074E+02  0.00000000000E+00 0.  1.
</event>
<event>
 7    1  0.2490895E-015  0.9000774E+02  0.7816164E-02  0.1186339E+00
        -11   -1    0    0    0    0  0.00000000000E+00  0.00000000000E+00  0.45593999997E+02  0.45594000000E+02  0.51100000000E-03 0.  1.
         11   -1    0    0    0    0 -0.00000000000E+00 -0.00000000000E+00 -0.45593999997E+02  0.45594000000E+02  0.51100000000E-03 0. -1.
    9900012    2    1    2    0    0 -0.78440890053E+00 -0.30170598818E+00  0.82866854083E+00  0.90007739276E+02  0.90000000634E+02 0.  0.
         12    1    1    2    0    0  0.78440890053E+00  0.30170598818E+00 -0.82866854083E+00  0.11802607242E+01  0.00000000000E+00 0. -1.
         11    1    3    3    0    0 -0.24394143474E+02  0.28533798295E+02 -0.17498835411E+02  0.41418125525E+02  0.51100000000E-03 0. -1.
        -11    1    3    3    0    0  0.13540825412E+01  0.26995234293E+01  0.81224507070E+01  0.86657470550E+01  0.51100000000E-03 0.  1.
        -12    1    3    3    0    0  0.22255652033E+02 -0.31535027712E+02  0.10205053245E+02  0.39923866696E+02  0.00000000000E+00 0.  1.
</event>
<event>
 7    1  0.2490895E-015  0.9000778E+02  0.7816164E-02  0.1186339E+00
        -11   -1    0    0    0    0  0.00000000000E+00  0.00000000000E+00  0.45593999997E+02  0.45594000000E+02  0.51100000000E-03 0.  1.
         11   -1    0    0    0    0 -0.00000000000E+00 -0.00000000000E+00 -0.45593999997E+02  0.45594000000E+02  0.51100000000E-03 0. -1.
    9900012    2    1    2    0    0 -0.35885869286E+00 -0.50753504331E+00  0.10032707274E+01  0.90007778184E+02  0.90000040056E+02 0.  0.
         12    1    1    2    0    0  0.35885869286E+00  0.50753504331E+00 -0.10032707274E+01  0.11802218157E+01  0.00000000000E+00 0. -1.
         11    1    3    3    0    0 -0.18429200515E+02  0.29981967139E+02 -0.90704404470E+01  0.36343179212E+02  0.51100000000E-03 0. -1.
        -11    1    3    3    0    0 -0.25086166152E+01  0.60342225477E+01 -0.58979855476E+01  0.88029104766E+01  0.51100000000E-03 0.  1.
        -12    1    3    3    0    0  0.20578958437E+02 -0.36523724730E+02  0.15971696722E+02  0.44861688495E+02  0.00000000000E+00 0.  1.
</event>
<event>
 7    1  0.2490895E-015  0.9000773E+02  0.7816164E-02  0.1186339E+00
        -11   -1    0    0    0    0  0.00000000000E+00  0.00000000000E+00  0.45593999997E+02  0.45594000000E+02  0.51100000000E-03 0.  1.
         11   -1    0    0    0    0 -0.00000000000E+00 -0.00000000000E+00 -0.45593999997E+02  0.45594000000E+02  0.51100000000E-03 0. -1.
    9900012    2    1    2    0    0  0.64391954081E-01  0.34214097668E+00  0.11277559366E+01  0.90007728750E+02  0.89999989969E+02 0.  0.
         12    1    1    2    0    0 -0.64391954081E-01 -0.34214097668E+00 -0.11277559366E+01  0.11802712502E+01  0.00000000000E+00 0. -1.
         11    1    3    3    0    0 -0.20366944000E+01 -0.71561854667E+01  0.59817662823E+01  0.95467608449E+01  0.51100000000E-03 0. -1.
        -11    1    3    3    0    0 -0.45300970757E+01 -0.28414849824E+02  0.21080006716E+02  0.35669204553E+02  0.51100000000E-03 0.  1.
         12    1    3    3    0    0  0.66311834297E+01  0.35913176267E+02 -0.25934017061E+02  0.44791763352E+02  0.00000000000E+00 0. -1.
</event>
<event>
 7    1  0.2490895E-015  0.9000780E+02  0.7816164E-02  0.1186339E+00
        -11   -1    0    0    0    0  0.00000000000E+00  0.00000000000E+00  0.45593999997E+02  0.45594000000E+02  0.51100000000E-03 0. -1.
         11   -1    0    0    0    0 -0.00000000000E+00 -0.00000000000E+00 -0.45593999997E+02  0.45594000000E+02  0.51100000000E-03 0.  1.
    9900012    2    1    2    0    0 -0.94436992327E+00 -0.20329269332E+00 -0.67802338744E+00  0.90007797397E+02  0.90000059522E+02 0.  0.
         12    1    1    2    0    0  0.94436992327E+00  0.20329269332E+00  0.67802338744E+00  0.11802026034E+01  0.00000000000E+00 0. -1.
         11    1    3    3    0    0 -0.89674914085E+01 -0.14423465336E+01  0.27293425212E+01  0.94839641788E+01  0.51100000000E-03 0. -1.
        -11    1    3    3    0    0 -0.24272360652E+02  0.21092460857E+02 -0.21333223544E+02  0.38589452233E+02  0.51100000000E-03 0.  1.
         12    1    3    3    0    0  0.32295482137E+02 -0.19853407016E+02  0.17925857635E+02  0.41934380985E+02  0.00000000000E+00 0. -1.
</event>
<event>
 7    1  0.2490895E-015  0.9000778E+02  0.7816164E-02  0.1186339E+00
        -11   -1    0    0    0    0  0.00000000000E+00  0.00000000000E+00  0.45593999997E+02  0.45594000000E+02  0.51100000000E-03 0.  1.
         11   -1    0    0    0    0 -0.00000000000E+00 -0.00000000000E+00 -0.45593999997E+02  0.45594000000E+02  0.51100000000E-03 0. -1.
    9900012    2    1    2    0    0 -0.71933013303E+00  0.91466278136E+00 -0.19717248999E+00  0.90007779328E+02  0.90000041215E+02 0.  0.
         12    1    1    2    0    0  0.71933013303E+00 -0.91466278136E+00  0.19717248999E+00  0.11802206720E+01  0.00000000000E+00 0. -1.
         11    1    3    3    0    0 -0.34963236402E+02 -0.80709058677E+01  0.16327773058E+02  0.39422881611E+02  0.51100000000E-03 0. -1.
        -11    1    3    3    0    0 -0.47842222411E+00 -0.83492822923E+01  0.10332684613E+00  0.83636164020E+01  0.51100000000E-03 0.  1.
        -12    1    3    3    0    0  0.34722328493E+02  0.17334850941E+02 -0.16628272394E+02  0.42221281315E+02  0.00000000000E+00 0.  1.
</event>
<event>
 7    1  0.2490895E-015  0.9000777E+02  0.7816164E-02  0.1186339E+00
        -11   -1    0    0    0    0  0.00000000000E+00  0.00000000000E+00  0.45593999997E+02  0.45594000000E+02  0.51100000000E-03 0.  1.
         11   -1    0    0    0    0 -0.00000000000E+00 -0.00000000000E+00 -0.45593999997E+02  0.45594000000E+02  0.51100000000E-03 0. -1.
    9900012    2    1    2    0    0  0.73451707632E+00 -0.83612347252E+00 -0.39283323452E+00  0.90007773010E+02  0.90000034814E+02 0.  0.
         12    1    1    2    0    0 -0.73451707632E+00  0.83612347252E+00  0.39283323452E+00  0.11802269895E+01  0.00000000000E+00 0. -1.
         11    1    3    3    0    0  0.37370393077E+01  0.27014997006E+01  0.59786358683E+01  0.75503410868E+01  0.51100000000E-03 0. -1.
        -11    1    3    3    0    0 -0.31736565032E+02 -0.14234260722E+02  0.21609287024E+02  0.40948565595E+02  0.51100000000E-03 0.  1.
         12    1    3    3    0    0  0.28734042800E+02  0.10696637549E+02 -0.27980756127E+02  0.41508866329E+02  0.00000000000E+00 0. -1.
</event>
<event>
 7    1  0.2490895E-015  0.9000769E+02  0.7816164E-02  0.1186339E+00
        -11   -1    0    0    0    0  0.00000000000E+00  0.00000000000E+00  0.45593999997E+02  0.45594000000E+02  0.51100000000E-03 0.  1.
         11   -1    0    0    0    0 -0.00000000000E+00 -0.00000000000E+00 -0.45593999997E+02  0.45594000000E+02  0.51100000000E-03 0. -1.
    9900012    2    1    2    0    0 -0.42828338620E+00  0.13625618950E+00  0.10913977390E+01  0.90007685875E+02  0.89999946529E+02 0.  0.
         12    1    1    2    0    0  0.42828338620E+00 -0.13625618950E+00 -0.10913977390E+01  0.11803141246E+01  0.00000000000E+00 0. -1.
         11    1    3    3    0    0  0.42322596261E+00 -0.89951333388E+01 -0.32010129058E+02  0.33252667661E+02  0.51100000000E-03 0. -1.
        -11    1    3    3    0    0  0.59264228740E+01 -0.14209091466E+02 -0.35812928766E+00  0.15399643672E+02  0.51100000000E-03 0.  1.
        -12    1    3    3    0    0 -0.67779322228E+01  0.23340480995E+02  0.33459656084E+02  0.41355374543E+02  0.00000000000E+00 0.  1.
</event>
<event>
 7    1  0.2490895E-015  0.9000766E+02  0.7816164E-02  0.1186339E+00
        -11   -1    0    0    0    0  0.00000000000E+00  0.00000000000E+00  0.45593999997E+02  0.45594000000E+02  0.51100000000E-03 0.  1.
         11   -1    0    0    0    0 -0.00000000000E+00 -0.00000000000E+00 -0.45593999997E+02  0.45594000000E+02  0.51100000000E-03 0. -1.
    9900012    2    1    2    0    0 -0.81360645179E-01  0.10138280452E+01  0.59894063001E+00  0.90007662447E+02  0.89999922792E+02 0.  0.
         12    1    1    2    0    0  0.81360645179E-01 -0.10138280452E+01 -0.59894063001E+00  0.11803375526E+01  0.00000000000E+00 0. -1.
         11    1    3    3    0    0  0.20131378134E+02  0.20590551061E+02 -0.27527049369E+02  0.39836937957E+02  0.51100000000E-03 0. -1.
        -11    1    3    3    0    0  0.10984941389E+01 -0.67760468194E+01 -0.51871941028E+01  0.86039806365E+01  0.51100000000E-03 0.  1.
        -12    1    3    3    0    0 -0.21311232918E+02 -0.12800676196E+02  0.33313184102E+02  0.41566743854E+02  0.00000000000E+00 0.  1.
</event>
<event>
 7    1  0.2490895E-015  0.9000771E+02  0.7816164E-02  0.1186339E+00
        -11   -1    0    0    0    0  0.00000000000E+00  0.00000000000E+00  0.45593999997E+02  0.45594000000E+02  0.51100000000E-03 0. -1.
         11   -1    0    0    0    0 -0.00000000000E+00 -0.00000000000E+00 -0.45593999997E+02  0.45594000000E+02  0.51100000000E-03 0.  1.
    9900012    2    1    2    0    0 -0.87258314258E+00  0.45001185896E+00 -0.65511009874E+00  0.90007711368E+02  0.89999972358E+02 0.  0.
         12    1    1    2    0    0  0.87258314258E+00 -0.45001185896E+00  0.65511009874E+00  0.11802886322E+01  0.00000000000E+00 0. -1.
         11    1    3    3    0    0  0.34050586670E+02 -0.12016083510E+02  0.23020008265E+02  0.42822301390E+02  0.51100000000E-03 0. -1.
        -11    1    3    3    0    0 -0.20298776121E+00  0.39575432080E+01 -0.62908983931E+01  0.74349684013E+01  0.51100000000E-03 0.  1.
        -12    1    3    3    0    0 -0.34720182051E+02  0.85085521611E+01 -0.17384219971E+02  0.39750441577E+02  0.00000000000E+00 0.  1.
</event>
<event>
 7    1  0.2490895E-015  0.9000770E+02  0.7816164E-02  0.1186339E+00
        -11   -1    0    0    0    0  0.00000000000E+00  0.00000000000E+00  0.45593999997E+02  0.45594000000E+02  0.51100000000E-03 0.  1.
         11   -1    0    0    0    0 -0.00000000000E+00 -0.00000000000E+00 -0.45593999997E+02  0.45594000000E+02  0.51100000000E-03 0. -1.
    9900012    2    1    2    0    0 -0.99924661114E+00  0.46699893730E+00 -0.42013782321E+00  0.90007704449E+02  0.89999965348E+02 0.  0.
         12    1    1    2    0    0  0.99924661114E+00 -0.46699893730E+00  0.42013782321E+00  0.11802955510E+01  0.00000000000E+00 0. -1.
         11    1    3    3    0    0  0.70535169040E+01 -0.33958566783E+02 -0.10387690291E+02  0.36205530911E+02  0.51100000000E-03 0. -1.
        -11    1    3    3    0    0 -0.19170642348E+01 -0.84341862744E+01 -0.20089457870E+01  0.88795549904E+01  0.51100000000E-03 0.  1.
        -12    1    3    3    0    0 -0.61356992803E+01  0.42859751995E+02  0.11976498255E+02  0.44922618548E+02  0.00000000000E+00 0.  1.
</event>
<event>
 7    1  0.2490895E-015  0.9000773E+02  0.7816164E-02  0.1186339E+00
        -11   -1    0    0    0    0  0.00000000000E+00  0.00000000000E+00  0.45593999997E+02  0.45594000000E+02  0.51100000000E-03 0.  1.
         11   -1    0    0    0    0 -0.00000000000E+00 -0.00000000000E+00 -0.45593999997E+02  0.45594000000E+02  0.51100000000E-03 0. -1.
    9900012    2    1    2    0    0 -0.92244056104E+00  0.38730567120E+00  0.62621154719E+00  0.90007727500E+02  0.89999988703E+02 0.  0.
         12    1    1    2    0    0  0.92244056104E+00 -0.38730567120E+00 -0.62621154719E+00  0.11802724997E+01  0.00000000000E+00 0. -1.
         11    1    3    3    0    0 -0.41741430289E+01 -0.37923869416E+01 -0.97159368722E+01  0.11234104250E+02  0.51100000000E-03 0. -1.
        -11    1    3    3    0    0 -0.15416818339E+02 -0.27226597226E+02  0.24347374956E+02  0.39645435446E+02  0.51100000000E-03 0.  1.
         12    1    3    3    0    0  0.18668520806E+02  0.31406289839E+02 -0.14005226536E+02  0.39128187804E+02  0.00000000000E+00 0. -1.
</event>
<event>
 7    1  0.2490895E-015  0.9000752E+02  0.7816164E-02  0.1186339E+00
        -11   -1    0    0    0    0  0.00000000000E+00  0.00000000000E+00  0.45593999997E+02  0.45594000000E+02  0.51100000000E-03 0.  1.
         11   -1    0    0    0    0 -0.00000000000E+00 -0.00000000000E+00 -0.45593999997E+02  0.45594000000E+02  0.51100000000E-03 0. -1.
    9900012    2    1    2    0    0  0.14784321145E+00 -0.90585062507E+00  0.74237022543E+00  0.90007518521E+02  0.89999776965E+02 0.  0.
         12    1    1    2    0    0 -0.14784321145E+00  0.90585062507E+00 -0.74237022543E+00  0.11804814788E+01  0.00000000000E+00 0. -1.
         11    1    3    3    0    0  0.17440937333E+01 -0.64490340593E+01  0.40002412808E+01  0.77867730039E+01  0.51100000000E-03 0. -1.
        -11    1    3    3    0    0  0.33249008656E+00 -0.35867018817E+02  0.12334719947E+02  0.37930184615E+02  0.51100000000E-03 0.  1.
         12    1    3    3    0    0 -0.19287406084E+01  0.41410202252E+02 -0.15592591002E+02  0.44290560902E+02  0.00000000000E+00 0. -1.
</event>
<event>
 7    1  0.2490895E-015  0.9000775E+02  0.7816164E-02  0.1186339E+00
        -11   -1    0    0    0    0  0.00000000000E+00  0.00000000000E+00  0.45593999997E+02  0.45594000000E+02  0.51100000000E-03 0.  1.
         11   -1    0    0    0    0 -0.00000000000E+00 -0.00000000000E+00 -0.45593999997E+02  0.45594000000E+02  0.51100000000E-03 0. -1.
    9900012    2    1    2    0    0  0.28544718440E+00 -0.10061965006E+01  0.54688810790E+00  0.90007746597E+02  0.90000008052E+02 0.  0.
         12    1    1    2    0    0 -0.28544718440E+00  0.10061965006E+01 -0.54688810790E+00  0.11802534031E+01  0.00000000000E+00 0. -1.
         11    1    3    3    0    0 -0.84858250856E+01 -0.30038706503E+01  0.25018043686E+01  0.93429915781E+01  0.51100000000E-03 0. -1.
        -11    1    3    3    0    0 -0.29566867992E+01  0.29565700549E+02  0.26153678041E+02  0.39583930087E+02  0.51100000000E-03 0.  1.
         12    1    3    3    0    0  0.11727959069E+02 -0.27568026399E+02 -0.28108594302E+02  0.41080824932E+02  0.00000000000E+00 0. -1.
</event>
<event>
 7    1  0.2490895E-015  0.9000810E+02  0.7816164E-02  0.1186338E+00
        -11   -1    0    0    0    0  0.00000000000E+00  0.00000000000E+00  0.45593999997E+02  0.45594000000E+02  0.51100000000E-03 0. -1.
         11   -1    0    0    0    0 -0.00000000000E+00 -0.00000000000E+00 -0.45593999997E+02  0.45594000000E+02  0.51100000000E-03 0.  1.
    9900012    2    1    2    0    0 -0.79625392838E+00  0.17546052908E+00 -0.85284910770E+00  0.90008102413E+02  0.90000368564E+02 0.  0.
         12    1    1    2    0    0  0.79625392838E+00 -0.17546052908E+00  0.85284910770E+00  0.11798975872E+01  0.00000000000E+00 0. -1.
         11    1    3    3    0    0 -0.16037815816E+01  0.35106740950E+01 -0.78668549242E+01  0.87626682364E+01  0.51100000000E-03 0. -1.
        -11    1    3    3    0    0  0.30210925873E+02 -0.26542151630E+02 -0.78008988190E+01  0.40963885044E+02  0.51100000000E-03 0.  1.
         12    1    3    3    0    0 -0.29403398219E+02  0.23206938064E+02  0.14814904635E+02  0.40281549133E+02  0.00000000000E+00 0. -1.
</event>
<event>
 7    1  0.2490895E-015  0.9000742E+02  0.7816164E-02  0.1186340E+00
        -11   -1    0    0    0    0  0.00000000000E+00  0.00000000000E+00  0.45593999997E+02  0.45594000000E+02  0.51100000000E-03 0. -1.
         11   -1    0    0    0    0 -0.00000000000E+00 -0.00000000000E+00 -0.45593999997E+02  0.45594000000E+02  0.51100000000E-03 0.  1.
    9900012    2    1    2    0    0 -0.59239917813E+00  0.91715796550E+00  0.44905298049E+00  0.90007422133E+02  0.89999679305E+02 0.  0.
         12    1    1    2    0    0  0.59239917813E+00 -0.91715796550E+00 -0.44905298049E+00  0.11805778666E+01  0.00000000000E+00 0. -1.
         11    1    3    3    0    0 -0.33614883333E+02 -0.12403805308E+02  0.16496655937E+02  0.39445588156E+02  0.51100000000E-03 0. -1.
        -11    1    3    3    0    0 -0.34695651441E+01 -0.31793521581E+01 -0.86327444551E+01  0.98321126683E+01  0.51100000000E-03 0.  1.
        -12    1    3    3    0    0  0.36492049299E+02  0.16500315431E+02 -0.74148585017E+01  0.40729721309E+02  0.00000000000E+00 0.  1.
</event>
<event>
 7    1  0.2490895E-015  0.9000775E+02  0.7816164E-02  0.1186339E+00
        -11   -1    0    0    0    0  0.00000000000E+00  0.00000000000E+00  0.45593999997E+02  0.45594000000E+02  0.51100000000E-03 0.  1.
         11   -1    0    0    0    0 -0.00000000000E+00 -0.00000000000E+00 -0.45593999997E+02  0.45594000000E+02  0.51100000000E-03 0. -1.
    9900012    2    1    2    0    0 -0.23050789205E+00 -0.72761899010E+00 -0.90024301114E+00  0.90007745467E+02  0.90000006907E+02 0.  0.
         12    1    1    2    0    0  0.23050789205E+00  0.72761899010E+00  0.90024301114E+00  0.11802545328E+01  0.00000000000E+00 0. -1.
         11    1    3    3    0    0  0.10861217598E+02  0.53384487185E+01  0.12146710914E+01  0.12163079731E+02  0.51100000000E-03 0. -1.
        -11    1    3    3    0    0 -0.26299048961E+02 -0.35435787309E+02  0.36238862790E+01  0.44277167372E+02  0.51100000000E-03 0.  1.
         12    1    3    3    0    0  0.15207323471E+02  0.29369719601E+02 -0.57388003815E+01  0.33567498364E+02  0.00000000000E+00 0. -1.
</event>
<event>
 7    1  0.2490895E-015  0.9000787E+02  0.7816164E-02  0.1186339E+00
        -11   -1    0    0    0    0  0.00000000000E+00  0.00000000000E+00  0.45593999997E+02  0.45594000000E+02  0.51100000000E-03 0.  1.
         11   -1    0    0    0    0 -0.00000000000E+00 -0.00000000000E+00 -0.45593999997E+02  0.45594000000E+02  0.51100000000E-03 0. -1.
    9900012    2    1    2    0    0 -0.58343596089E+00  0.54277040652E+00  0.87046851570E+00  0.90007867520E+02  0.90000130571E+02 0.  0.
         12    1    1    2    0    0  0.58343596089E+00 -0.54277040652E+00 -0.87046851570E+00  0.11801324805E+01  0.00000000000E+00 0. -1.
         11    1    3    3    0    0 -0.31021611210E+02 -0.10862602997E+02 -0.24568288955E+02  0.41035805443E+02  0.51100000000E-03 0. -1.
        -11    1    3    3    0    0 -0.35739208382E+01  0.45952579040E+01  0.86729507612E+01  0.10445543573E+02  0.51100000000E-03 0.  1.
        -12    1    3    3    0    0  0.34012096088E+02  0.68101154995E+01  0.16765806709E+02  0.38526518504E+02  0.00000000000E+00 0.  1.
</event>
<event>
 7    1  0.2490895E-015  0.9000772E+02  0.7816164E-02  0.1186339E+00
        -11   -1    0    0    0    0  0.00000000000E+00  0.00000000000E+00  0.45593999997E+02  0.45594000000E+02  0.51100000000E-03 0. -1.
         11   -1    0    0    0    0 -0.00000000000E+00 -0.00000000000E+00 -0.45593999997E+02  0.45594000000E+02  0.51100000000E-03 0.  1.
    9900012    2    1    2    0    0 -0.86562684319E+00 -0.77058435350E+00 -0.22348909900E+00  0.90007721450E+02  0.89999982573E+02 0.  0.
         12    1    1    2    0    0  0.86562684319E+00  0.77058435350E+00  0.22348909900E+00  0.11802785497E+01  0.00000000000E+00 0. -1.
         11    1    3    3    0    0 -0.11228713650E+02  0.40986883210E+02  0.37554560868E+01  0.42662771314E+02  0.51100000000E-03 0. -1.
        -11    1    3    3    0    0  0.42198317653E+01 -0.48477976289E+01  0.58146473338E+01  0.86670782768E+01  0.51100000000E-03 0.  1.
        -12    1    3    3    0    0  0.61432550415E+01 -0.36909669934E+02 -0.97935925196E+01  0.38677871860E+02  0.00000000000E+00 0.  1.
</event>
<event>
 7    1  0.2490895E-015  0.9000805E+02  0.7816164E-02  0.1186338E+00
        -11   -1    0    0    0    0  0.00000000000E+00  0.00000000000E+00  0.45593999997E+02  0.45594000000E+02  0.51100000000E-03 0.  1.
         11   -1    0    0    0    0 -0.00000000000E+00 -0.00000000000E+00 -0.45593999997E+02  0.45594000000E+02  0.51100000000E-03 0. -1.
    9900012    2    1    2    0    0  0.10426906796E+01  0.55202080746E+00  0.18686882052E-01  0.90008050838E+02  0.90000316309E+02 0.  0.
         12    1    1    2    0    0 -0.10426906796E+01 -0.55202080746E+00 -0.18686882052E-01  0.11799491620E+01  0.00000000000E+00 0. -1.
         11    1    3    3    0    0  0.19476681312E+02 -0.20113067692E+02  0.29788013654E+02  0.40880342032E+02  0.51100000000E-03 0. -1.
        -11    1    3    3    0    0 -0.15634915610E+01  0.57052368330E+01  0.49606120165E+01  0.77202270058E+01  0.51100000000E-03 0.  1.
        -12    1    3    3    0    0 -0.16870499072E+02  0.14959851667E+02 -0.34729938788E+02  0.41407481800E+02  0.00000000000E+00 0.  1.
</event>
<event>
 7    1  0.2490895E-015  0.9000767E+02  0.7816164E-02  0.1186339E+00
        -11   -1    0    0    0    0  0.00000000000E+00  0.00000000000E+00  0.45593999997E+02  0.45594000000E+02  0.51100000000E-03 0. -1.
         11   -1    0    0    0    0 -0.00000000000E+00 -0.00000000000E+00 -0.45593999997E+02  0.45594000000E+02  0.51100000000E-03 0.  1.
    9900012    2    1    2    0    0 -0.35858910874E-01 -0.10963346120E+01 -0.43582435875E+00  0.90007670252E+02  0.89999930699E+02 0.  0.
         12    1    1    2    0    0  0.35858910874E-01  0.10963346120E+01  0.43582435875E+00  0.11803297482E+01  0.00000000000E+00 0. -1.
         11    1    3    3    0    0 -0.63329671017E+01 -0.67295712499E+01 -0.19189481165E+01  0.94380063389E+01  0.51100000000E-03 0. -1.
        -11    1    3    3    0    0 -0.19301689399E+02 -0.30605102731E+02  0.22850084285E+00  0.36183970757E+02  0.51100000000E-03 0.  1.
         12    1    3    3    0    0  0.25598797590E+02  0.36238339369E+02  0.12546229149E+01  0.44385693156E+02  0.00000000000E+00 0. -1.
</event>
<event>
 7    1  0.2490895E-015  0.9000744E+02  0.7816164E-02  0.1186340E+00
        -11   -1    0    0    0    0  0.00000000000E+00  0.00000000000E+00  0.45593999997E+02  0.45594000000E+02  0.51100000000E-03 0.  1.
         11   -1    0    0    0    0 -0.00000000000E+00 -0.00000000000E+00 -0.45593999997E+02  0.45594000000E+02  0.51100000000E-03 0. -1.
    9900012    2    1    2    0    0 -0.37866329161E+00 -0.88728087666E+00  0.68049842086E+00  0.90007436006E+02  0.89999693361E+02 0.  0.
         12    1    1    2    0    0  0.37866329161E+00  0.88728087666E+00 -0.68049842086E+00  0.11805639937E+01  0.00000000000E+00 0. -1.
         11    1    3    3    0    0 -0.17495271968E+02  0.13833965727E+02 -0.31606239358E+02  0.38683556139E+02  0.51100000000E-03 0. -1.
        -11    1    3    3    0    0 -0.25054548914E+01  0.82830028087E+01  0.28133737341E+01  0.90994786538E+01  0.51100000000E-03 0.  1.
        -12    1    3    3    0    0  0.19622063568E+02 -0.23004249412E+02  0.29473364045E+02  0.42224401213E+02  0.00000000000E+00 0.  1.
</event>
<event>
 7    1  0.2490895E-015  0.9000777E+02  0.7816164E-02  0.1186339E+00
        -11   -1    0    0    0    0  0.00000000000E+00  0.00000000000E+00  0.45593999997E+02  0.45594000000E+02  0.51100000000E-03 0.  1.
         11   -1    0    0    0    0 -0.00000000000E+00 -0.00000000000E+00 -0.45593999997E+02  0.45594000000E+02  0.51100000000E-03 0. -1.
    9900012    2    1    2    0    0 -0.91003436708E+00 -0.72795241780E+00  0.18673539398E+00  0.90007768082E+02  0.90000029821E+02 0.  0.
         12    1    1    2    0    0  0.91003436708E+00  0.72795241780E+00 -0.18673539398E+00  0.11802319176E+01  0.00000000000E+00 0. -1.
         11    1    3    3    0    0  0.41476104497E+01  0.80529850944E+01 -0.76623197621E+01  0.11864416790E+02  0.51100000000E-03 0. -1.
        -11    1    3    3    0    0  0.34958010021E+02 -0.10104499714E+02  0.10908943840E+02  0.37989056780E+02  0.51100000000E-03 0.  1.
         12    1    3    3    0    0 -0.40015654838E+02  0.13235622023E+01 -0.30598886838E+01  0.40154294512E+02  0.00000000000E+00 0. -1.
</event>
<event>
 7    1  0.2490895E-015  0.9000808E+02  0.7816164E-02  0.1186338E+00
        -11   -1    0    0    0    0  0.00000000000E+00  0.00000000000E+00  0.45593999997E+02  0.45594000000E+02  0.51100000000E-03 0.  1.
         11   -1    0    0    0    0 -0.00000000000E+00 -0.00000000000E+00 -0.45593999997E+02  0.45594000000E+02  0.51100000000E-03 0. -1.
    9900012    2    1    2    0    0  0.28149593698E+00 -0.11299079126E+01  0.19046384388E+00  0.90008081219E+02  0.90000347091E+02 0.  0.
         12    1    1    2    0    0 -0.28149593698E+00  0.11299079126E+01 -0.19046384388E+00  0.11799187808E+01  0.00000000000E+00 0. -1.
         11    1    3    3    0    0 -0.71926717076E+01 -0.35320790107E+01  0.50496813462E+01  0.94715041250E+01  0.51100000000E-03 0. -1.
        -11    1    3    3    0    0  0.29976392024E+02 -0.21532384349E+01  0.27582817510E+02  0.40792552465E+02  0.51100000000E-03 0.  1.
         12    1    3    3    0    0 -0.22502224379E+02  0.45554095330E+01 -0.32442035012E+02  0.39744024630E+02  0.00000000000E+00 0. -1.
</event>
<event>
 7    1  0.2490895E-015  0.9000774E+02  0.7816164E-02  0.1186339E+00
        -11   -1    0    0    0    0  0.00000000000E+00  0.00000000000E+00  0.45593999997E+02  0.45594000000E+02  0.51100000000E-03 0.  1.
         11   -1    0    0    0    0 -0.00000000000E+00 -0.00000000000E+00 -0.45593999997E+02  0.45594000000E+02  0.51100000000E-03 0. -1.
    9900012    2    1    2    0    0 -0.81820812079E+00 -0.24240959943E+00  0.81535080531E+00  0.90007735674E+02  0.89999996985E+02 0.  0.
         12    1    1    2    0    0  0.81820812079E+00  0.24240959943E+00 -0.81535080531E+00  0.11802643257E+01  0.00000000000E+00 0. -1.
         11    1    3    3    0    0 -0.36328996021E+01 -0.39526303928E+01 -0.48005861567E+01  0.72018660255E+01  0.51100000000E-03 0. -1.
        -11    1    3    3    0    0  0.21794275546E+01 -0.20353157733E+02  0.37578981036E+02  0.42792297790E+02  0.51100000000E-03 0.  1.
         12    1    3    3    0    0  0.63526392663E+00  0.24063378527E+02 -0.31963044074E+02  0.40013571858E+02  0.00000000000E+00 0. -1.
</event>
<event>
 7    1  0.2490895E-015  0.9000774E+02  0.7816164E-02  0.1186339E+00
        -11   -1    0    0    0    0  0.00000000000E+00  0.00000000000E+00  0.45593999997E+02  0.45594000000E+02  0.51100000000E-03 0.  1.
         11   -1    0    0    0    0 -0.00000000000E+00 -0.00000000000E+00 -0.45593999997E+02  0.45594000000E+02  0.51100000000E-03 0. -1.
    9900012    2    1    2    0    0 -0.78291739739E+00 -0.33069664140E+00  0.81895305751E+00  0.90007744083E+02  0.90000005505E+02 0.  0.
         12    1    1    2    0    0  0.78291739739E+00  0.33069664140E+00 -0.81895305751E+00  0.11802559172E+01  0.00000000000E+00 0. -1.
         11    1    3    3    0    0  0.11599026780E+01  0.14764511499E+01 -0.14446376407E+01  0.23690209780E+01  0.51100000000E-03 0. -1.
        -11    1    3    3    0    0  0.26827128895E+01  0.34448600670E+02 -0.24483280456E+02  0.42347775133E+02  0.51100000000E-03 0.  1.
        -12    1    3    3    0    0 -0.46255329648E+01 -0.36255748461E+02  0.26746871154E+02  0.45290947972E+02  0.00000000000E+00 0.  1.
</event>
<event>
 7    1  0.2490895E-015  0.9000776E+02  0.7816164E-02  0.1186339E+00
        -11   -1    0    0    0    0  0.00000000000E+00  0.00000000000E+00  0.45593999997E+02  0.45594000000E+02  0.51100000000E-03 0. -1.
         11   -1    0    0    0    0 -0.00000000000E+00 -0.00000000000E+00 -0.45593999997E+02  0.45594000000E+02  0.51100000000E-03 0.  1.
    9900012    2    1    2    0    0 -0.81363837702E+00  0.68520018383E+00 -0.51132891530E+00  0.90007761058E+02  0.90000022704E+02 0.  0.
         12    1    1    2    0    0  0.81363837702E+00 -0.68520018383E+00  0.51132891530E+00  0.11802389419E+01  0.00000000000E+00 0. -1.
         11    1    3    3    0    0  0.16020123880E+02 -0.57863698411E+00  0.87593986695E+01  0.18267628614E+02  0.51100000000E-03 0. -1.
        -11    1    3    3    0    0 -0.18459486594E+02  0.22573816325E+02  0.20099967952E+02  0.35416642143E+02  0.51100000000E-03 0.  1.
         12    1    3    3    0    0  0.16257243372E+01 -0.21309979157E+02 -0.29370695537E+02  0.36323490300E+02  0.00000000000E+00 0. -1.
</event>
<event>
 7    1  0.2490895E-015  0.9000713E+02  0.7816164E-02  0.1186340E+00
        -11   -1    0    0    0    0  0.00000000000E+00  0.00000000000E+00  0.45593999997E+02  0.45594000000E+02  0.51100000000E-03 0. -1.
         11   -1    0    0    0    0 -0.00000000000E+00 -0.00000000000E+00 -0.45593999997E+02  0.45594000000E+02  0.51100000000E-03 0.  1.
    9900012    2    1    2    0    0  0.48562059063E+00 -0.15896345185E-01 -0.10762814754E+01  0.90007126651E+02  0.89999379921E+02 0.  0.
         12    1    1    2    0    0 -0.48562059063E+00  0.15896345185E-01  0.10762814754E+01  0.11808733489E+01  0.00000000000E+00 0. -1.
         11    1    3    3    0    0 -0.83349979182E+01 -0.85752093556E+00 -0.56954451899E+01  0.10131417898E+02  0.51100000000E-03 0. -1.
        -11    1    3    3    0    0  0.32588696363E+02 -0.20420072702E+02 -0.16264894693E+02  0.41755829527E+02  0.51100000000E-03 0.  1.
         12    1    3    3    0    0 -0.23768077855E+02  0.21261697293E+02  0.20884058407E+02  0.38119879226E+02  0.00000000000E+00 0. -1.
</event>
<event>
 7    1  0.2490895E-015  0.9000768E+02  0.7816164E-02  0.1186339E+00
        -11   -1    0    0    0    0  0.00000000000E+00  0.00000000000E+00  0.45593999997E+02  0.45594000000E+02  0.51100000000E-03 0.  1.
         11   -1    0    0    0    0 -0.00000000000E+00 -0.00000000000E+00 -0.45593999997E+02  0.45594000000E+02  0.51100000000E-03 0. -1.
    9900012    2    1    2    0    0  0.88242893263E+00  0.69003261100E+00  0.37192017348E+00  0.90007682059E+02  0.89999942663E+02 0.  0.
         12    1    1    2    0    0 -0.88242893263E+00 -0.69003261100E+00 -0.37192017348E+00  0.11803179406E+01  0.00000000000E+00 0. -1.
         11    1    3    3    0    0 -0.55673245788E+01  0.16328072913E+01  0.12875617098E+01  0.59429772029E+01  0.51100000000E-03 0. -1.
        -11    1    3    3    0    0  0.21756318313E+02  0.36280470380E+02  0.74558621498E+01  0.42955788879E+02  0.51100000000E-03 0.  1.
         12    1    3    3    0    0 -0.15306564802E+02 -0.37223245061E+02 -0.83715036861E+01  0.41108915977E+02  0.00000000000E+00 0. -1.
</event>
<event>
 7    1  0.2490895E-015  0.9000773E+02  0.7816164E-02  0.1186339E+00
        -11   -1    0    0    0    0  0.00000000000E+00  0.00000000000E+00  0.45593999997E+02  0.45594000000E+02  0.51100000000E-03 0.  1.
         11   -1    0    0    0    0 -0.00000000000E+00 -0.00000000000E+00 -0.45593999997E+02  0.45594000000E+02  0.51100000000E-03 0. -1.
    9900012    2    1    2    0    0 -0.94030755876E+00 -0.39805177238E+00  0.59195215166E+00  0.90007732713E+02  0.89999993985E+02 0.  0.
         12    1    1    2    0    0  0.94030755876E+00  0.39805177238E+00 -0.59195215166E+00  0.11802672869E+01  0.00000000000E+00 0. -1.
         11    1    3    3    0    0 -0.52984407323E+01  0.53153141969E+00 -0.96501513161E+01  0.11021861028E+02  0.51100000000E-03 0. -1.
        -11    1    3    3    0    0 -0.87652236652E+00  0.36169611933E+02  0.18476494567E+02  0.40624991946E+02  0.51100000000E-03 0.  1.
         12    1    3    3    0    0  0.52346555401E+01 -0.37099195125E+02 -0.82343910995E+01  0.38360879739E+02  0.00000000000E+00 0. -1.
</event>
<event>
 7    1  0.2490895E-015  0.9000770E+02  0.7816164E-02  0.1186339E+00
        -11   -1    0    0    0    0  0.00000000000E+00  0.00000000000E+00  0.45593999997E+02  0.45594000000E+02  0.51100000000E-03 0.  1.
         11   -1    0    0    0    0 -0.00000000000E+00 -0.00000000000E+00 -0.45593999997E+02  0.45594000000E+02  0.51100000000E-03 0. -1.
    9900012    2    1    2    0    0 -0.10709059744E+01 -0.27950788674E-01  0.49546356044E+00  0.90007701312E+02  0.89999962170E+02 0.  0.
         12    1    1    2    0    0  0.10709059744E+01  0.27950788674E-01 -0.49546356044E+00  0.11802986878E+01  0.00000000000E+00 0. -1.
         11    1    3    3    0    0 -0.18879843573E+01  0.92507389253E+01  0.15637472267E+01  0.95700554465E+01  0.51100000000E-03 0. -1.
        -11    1    3    3    0    0 -0.19561765605E+02  0.30186269963E+02  0.84630065784E+00  0.35980408460E+02  0.51100000000E-03 0.  1.
         12    1    3    3    0    0  0.20378843988E+02 -0.39464959677E+02 -0.19145843241E+01  0.44457237406E+02  0.00000000000E+00 0. -1.
</event>
<event>
 7    1  0.2490895E-015  0.9000774E+02  0.7816164E-02  0.1186339E+00
        -11   -1    0    0    0    0  0.00000000000E+00  0.00000000000E+00  0.45593999997E+02  0.45594000000E+02  0.51100000000E-03 0. -1.
         11   -1    0    0    0    0 -0.00000000000E+00 -0.00000000000E+00 -0.45593999997E+02  0.45594000000E+02  0.51100000000E-03 0.  1.
    9900012    2    1    2    0    0  0.37698379882E+00  0.76122895709E+00 -0.81939979700E+00  0.90007744800E+02  0.90000006231E+02 0.  0.
         12    1    1    2    0    0 -0.37698379882E+00 -0.76122895709E+00  0.81939979700E+00  0.11802551999E+01  0.00000000000E+00 0. -1.
         11    1    3    3    0    0 -0.32110978848E+01 -0.12561467428E+02 -0.47432350507E+01  0.13805791994E+02  0.51100000000E-03 0. -1.
        -11    1    3    3    0    0  0.17688748322E+01 -0.16906341482E+02 -0.27646978700E+02  0.32454718177E+02  0.51100000000E-03 0.  1.
         12    1    3    3    0    0  0.18192068514E+01  0.30229037868E+02  0.31570813953E+02  0.43747234629E+02  0.00000000000E+00 0. -1.
</event>
<event>
 7    1  0.2490895E-015  0.9000758E+02  0.7816164E-02  0.1186339E+00
        -11   -1    0    0    0    0  0.00000000000E+00  0.00000000000E+00  0.45593999997E+02  0.45594000000E+02  0.51100000000E-03 0. -1.
         11   -1    0    0    0    0 -0.00000000000E+00 -0.00000000000E+00 -0.45593999997E+02  0.45594000000E+02  0.51100000000E-03 0.  1.
    9900012    2    1    2    0    0 -0.47535155382E+00  0.10631751650E+01  0.19256571928E+00  0.90007583935E+02  0.89999843242E+02 0.  0.
         12    1    1    2    0    0  0.47535155382E+00 -0.10631751650E+01 -0.19256571928E+00  0.11804160654E+01  0.00000000000E+00 0. -1.
         11    1    3    3    0    0  0.33847744460E+01  0.21211003401E+01 -0.87541155527E+01  0.96223855709E+01  0.51100000000E-03 0. -1.
        -11    1    3    3    0    0  0.16437790083E+02 -0.30292177092E+02 -0.14896858889E+02  0.37546415819E+02  0.51100000000E-03 0.  1.
         12    1    3    3    0    0 -0.20297916083E+02  0.29234251917E+02  0.23843540161E+02  0.42838782545E+02  0.00000000000E+00 0. -1.
</event>
<event>
 7    1  0.2490895E-015  0.9000780E+02  0.7816164E-02  0.1186339E+00
        -11   -1    0    0    0    0  0.00000000000E+00  0.00000000000E+00  0.45593999997E+02  0.45594000000E+02  0.51100000000E-03 0.  1.
         11   -1    0    0    0    0 -0.00000000000E+00 -0.00000000000E+00 -0.45593999997E+02  0.45594000000E+02  0.51100000000E-03 0. -1.
    9900012    2    1    2    0    0  0.49764697841E+00 -0.10684820522E+01  0.59689551272E-01  0.90007801181E+02  0.90000063356E+02 0.  0.
         12    1    1    2    0    0 -0.49764697841E+00  0.10684820522E+01 -0.59689551272E-01  0.11801988194E+01  0.00000000000E+00 0. -1.
         11    1    3    3    0    0  0.56754608560E+01 -0.52982604592E+01 -0.52985897917E+01  0.93998656301E+01  0.51100000000E-03 0. -1.
        -11    1    3    3    0    0 -0.31815257410E+02 -0.21610127322E+02 -0.11071503434E+02  0.40022323714E+02  0.51100000000E-03 0.  1.
         12    1    3    3    0    0  0.26637443533E+02  0.25839905729E+02  0.16429782777E+02  0.40585611836E+02  0.00000000000E+00 0. -1.
</event>
<event>
 7    1  0.2726842E-015  0.9000773E+02  0.7816164E-02  0.1186339E+00
        -11   -1    0    0    0    0  0.00000000000E+00  0.00000000000E+00  0.45593999997E+02  0.45594000000E+02  0.51100000000E-03 0. -1.
         11   -1    0    0    0    0 -0.00000000000E+00 -0.00000000000E+00 -0.45593999997E+02  0.45594000000E+02  0.51100000000E-03 0.  1.
    9900012    2    1    2    0    0 -0.87677052782E-01 -0.92822276479E+00 -0.72370395741E+00  0.90007732156E+02  0.89999993420E+02 0.  0.
         12    1    1    2    0    0  0.87677052782E-01  0.92822276479E+00  0.72370395741E+00  0.11802678445E+01  0.00000000000E+00 0. -1.
         11    1    3    3    0    0  0.38832135581E+01  0.36074120079E+02  0.15170859614E+02  0.39326536444E+02  0.51100000000E-03 0. -1.
        -11    1    3    3    0    0 -0.69036017339E+01 -0.24126005613E+01  0.61533936913E+01  0.95574375514E+01  0.51100000000E-03 0.  1.
        -12    1    3    3    0    0  0.29327111230E+01 -0.34589742283E+02 -0.22047957263E+02  0.41123758160E+02  0.00000000000E+00 0.  1.
</event>
<event>
 7    1  0.2490895E-015  0.9000778E+02  0.7816164E-02  0.1186339E+00
        -11   -1    0    0    0    0  0.00000000000E+00  0.00000000000E+00  0.45593999997E+02  0.45594000000E+02  0.51100000000E-03 0.  1.
         11   -1    0    0    0    0 -0.00000000000E+00 -0.00000000000E+00 -0.45593999997E+02  0.45594000000E+02  0.51100000000E-03 0. -1.
    9900012    2    1    2    0    0 -0.11764417820E+01  0.51251891011E-01  0.79239475262E-01  0.90007779293E+02  0.90000041180E+02 0.  0.
         12    1    1    2    0    0  0.11764417820E+01 -0.51251891011E-01 -0.79239475262E-01  0.11802207070E+01  0.00000000000E+00 0. -1.
         11    1    3    3    0    0 -0.89112658221E+01 -0.55554938794E+01 -0.35453122239E+01  0.11083474628E+02  0.51100000000E-03 0. -1.
        -11    1    3    3    0    0 -0.33952389129E+02  0.12736765093E+02  0.50206832486E+01  0.36608703516E+02  0.51100000000E-03 0.  1.
         12    1    3    3    0    0  0.41687213169E+02 -0.71300193225E+01 -0.13961315495E+01  0.42315601149E+02  0.00000000000E+00 0. -1.
</event>
<event>
 7    1  0.2490895E-015  0.9000780E+02  0.7816164E-02  0.1186339E+00
        -11   -1    0    0    0    0  0.00000000000E+00  0.00000000000E+00  0.45593999997E+02  0.45594000000E+02  0.51100000000E-03 0.  1.
         11   -1    0    0    0    0 -0.00000000000E+00 -0.00000000000E+00 -0.45593999997E+02  0.45594000000E+02  0.51100000000E-03 0. -1.
    9900012    2    1    2    0    0 -0.83616824365E+00  0.11205057877E-01  0.83281027329E+00  0.90007798392E+02  0.90000060530E+02 0.  0.
         12    1    1    2    0    0  0.83616824365E+00 -0.11205057877E-01 -0.83281027329E+00  0.11802016083E+01  0.00000000000E+00 0. -1.
         11    1    3    3    0    0  0.37298682204E+01 -0.71059291815E+01  0.83284877605E+01  0.11565891886E+02  0.51100000000E-03 0. -1.
        -11    1    3    3    0    0 -0.40928557637E+02  0.80275382853E+01 -0.41654540943E+01  0.41915858685E+02  0.51100000000E-03 0.  1.
         12    1    3    3    0    0  0.36362521173E+02 -0.91040404592E+00 -0.33302233930E+01  0.36526047821E+02  0.00000000000E+00 0. -1.
</event>
<event>
 7    1  0.2490895E-015  0.9000772E+02  0.7816164E-02  0.1186339E+00
        -11   -1    0    0    0    0  0.00000000000E+00  0.00000000000E+00  0.45593999997E+02  0.45594000000E+02  0.51100000000E-03 0.  1.
         11   -1    0    0    0    0 -0.00000000000E+00 -0.00000000000E+00 -0.45593999997E+02  0.45594000000E+02  0.51100000000E-03 0. -1.
    9900012    2    1    2    0    0 -0.66888699751E+00 -0.33582429272E+00  0.91261358242E+00  0.90007724048E+02  0.89999985206E+02 0.  0.
         12    1    1    2    0    0  0.66888699751E+00  0.33582429272E+00 -0.91261358242E+00  0.11802759516E+01  0.00000000000E+00 0. -1.
         11    1    3    3    0    0 -0.91640740973E+01  0.37702712798E+02  0.26362472679E+01  0.38889903655E+02  0.51100000000E-03 0. -1.
        -11    1    3    3    0    0  0.43064469206E+01  0.53368212074E+01  0.25839446965E+01  0.73282955818E+01  0.51100000000E-03 0.  1.
        -12    1    3    3    0    0  0.41887401792E+01 -0.43375358298E+02 -0.43075783820E+01  0.43789524812E+02  0.00000000000E+00 0.  1.
</event>
<event>
 7    1  0.2490895E-015  0.9000776E+02  0.7816164E-02  0.1186339E+00
        -11   -1    0    0    0    0  0.00000000000E+00  0.00000000000E+00  0.45593999997E+02  0.45594000000E+02  0.51100000000E-03 0. -1.
         11   -1    0    0    0    0 -0.00000000000E+00 -0.00000000000E+00 -0.45593999997E+02  0.45594000000E+02  0.51100000000E-03 0.  1.
    9900012    2    1    2    0    0 -0.41131579803E+00  0.55219452383E+00 -0.95857746717E+00  0.90007758398E+02  0.90000020009E+02 0.  0.
         12    1    1    2    0    0  0.41131579803E+00 -0.55219452383E+00  0.95857746717E+00  0.11802416017E+01  0.00000000000E+00 0. -1.
         11    1    3    3    0    0  0.24545742662E+01  0.72765906847E+01 -0.38408076289E+01  0.85863560562E+01  0.51100000000E-03 0. -1.
        -11    1    3    3    0    0 -0.39522125273E+02 -0.12200103204E+01 -0.12234190819E+02  0.41390364054E+02  0.51100000000E-03 0.  1.
         12    1    3    3    0    0  0.36656235209E+02 -0.55043858404E+01  0.15116420981E+02  0.40031038288E+02  0.00000000000E+00 0. -1.
</event>
<event>
 7    1  0.2490895E-015  0.9000772E+02  0.7816164E-02  0.1186339E+00
        -11   -1    0    0    0    0  0.00000000000E+00  0.00000000000E+00  0.45593999997E+02  0.45594000000E+02  0.51100000000E-03 0. -1.
         11   -1    0    0    0    0 -0.00000000000E+00 -0.00000000000E+00 -0.45593999997E+02  0.45594000000E+02  0.51100000000E-03 0.  1.
    9900012    2    1    2    0    0 -0.97497428258E+00  0.54977105629E+00  0.37449821987E+00  0.90007715296E+02  0.89999976338E+02 0.  0.
         12    1    1    2    0    0  0.97497428258E+00 -0.54977105629E+00 -0.37449821987E+00  0.11802847041E+01  0.00000000000E+00 0. -1.
         11    1    3    3    0    0 -0.36097803808E+02 -0.39884656027E+01 -0.45735554894E+01  0.36604326352E+02  0.51100000000E-03 0. -1.
        -11    1    3    3    0    0 -0.11591164054E+01 -0.33594913545E+01 -0.12052129400E+02  0.12565172356E+02  0.51100000000E-03 0.  1.
        -12    1    3    3    0    0  0.36281945931E+02  0.78977280135E+01  0.17000183110E+02  0.40838216587E+02  0.00000000000E+00 0.  1.
</event>
<event>
 7    1  0.2490895E-015  0.9000760E+02  0.7816164E-02  0.1186339E+00
        -11   -1    0    0    0    0  0.00000000000E+00  0.00000000000E+00  0.45593999997E+02  0.45594000000E+02  0.51100000000E-03 0. -1.
         11   -1    0    0    0    0 -0.00000000000E+00 -0.00000000000E+00 -0.45593999997E+02  0.45594000000E+02  0.51100000000E-03 0.  1.
    9900012    2    1    2    0    0 -0.28520091513E+00 -0.80843289189E-01 -0.11425707127E+01  0.90007600477E+02  0.89999860004E+02 0.  0.
         12    1    1    2    0    0  0.28520091513E+00  0.80843289189E-01  0.11425707127E+01  0.11803995226E+01  0.00000000000E+00 0. -1.
         11    1    3    3    0    0 -0.61190580161E+01  0.39322649853E+01  0.24228096050E+01  0.76665236948E+01  0.51100000000E-03 0. -1.
        -11    1    3    3    0    0  0.14198581479E+01 -0.79847803806E+01 -0.42342395253E+02  0.43112076625E+02  0.51100000000E-03 0.  1.
         12    1    3    3    0    0  0.44139989531E+01  0.39716721061E+01  0.38777014935E+02  0.39229000158E+02  0.00000000000E+00 0. -1.
</event>
<event>
 7    1  0.2490895E-015  0.9000776E+02  0.7816164E-02  0.1186339E+00
        -11   -1    0    0    0    0  0.00000000000E+00  0.00000000000E+00  0.45593999997E+02  0.45594000000E+02  0.51100000000E-03 0.  1.
         11   -1    0    0    0    0 -0.00000000000E+00 -0.00000000000E+00 -0.45593999997E+02  0.45594000000E+02  0.51100000000E-03 0. -1.
    9900012    2    1    2    0    0  0.33937901237E+00  0.10042338953E+00  0.11259253477E+01  0.90007758135E+02  0.90000019742E+02 0.  0.
         12    1    1    2    0    0 -0.33937901237E+00 -0.10042338953E+00 -0.11259253477E+01  0.11802418649E+01  0.00000000000E+00 0. -1.
         11    1    3    3    0    0 -0.93005051839E+00  0.87771374882E+01 -0.20819124533E+01  0.90684891894E+01  0.51100000000E-03 0. -1.
        -11    1    3    3    0    0  0.23685654036E+02  0.18653143503E+02  0.25213294974E+02  0.39302165504E+02  0.51100000000E-03 0.  1.
         12    1    3    3    0    0 -0.22416224505E+02 -0.27329857602E+02 -0.22005457173E+02  0.41637103441E+02  0.00000000000E+00 0. -1.
</event>
<event>
 7    1  0.2490895E-015  0.9000777E+02  0.7816164E-02  0.1186339E+00
        -11   -1    0    0    0    0  0.00000000000E+00  0.00000000000E+00  0.45593999997E+02  0.45594000000E+02  0.51100000000E-03 0. -1.
         11   -1    0    0    0    0 -0.00000000000E+00 -0.00000000000E+00 -0.45593999997E+02  0.45594000000E+02  0.51100000000E-03 0.  1.
    9900012    2    1    2    0    0 -0.99761909486E+00 -0.21174258916E+00  0.59402648631E+00  0.90007768561E+02  0.90000030306E+02 0.  0.
         12    1    1    2    0    0  0.99761909486E+00  0.21174258916E+00 -0.59402648631E+00  0.11802314387E+01  0.00000000000E+00 0. -1.
         11    1    3    3    0    0  0.10210284781E+02 -0.33561073107E+02  0.13473721802E+01  0.35105711152E+02  0.51100000000E-03 0. -1.
        -11    1    3    3    0    0 -0.42549926355E+00 -0.99739611286E+01 -0.22445539572E+01  0.10232251607E+02  0.51100000000E-03 0.  1.
        -12    1    3    3    0    0 -0.10782404613E+02  0.43323291647E+02  0.14912082633E+01  0.44669805802E+02  0.00000000000E+00 0.  1.
</event>
<event>
 7    1  0.2490895E-015  0.9000773E+02  0.7816164E-02  0.1186339E+00
        -11   -1    0    0    0    0  0.00000000000E+00  0.00000000000E+00  0.45593999997E+02  0.45594000000E+02  0.51100000000E-03 0. -1.
         11   -1    0    0    0    0 -0.00000000000E+00 -0.00000000000E+00 -0.45593999997E+02  0.45594000000E+02  0.51100000000E-03 0.  1.
    9900012    2    1    2    0    0 -0.47783808626E-01  0.94881344646E+00 -0.70035434299E+00  0.90007734583E+02  0.89999995880E+02 0.  0.
         12    1    1    2    0    0  0.47783808626E-01 -0.94881344646E+00  0.70035434299E+00  0.11802654169E+01  0.00000000000E+00 0. -1.
         11    1    3    3    0    0 -0.81169169994E+01 -0.75578389676E+01  0.80360337037E+00  0.11119849373E+02  0.51100000000E-03 0. -1.
        -11    1    3    3    0    0 -0.21785511779E+02 -0.23795598593E+02 -0.10624860668E+02  0.33966552671E+02  0.51100000000E-03 0.  1.
         12    1    3    3    0    0  0.29854644970E+02  0.32302251007E+02  0.91209029543E+01  0.44921332539E+02  0.00000000000E+00 0. -1.
</event>
<event>
 7    1  0.2490895E-015  0.9000775E+02  0.7816164E-02  0.1186339E+00
        -11   -1    0    0    0    0  0.00000000000E+00  0.00000000000E+00  0.45593999997E+02  0.45594000000E+02  0.51100000000E-03 0.  1.
         11   -1    0    0    0    0 -0.00000000000E+00 -0.00000000000E+00 -0.45593999997E+02  0.45594000000E+02  0.51100000000E-03 0. -1.
    9900012    2    1    2    0    0  0.10399104069E+01 -0.19806214808E+00  0.52187349862E+00  0.90007748240E+02  0.90000009717E+02 0.  0.
         12    1    1    2    0    0 -0.10399104069E+01  0.19806214808E+00 -0.52187349862E+00  0.11802517602E+01  0.00000000000E+00 0. -1.
         11    1    3    3    0    0 -0.97961315569E+00  0.57891837711E+00  0.88986710580E+01  0.89711278712E+01  0.51100000000E-03 0. -1.
        -11    1    3    3    0    0 -0.18784333616E+02  0.28394223970E+02  0.16084161989E+02  0.37653464799E+02  0.51100000000E-03 0.  1.
         12    1    3    3    0    0  0.20803857178E+02 -0.29171204495E+02 -0.24460959548E+02  0.43383155570E+02  0.00000000000E+00 0. -1.
</event>
<event>
 7    1  0.2490895E-015  0.9000772E+02  0.7816164E-02  0.1186339E+00
        -11   -1    0    0    0    0  0.00000000000E+00  0.00000000000E+00  0.45593999997E+02  0.45594000000E+02  0.51100000000E-03 0. -1.
         11   -1    0    0    0    0 -0.00000000000E+00 -0.00000000000E+00 -0.45593999997E+02  0.45594000000E+02  0.51100000000E-03 0.  1.
    9900012    2    1    2    0    0 -0.10995600123E+01  0.42579489413E+00  0.52130058096E-01  0.90007724161E+02  0.89999985320E+02 0.  0.
         12    1    1    2    0    0  0.10995600123E+01 -0.42579489413E+00 -0.52130058096E-01  0.11802758387E+01  0.00000000000E+00 0. -1.
         11    1    3    3    0    0  0.76449145193E+01  0.13803897864E+02  0.40298254569E+02  0.43277495720E+02  0.51100000000E-03 0. -1.
        -11    1    3    3    0    0 -0.42485779277E+01  0.38176000088E+01 -0.70314065424E+01  0.90589824186E+01  0.51100000000E-03 0.  1.
        -12    1    3    3    0    0 -0.44958966039E+01 -0.17195702979E+02 -0.33214717968E+02  0.37671246023E+02  0.00000000000E+00 0.  1.
</event>
<event>
 7    1  0.2490895E-015  0.9000723E+02  0.7816164E-02  0.1186340E+00
        -11   -1    0    0    0    0  0.00000000000E+00  0.00000000000E+00  0.45593999997E+02  0.45594000000E+02  0.51100000000E-03 0.  1.
         11   -1    0    0    0    0 -0.00000000000E+00 -0.00000000000E+00 -0.45593999997E+02  0.45594000000E+02  0.51100000000E-03 0. -1.
    9900012    2    1    2    0    0  0.90434701267E+00  0.70581845773E+00 -0.27963319457E+00  0.90007229939E+02  0.89999484572E+02 0.  0.
         12    1    1    2    0    0 -0.90434701267E+00 -0.70581845773E+00  0.27963319457E+00  0.11807700615E+01  0.00000000000E+00 0. -1.
         11    1    3    3    0    0 -0.34060081016E+02 -0.11569669577E+02  0.16379065513E+02  0.39524930870E+02  0.51100000000E-03 0. -1.
        -11    1    3    3    0    0  0.50456701961E+01 -0.64412967321E+01  0.44964491094E+01  0.93363347291E+01  0.51100000000E-03 0.  1.
        -12    1    3    3    0    0  0.29918757833E+02  0.18716784767E+02 -0.21155147817E+02  0.41145964339E+02  0.00000000000E+00 0.  1.
</event>
<event>
 7    1  0.2490895E-015  0.9000780E+02  0.7816164E-02  0.1186339E+00
        -11   -1    0    0    0    0  0.00000000000E+00  0.00000000000E+00  0.45593999997E+02  0.45594000000E+02  0.51100000000E-03 0.  1.
         11   -1    0    0    0    0 -0.00000000000E+00 -0.00000000000E+00 -0.45593999997E+02  0.45594000000E+02  0.51100000000E-03 0. -1.
    9900012    2    1    2    0    0 -0.77480566340E+00 -0.52270810497E+00  0.72063683005E+00  0.90007802974E+02  0.90000065173E+02 0.  0.
         12    1    1    2    0    0  0.77480566340E+00  0.52270810497E+00 -0.72063683005E+00  0.11801970259E+01  0.00000000000E+00 0. -1.
         11    1    3    3    0    0 -0.31741158836E+00  0.31179343274E+02 -0.54951821963E+01  0.31661478562E+02  0.51100000000E-03 0. -1.
        -11    1    3    3    0    0 -0.12783133331E+02 -0.11574715312E+02 -0.17723761169E+02  0.24728814014E+02  0.51100000000E-03 0.  1.
        -12    1    3    3    0    0  0.12325739256E+02 -0.20127336067E+02  0.23939580196E+02  0.33617510397E+02  0.00000000000E+00 0.  1.
</event>
<event>
 7    1  0.2490895E-015  0.9000743E+02  0.7816164E-02  0.1186340E+00
        -11   -1    0    0    0    0  0.00000000000E+00  0.00000000000E+00  0.45593999997E+02  0.45594000000E+02  0.51100000000E-03 0.  1.
         11   -1    0    0    0    0 -0.00000000000E+00 -0.00000000000E+00 -0.45593999997E+02  0.45594000000E+02  0.51100000000E-03 0. -1.
    9900012    2    1    2    0    0 -0.80193331132E-02  0.11543316000E+01  0.24738369674E+00  0.90007430457E+02  0.89999687738E+02 0.  0.
         12    1    1    2    0    0  0.80193331132E-02 -0.11543316000E+01 -0.24738369674E+00  0.11805695430E+01  0.00000000000E+00 0. -1.
         11    1    3    3    0    0  0.88381624299E+00  0.14359171611E+01 -0.97072333232E+01  0.98525818087E+01  0.51100000000E-03 0. -1.
        -11    1    3    3    0    0  0.13327042040E+02 -0.36596300251E+02 -0.29938723960E+01  0.39062290176E+02  0.51100000000E-03 0.  1.
         12    1    3    3    0    0 -0.14218877616E+02  0.36314714690E+02  0.12948489416E+02  0.41092558473E+02  0.00000000000E+00 0. -1.
</event>
<event>
 7    1  0.2490895E-015  0.9000773E+02  0.7816164E-02  0.1186339E+00
        -11   -1    0    0    0    0  0.00000000000E+00  0.00000000000E+00  0.45593999997E+02  0.45594000000E+02  0.51100000000E-03 0. -1.
         11   -1    0    0    0    0 -0.00000000000E+00 -0.00000000000E+00 -0.45593999997E+02  0.45594000000E+02  0.51100000000E-03 0.  1.
    9900012    2    1    2    0    0 -0.17592223509E+00 -0.11563243592E+01  0.15811240577E+00  0.90007731306E+02  0.89999992560E+02 0.  0.
         12    1    1    2    0    0  0.17592223509E+00  0.11563243592E+01 -0.15811240577E+00  0.11802686937E+01  0.00000000000E+00 0. -1.
         11    1    3    3    0    0 -0.34679722748E+02 -0.10836957590E+02  0.20018678158E+02  0.41483373719E+02  0.51100000000E-03 0. -1.
        -11    1    3    3    0    0  0.81332638424E+01 -0.49417961438E+01  0.37480044405E+01  0.10228336493E+02  0.51100000000E-03 0.  1.
        -12    1    3    3    0    0  0.26370536671E+02  0.14622429375E+02 -0.23608570193E+02  0.38296021094E+02  0.00000000000E+00 0.  1.
</event>
<event>
 7    1  0.2490895E-015  0.9000772E+02  0.7816164E-02  0.1186339E+00
        -11   -1    0    0    0    0  0.00000000000E+00  0.00000000000E+00  0.45593999997E+02  0.45594000000E+02  0.51100000000E-03 0.  1.
         11   -1    0    0    0    0 -0.00000000000E+00 -0.00000000000E+00 -0.45593999997E+02  0.45594000000E+02  0.51100000000E-03 0. -1.
    9900012    2    1    2    0    0  0.11506835902E+01  0.12704873409E+00  0.22989112892E+00  0.90007718662E+02  0.89999979748E+02 0.  0.
         12    1    1    2    0    0 -0.11506835902E+01 -0.12704873409E+00 -0.22989112892E+00  0.11802813379E+01  0.00000000000E+00 0. -1.
         11    1    3    3    0    0  0.10216809950E+02 -0.41986737978E+01 -0.13137751654E+01  0.11123761624E+02  0.51100000000E-03 0. -1.
        -11    1    3    3    0    0  0.32103943250E+02 -0.64767558494E+00  0.14786490370E+02  0.35351420815E+02  0.51100000000E-03 0.  1.
         12    1    3    3    0    0 -0.41170069610E+02  0.49733981168E+01 -0.13242824076E+02  0.43532536224E+02  0.00000000000E+00 0. -1.
</event>
<event>
 7    1  0.2490895E-015  0.9000774E+02  0.7816164E-02  0.1186339E+00
        -11   -1    0    0    0    0  0.00000000000E+00  0.00000000000E+00  0.45593999997E+02  0.45594000000E+02  0.51100000000E-03 0.  1.
         11   -1    0    0    0    0 -0.00000000000E+00 -0.00000000000E+00 -0.45593999997E+02  0.45594000000E+02  0.51100000000E-03 0. -1.
    9900012    2    1    2    0    0 -0.13966771398E+00  0.30460664683E+00  0.11316926351E+01  0.90007737106E+02  0.89999998435E+02 0.  0.
         12    1    1    2    0    0  0.13966771398E+00 -0.30460664683E+00 -0.11316926351E+01  0.11802628944E+01  0.00000000000E+00 0. -1.
         11    1    3    3    0    0  0.35669861293E+02 -0.10978180718E+01 -0.21345517879E+02  0.41583354157E+02  0.51100000000E-03 0. -1.
        -11    1    3    3    0    0  0.13854126522E+00 -0.50201129034E+01  0.73409718906E+01  0.88944137415E+01  0.51100000000E-03 0.  1.
        -12    1    3    3    0    0 -0.35948070272E+02  0.64225376220E+01  0.15136238624E+02  0.39529969207E+02  0.00000000000E+00 0.  1.
</event>
<event>
 7    1  0.2490895E-015  0.9000773E+02  0.7816164E-02  0.1186339E+00
        -11   -1    0    0    0    0  0.00000000000E+00  0.00000000000E+00  0.45593999997E+02  0.45594000000E+02  0.51100000000E-03 0.  1.
         11   -1    0    0    0    0 -0.00000000000E+00 -0.00000000000E+00 -0.45593999997E+02  0.45594000000E+02  0.51100000000E-03 0. -1.
    9900012    2    1    2    0    0 -0.94912011533E+00  0.22474190990E-01  0.70121920086E+00  0.90007727807E+02  0.89999989014E+02 0.  0.
         12    1    1    2    0    0  0.94912011533E+00 -0.22474190990E-01 -0.70121920086E+00  0.11802721933E+01  0.00000000000E+00 0. -1.
         11    1    3    3    0    0  0.79125597849E+01 -0.18612790379E+02 -0.81921002644E+01  0.21820977866E+02  0.51100000000E-03 0. -1.
        -11    1    3    3    0    0 -0.34233309970E+02 -0.26727730101E+01  0.66747214225E+01  0.34980210597E+02  0.51100000000E-03 0.  1.
         12    1    3    3    0    0  0.25371630070E+02  0.21308037580E+02  0.22185980428E+01  0.33206539344E+02  0.00000000000E+00 0. -1.
</event>
<event>
 7    1  0.2490895E-015  0.9000793E+02  0.7816164E-02  0.1186339E+00
        -11   -1    0    0    0    0  0.00000000000E+00  0.00000000000E+00  0.45593999997E+02  0.45594000000E+02  0.51100000000E-03 0. -1.
         11   -1    0    0    0    0 -0.00000000000E+00 -0.00000000000E+00 -0.45593999997E+02  0.45594000000E+02  0.51100000000E-03 0.  1.
    9900012    2    1    2    0    0 -0.60561262275E-01  0.10706723504E+01 -0.49249127036E+00  0.90007934493E+02  0.90000198429E+02 0.  0.
         12    1    1    2    0    0  0.60561262275E-01 -0.10706723504E+01  0.49249127036E+00  0.11800655065E+01  0.00000000000E+00 0. -1.
         11    1    3    3    0    0 -0.22005643265E+02 -0.79149405162E+01  0.17948510758E+02  0.29479546427E+02  0.51100000000E-03 0. -1.
        -11    1    3    3    0    0  0.83060292648E+01 -0.16572684273E+02  0.90163373742E+01  0.20614032262E+02  0.51100000000E-03 0.  1.
        -12    1    3    3    0    0  0.13639052738E+02  0.25558297140E+02 -0.27457339402E+02  0.39914355805E+02  0.00000000000E+00 0.  1.
</event>
<event>
 7    1  0.2967737E-015  0.9000778E+02  0.7816164E-02  0.1186339E+00
        -11   -1    0    0    0    0  0.00000000000E+00  0.00000000000E+00  0.45593999997E+02  0.45594000000E+02  0.51100000000E-03 0.  1.
         11   -1    0    0    0    0 -0.00000000000E+00 -0.00000000000E+00 -0.45593999997E+02  0.45594000000E+02  0.51100000000E-03 0. -1.
    9900012    2    1    2    0    0  0.69990940138E+00  0.73642122186E+00  0.60059836463E+00  0.90007784858E+02  0.90000046818E+02 0.  0.
         12    1    1    2    0    0 -0.69990940138E+00 -0.73642122186E+00 -0.60059836463E+00  0.11802151421E+01  0.00000000000E+00 0. -1.
         11    1    3    3    0    0  0.20517151363E+01  0.23185346806E+02 -0.32410734981E+02  0.39902701460E+02  0.51100000000E-03 0. -1.
        -11    1    3    3    0    0  0.99208602158E+01  0.90552105035E+00  0.29201745825E+01  0.10381274279E+02  0.51100000000E-03 0.  1.
        -12    1    3    3    0    0 -0.11272665951E+02 -0.23354446634E+02  0.30091158764E+02  0.39723809119E+02  0.00000000000E+00 0.  1.
</event>
<event>
 7    1  0.2490895E-015  0.9000782E+02  0.7816164E-02  0.1186339E+00
        -11   -1    0    0    0    0  0.00000000000E+00  0.00000000000E+00  0.45593999997E+02  0.45594000000E+02  0.51100000000E-03 0. -1.
         11   -1    0    0    0    0 -0.00000000000E+00 -0.00000000000E+00 -0.45593999997E+02  0.45594000000E+02  0.51100000000E-03 0.  1.
    9900012    2    1    2    0    0 -0.10445831551E+01 -0.16758580808E+00  0.52305281301E+00  0.90007820685E+02  0.90000083118E+02 0.  0.
         12    1    1    2    0    0  0.10445831551E+01  0.16758580808E+00 -0.52305281301E+00  0.11801793152E+01  0.00000000000E+00 0. -1.
         11    1    3    3    0    0  0.11766400402E+02  0.75173756184E+01  0.34146315873E+02  0.36890784792E+02  0.51100000000E-03 0. -1.
        -11    1    3    3    0    0  0.81001150856E+01 -0.34986359164E+01  0.41413384392E+01  0.97469483432E+01  0.51100000000E-03 0.  1.
        -12    1    3    3    0    0 -0.20911098643E+02 -0.41863255101E+01 -0.37764601499E+02  0.43370087550E+02  0.00000000000E+00 0.  1.
</event>
<event>
 7    1  0.2490895E-015  0.9000780E+02  0.7816164E-02  0.1186339E+00
        -11   -1    0    0    0    0  0.00000000000E+00  0.00000000000E+00  0.45593999997E+02  0.45594000000E+02  0.51100000000E-03 0.  1.
         11   -1    0    0    0    0 -0.00000000000E+00 -0.00000000000E+00 -0.45593999997E+02  0.45594000000E+02  0.51100000000E-03 0. -1.
    9900012    2    1    2    0    0 -0.94879070295E+00 -0.56986904695E+00  0.40977904457E+00  0.90007799426E+02  0.90000061579E+02 0.  0.
         12    1    1    2    0    0  0.94879070295E+00  0.56986904695E+00 -0.40977904457E+00  0.11802005737E+01  0.00000000000E+00 0. -1.
         11    1    3    3    0    0  0.95928453530E+01  0.32309358502E+02 -0.24421682068E+02  0.41621339287E+02  0.51100000000E-03 0. -1.
        -11    1    3    3    0    0 -0.37314637388E+01 -0.95876017857E+01 -0.36978215472E+01  0.10932511792E+02  0.51100000000E-03 0.  1.
        -12    1    3    3    0    0 -0.68101723171E+01 -0.23291625764E+02  0.28529282659E+02  0.37453948347E+02  0.00000000000E+00 0.  1.
</event>
<event>
 7    1  0.2490895E-015  0.9000767E+02  0.7816164E-02  0.1186339E+00
        -11   -1    0    0    0    0  0.00000000000E+00  0.00000000000E+00  0.45593999997E+02  0.45594000000E+02  0.51100000000E-03 0. -1.
         11   -1    0    0    0    0 -0.00000000000E+00 -0.00000000000E+00 -0.45593999997E+02  0.45594000000E+02  0.51100000000E-03 0.  1.
    9900012    2    1    2    0    0 -0.97122298938E+00  0.38369765664E+00 -0.55016394276E+00  0.90007670236E+02  0.89999930684E+02 0.  0.
         12    1    1    2    0    0  0.97122298938E+00 -0.38369765664E+00  0.55016394276E+00  0.11803297636E+01  0.00000000000E+00 0. -1.
         11    1    3    3    0    0 -0.24545455687E+02  0.98111944256E+01  0.10150449139E+02  0.28315553128E+02  0.51100000000E-03 0. -1.
        -11    1    3    3    0    0  0.45939557252E+01  0.17394592452E+02  0.12114490231E+02  0.21689563149E+02  0.51100000000E-03 0.  1.
         12    1    3    3    0    0  0.18980276973E+02 -0.26822089221E+02 -0.22815103312E+02  0.40002553960E+02  0.00000000000E+00 0. -1.
</event>
<event>
 7    1  0.2490895E-015  0.9000811E+02  0.7816164E-02  0.1186338E+00
        -11   -1    0    0    0    0  0.00000000000E+00  0.00000000000E+00  0.45593999997E+02  0.45594000000E+02  0.51100000000E-03 0. -1.
         11   -1    0    0    0    0 -0.00000000000E+00 -0.00000000000E+00 -0.45593999997E+02  0.45594000000E+02  0.51100000000E-03 0.  1.
    9900012    2    1    2    0    0  0.36893209065E+00 -0.88633502540E+00 -0.68589204561E+00  0.90008106546E+02  0.90000372752E+02 0.  0.
         12    1    1    2    0    0 -0.36893209065E+00  0.88633502540E+00  0.68589204561E+00  0.11798934541E+01  0.00000000000E+00 0. -1.
         11    1    3    3    0    0  0.24453483860E+01  0.81382791231E+00  0.10960325389E+02  0.11259252972E+02  0.51100000000E-03 0. -1.
        -11    1    3    3    0    0  0.37071719652E+02 -0.65149513684E+01 -0.11317099487E+02  0.39304372916E+02  0.51100000000E-03 0.  1.
         12    1    3    3    0    0 -0.39148135947E+02  0.48147884307E+01 -0.32911794767E+00  0.39444480658E+02  0.00000000000E+00 0. -1.
</event>
<event>
 7    1  0.2490895E-015  0.9000778E+02  0.7816164E-02  0.1186339E+00
        -11   -1    0    0    0    0  0.00000000000E+00  0.00000000000E+00  0.45593999997E+02  0.45594000000E+02  0.51100000000E-03 0.  1.
         11   -1    0    0    0    0 -0.00000000000E+00 -0.00000000000E+00 -0.45593999997E+02  0.45594000000E+02  0.51100000000E-03 0. -1.
    9900012    2    1    2    0    0 -0.53019961875E+00 -0.99155447103E+00  0.35863274444E+00  0.90007784193E+02  0.90000046145E+02 0.  0.
         12    1    1    2    0    0  0.53019961875E+00  0.99155447103E+00 -0.35863274444E+00  0.11802158066E+01  0.00000000000E+00 0. -1.
         11    1    3    3    0    0  0.46201791669E+01  0.56305745533E+01  0.34624696284E+01  0.80646215982E+01  0.51100000000E-03 0. -1.
        -11    1    3    3    0    0 -0.12486468623E+02  0.16455499606E+02  0.32724637508E+02  0.38698801870E+02  0.51100000000E-03 0.  1.
         12    1    3    3    0    0  0.73360898373E+01 -0.23077628630E+02 -0.35828474391E+02  0.43244360725E+02  0.00000000000E+00 0. -1.
</event>
<event>
 7    1  0.2490895E-015  0.9000774E+02  0.7816164E-02  0.1186339E+00
        -11   -1    0    0    0    0  0.00000000000E+00  0.00000000000E+00  0.45593999997E+02  0.45594000000E+02  0.51100000000E-03 0.  1.
         11   -1    0    0    0    0 -0.00000000000E+00 -0.00000000000E+00 -0.45593999997E+02  0.45594000000E+02  0.51100000000E-03 0. -1.
    9900012    2    1    2    0    0  0.37812775144E-01  0.11747928510E+01  0.10697029890E+00  0.90007741260E+02  0.90000002645E+02 0.  0.
         12    1    1    2    0    0 -0.37812775144E-01 -0.11747928510E+01 -0.10697029890E+00  0.11802587401E+01  0.00000000000E+00 0. -1.
         11    1    3    3    0    0 -0.72028843562E+01  0.29522110609E+02 -0.29965074044E+02  0.42677186184E+02  0.51100000000E-03 0. -1.
        -11    1    3    3    0    0 -0.69040053154E+01 -0.53685004953E+01  0.33807736995E+01  0.93763381995E+01  0.51100000000E-03 0.  1.
        -12    1    3    3    0    0  0.14144702447E+02 -0.22978817263E+02  0.26691270644E+02  0.37954216876E+02  0.00000000000E+00 0.  1.
</event>
<event>
 7    1  0.2490895E-015  0.9000757E+02  0.7816164E-02  0.1186339E+00
        -11   -1    0    0    0    0  0.00000000000E+00  0.00000000000E+00  0.45593999997E+02  0.45594000000E+02  0.51100000000E-03 0. -1.
         11   -1    0    0    0    0 -0.00000000000E+00 -0.00000000000E+00 -0.45593999997E+02  0.45594000000E+02  0.51100000000E-03 0.  1.
    9900012    2    1    2    0    0 -0.36418655271E-01  0.11790640294E+01 -0.43531955579E-01  0.90007570699E+02  0.89999829832E+02 0.  0.
         12    1    1    2    0    0  0.36418655271E-01 -0.11790640294E+01  0.43531955579E-01  0.11804293011E+01  0.00000000000E+00 0. -1.
         11    1    3    3    0    0  0.69094009712E+01 -0.16553094096E+02  0.30292329016E+02  0.35204686384E+02  0.51100000000E-03 0. -1.
        -11    1    3    3    0    0  0.43936555292E+01 -0.48969788091E+01  0.70574745564E+01  0.96484484629E+01  0.51100000000E-03 0.  1.
        -12    1    3    3    0    0 -0.11339475156E+02  0.22629136935E+02 -0.37393335528E+02  0.45154435852E+02  0.00000000000E+00 0.  1.
</event>
<event>
 7    1  0.2490895E-015  0.9000784E+02  0.7816164E-02  0.1186339E+00
        -11   -1    0    0    0    0  0.00000000000E+00  0.00000000000E+00  0.45593999997E+02  0.45594000000E+02  0.51100000000E-03 0. -1.
         11   -1    0    0    0    0 -0.00000000000E+00 -0.00000000000E+00 -0.45593999997E+02  0.45594000000E+02  0.51100000000E-03 0.  1.
    9900012    2    1    2    0    0  0.51911260917E+00 -0.89114347937E+00 -0.57371769518E+00  0.90007844673E+02  0.90000107423E+02 0.  0.
         12    1    1    2    0    0 -0.51911260917E+00  0.89114347937E+00  0.57371769518E+00  0.11801553269E+01  0.00000000000E+00 0. -1.
         11    1    3    3    0    0  0.48512986916E+01  0.34378441292E+02  0.55597485553E+01  0.35161386903E+02  0.51100000000E-03 0. -1.
        -11    1    3    3    0    0 -0.80864107677E+00  0.94987661646E+01 -0.20774696727E+01  0.97568611522E+01  0.51100000000E-03 0.  1.
        -12    1    3    3    0    0 -0.35235450056E+01 -0.44768350936E+02 -0.40559965778E+01  0.45089596618E+02  0.00000000000E+00 0.  1.
</event>
<event>
 7    1  0.2490895E-015  0.9000773E+02  0.7816164E-02  0.1186339E+00
        -11   -1    0    0    0    0  0.00000000000E+00  0.00000000000E+00  0.45593999997E+02  0.45594000000E+02  0.51100000000E-03 0.  1.
         11   -1    0    0    0    0 -0.00000000000E+00 -0.00000000000E+00 -0.45593999997E+02  0.45594000000E+02  0.51100000000E-03 0. -1.
    9900012    2    1    2    0    0  0.51992342267E+00  0.10100962336E+01  0.32003345550E+00  0.90007730463E+02  0.89999991705E+02 0.  0.
         12    1    1    2    0    0 -0.51992342267E+00 -0.10100962336E+01 -0.32003345550E+00  0.11802695367E+01  0.00000000000E+00 0. -1.
         11    1    3    3    0    0 -0.19688115068E+02  0.27096868915E+02  0.41678373998E+01  0.33752526554E+02  0.51100000000E-03 0. -1.
        -11    1    3    3    0    0 -0.77604861580E+01  0.59436121339E+01 -0.91671298227E+01  0.13401042499E+02  0.51100000000E-03 0.  1.
        -12    1    3    3    0    0  0.27968524649E+02 -0.32030384815E+02  0.53193258784E+01  0.42854161411E+02  0.00000000000E+00 0.  1.
</event>
<event>
 7    1  0.2490895E-015  0.9000773E+02  0.7816164E-02  0.1186339E+00
        -11   -1    0    0    0    0  0.00000000000E+00  0.00000000000E+00  0.45593999997E+02  0.45594000000E+02  0.51100000000E-03 0.  1.
         11   -1    0    0    0    0 -0.00000000000E+00 -0.00000000000E+00 -0.45593999997E+02  0.45594000000E+02  0.51100000000E-03 0. -1.
    9900012    2    1    2    0    0  0.16827107219E-01  0.10988269367E+01 -0.43051079458E+00  0.90007727433E+02  0.89999988635E+02 0.  0.
         12    1    1    2    0    0 -0.16827107219E-01 -0.10988269367E+01  0.43051079458E+00  0.11802725671E+01  0.00000000000E+00 0. -1.
         11    1    3    3    0    0 -0.49937955990E+01 -0.73030552683E+01 -0.86538062998E+01  0.12375822174E+02  0.51100000000E-03 0. -1.
        -11    1    3    3    0    0  0.28263429571E+02 -0.23967167267E+02  0.72784746158E+01  0.37765364435E+02  0.51100000000E-03 0.  1.
         12    1    3    3    0    0 -0.23252806865E+02  0.32369049472E+02  0.94482088944E+00  0.39866540824E+02  0.00000000000E+00 0. -1.
</event>
<event>
 7    1  0.2490895E-015  0.9000782E+02  0.7816164E-02  0.1186339E+00
        -11   -1    0    0    0    0  0.00000000000E+00  0.00000000000E+00  0.45593999997E+02  0.45594000000E+02  0.51100000000E-03 0. -1.
         11   -1    0    0    0    0 -0.00000000000E+00 -0.00000000000E+00 -0.45593999997E+02  0.45594000000E+02  0.51100000000E-03 0.  1.
    9900012    2    1    2    0    0  0.39776486687E+00  0.95127085848E+00 -0.57417969079E+00  0.90007823974E+02  0.90000086450E+02 0.  0.
         12    1    1    2    0    0 -0.39776486687E+00 -0.95127085848E+00  0.57417969079E+00  0.11801760262E+01  0.00000000000E+00 0. -1.
         11    1    3    3    0    0 -0.54858630251E+01  0.24502528153E+01  0.83028293553E+01  0.10248678332E+02  0.51100000000E-03 0. -1.
        -11    1    3    3    0    0  0.39173842911E+02 -0.16778363418E+02 -0.56362563882E+01  0.42986868154E+02  0.51100000000E-03 0.  1.
         12    1    3    3    0    0 -0.33290215019E+02  0.15279381461E+02 -0.32407526578E+01  0.36772277487E+02  0.00000000000E+00 0. -1.
</event>
<event>
 7    1  0.2490895E-015  0.9000771E+02  0.7816164E-02  0.1186339E+00
        -11   -1    0    0    0    0  0.00000000000E+00  0.00000000000E+00  0.45593999997E+02  0.45594000000E+02  0.51100000000E-03 0.  1.
         11   -1    0    0    0    0 -0.00000000000E+00 -0.00000000000E+00 -0.45593999997E+02  0.45594000000E+02  0.51100000000E-03 0. -1.
    9900012    2    1    2    0    0 -0.80793002766E+00 -0.43990410414E+00 -0.73947904546E+00  0.90007705202E+02  0.89999966111E+02 0.  0.
         12    1    1    2    0    0  0.80793002766E+00  0.43990410414E+00  0.73947904546E+00  0.11802947975E+01  0.00000000000E+00 0. -1.
         11    1    3    3    0    0  0.57295531844E+01  0.29554163446E+01 -0.96904355107E+01  0.11639020840E+02  0.51100000000E-03 0. -1.
        -11    1    3    3    0    0 -0.32118620911E+02 -0.97975230818E+01 -0.20098800018E+02  0.39135138050E+02  0.51100000000E-03 0.  1.
         12    1    3    3    0    0  0.25581137699E+02  0.64022026331E+01  0.29049756483E+02  0.39233546313E+02  0.00000000000E+00 0. -1.
</event>
<event>
 7    1  0.2490895E-015  0.9000772E+02  0.7816164E-02  0.1186339E+00
        -11   -1    0    0    0    0  0.00000000000E+00  0.00000000000E+00  0.45593999997E+02  0.45594000000E+02  0.51100000000E-03 0.  1.
         11   -1    0    0    0    0 -0.00000000000E+00 -0.00000000000E+00 -0.45593999997E+02  0.45594000000E+02  0.51100000000E-03 0. -1.
    9900012    2    1    2    0    0  0.16248440470E+00 -0.46768574800E+00  0.10714140813E+01  0.90007720680E+02  0.89999981793E+02 0.  0.
         12    1    1    2    0    0 -0.16248440470E+00  0.46768574800E+00 -0.10714140813E+01  0.11802793204E+01  0.00000000000E+00 0. -1.
         11    1    3    3    0    0 -0.22803569105E+02 -0.21704674292E+02 -0.24631621599E+02  0.39972646059E+02  0.51100000000E-03 0. -1.
        -11    1    3    3    0    0  0.27988332331E+01 -0.56912392005E+01  0.12264791643E+02  0.13807562617E+02  0.51100000000E-03 0.  1.
        -12    1    3    3    0    0  0.20167220277E+02  0.26928227745E+02  0.13438244037E+02  0.36227512004E+02  0.00000000000E+00 0.  1.
</event>
<event>
 7    1  0.2490895E-015  0.9000782E+02  0.7816164E-02  0.1186339E+00
        -11   -1    0    0    0    0  0.00000000000E+00  0.00000000000E+00  0.45593999997E+02  0.45594000000E+02  0.51100000000E-03 0.  1.
         11   -1    0    0    0    0 -0.00000000000E+00 -0.00000000000E+00 -0.45593999997E+02  0.45594000000E+02  0.51100000000E-03 0. -1.
    9900012    2    1    2    0    0  0.10638693694E+00 -0.54972430584E+00  0.10388947841E+01  0.90007823164E+02  0.90000085629E+02 0.  0.
         12    1    1    2    0    0 -0.10638693694E+00  0.54972430584E+00 -0.10388947841E+01  0.11801768365E+01  0.00000000000E+00 0. -1.
         11    1    3    3    0    0  0.28366328184E+02 -0.38478725466E+01  0.20001610589E+02  0.34921613998E+02  0.51100000000E-03 0. -1.
        -11    1    3    3    0    0  0.49490553960E+01  0.39959496667E+00  0.98461870469E+01  0.11027249207E+02  0.51100000000E-03 0.  1.
        -12    1    3    3    0    0 -0.33208996643E+02  0.28985532740E+01 -0.28808902852E+02  0.44058959959E+02  0.00000000000E+00 0.  1.
</event>
<event>
 7    1  0.2490895E-015  0.9000761E+02  0.7816164E-02  0.1186339E+00
        -11   -1    0    0    0    0  0.00000000000E+00  0.00000000000E+00  0.45593999997E+02  0.45594000000E+02  0.51100000000E-03 0.  1.
         11   -1    0    0    0    0 -0.00000000000E+00 -0.00000000000E+00 -0.45593999997E+02  0.45594000000E+02  0.51100000000E-03 0. -1.
    9900012    2    1    2    0    0  0.77530699077E+00  0.72382928922E+00 -0.51795928317E+00  0.90007613797E+02  0.89999873499E+02 0.  0.
         12    1    1    2    0    0 -0.77530699077E+00 -0.72382928922E+00  0.51795928317E+00  0.11803862033E+01  0.00000000000E+00 0. -1.
         11    1    3    3    0    0 -0.49351125782E+01 -0.75150924349E+01 -0.79981499018E+00  0.90261650076E+01  0.51100000000E-03 0. -1.
        -11    1    3    3    0    0  0.18605531339E+01 -0.25631476269E+02  0.27293529955E+02  0.37488278320E+02  0.51100000000E-03 0.  1.
         12    1    3    3    0    0  0.38498664350E+01  0.33870397994E+02 -0.27011674248E+02  0.43493170469E+02  0.00000000000E+00 0. -1.
</event>
<event>
 7    1  0.2490895E-015  0.9000777E+02  0.7816164E-02  0.1186339E+00
        -11   -1    0    0    0    0  0.00000000000E+00  0.00000000000E+00  0.45593999997E+02  0.45594000000E+02  0.51100000000E-03 0.  1.
         11   -1    0    0    0    0 -0.00000000000E+00 -0.00000000000E+00 -0.45593999997E+02  0.45594000000E+02  0.51100000000E-03 0. -1.
    9900012    2    1    2    0    0  0.75669959934E+00 -0.85171484999E+00  0.30809811494E+00  0.90007772514E+02  0.90000034312E+02 0.  0.
         12    1    1    2    0    0 -0.75669959934E+00  0.85171484999E+00 -0.30809811494E+00  0.11802274856E+01  0.00000000000E+00 0. -1.
         11    1    3    3    0    0  0.17524072531E+02 -0.10065947609E+02  0.25920228116E+00  0.20210977349E+02  0.51100000000E-03 0. -1.
        -11    1    3    3    0    0  0.11971632546E+02  0.51750930830E+00  0.26942862406E+02  0.29487380972E+02  0.51100000000E-03 0.  1.
         12    1    3    3    0    0 -0.28739005478E+02  0.86967234506E+01 -0.26893966572E+02  0.40309414193E+02  0.00000000000E+00 0. -1.
</event>
<event>
 7    1  0.2490895E-015  0.9000774E+02  0.7816164E-02  0.1186339E+00
        -11   -1    0    0    0    0  0.00000000000E+00  0.00000000000E+00  0.45593999997E+02  0.45594000000E+02  0.51100000000E-03 0.  1.
         11   -1    0    0    0    0 -0.00000000000E+00 -0.00000000000E+00 -0.45593999997E+02  0.45594000000E+02  0.51100000000E-03 0. -1.
    9900012    2    1    2    0    0 -0.51079970397E+00 -0.70335484516E+00  0.79837101999E+00  0.90007737037E+02  0.89999998366E+02 0.  0.
         12    1    1    2    0    0  0.51079970397E+00  0.70335484516E+00 -0.79837101999E+00  0.11802629628E+01  0.00000000000E+00 0. -1.
         11    1    3    3    0    0  0.19554985637E+01  0.22915657704E+01  0.15213635470E+02  0.15509028106E+02  0.51100000000E-03 0. -1.
        -11    1    3    3    0    0  0.62044247681E+01  0.44622940743E+01  0.28799500095E+02  0.29796277638E+02  0.51100000000E-03 0.  1.
         12    1    3    3    0    0 -0.86707230357E+01 -0.74572146899E+01 -0.43214764545E+02  0.44702431293E+02  0.00000000000E+00 0. -1.
</event>
<event>
 7    1  0.2490895E-015  0.9000781E+02  0.7816164E-02  0.1186339E+00
        -11   -1    0    0    0    0  0.00000000000E+00  0.00000000000E+00  0.45593999997E+02  0.45594000000E+02  0.51100000000E-03 0.  1.
         11   -1    0    0    0    0 -0.00000000000E+00 -0.00000000000E+00 -0.45593999997E+02  0.45594000000E+02  0.51100000000E-03 0. -1.
    9900012    2    1    2    0    0 -0.83320251088E+00  0.14192130052E+00  0.82370214438E+00  0.90007807938E+02  0.90000070203E+02 0.  0.
         12    1    1    2    0    0  0.83320251088E+00 -0.14192130052E+00 -0.82370214438E+00  0.11801920616E+01  0.00000000000E+00 0. -1.
         11    1    3    3    0    0 -0.98875549169E+01 -0.20567878020E+01 -0.31634202568E+02  0.33207181312E+02  0.51100000000E-03 0. -1.
        -11    1    3    3    0    0 -0.21172699531E+01 -0.31135378660E+01 -0.10994672000E+02  0.11621521534E+02  0.51100000000E-03 0.  1.
        -12    1    3    3    0    0  0.11171622359E+02  0.53122469685E+01  0.43452576713E+02  0.45179105093E+02  0.00000000000E+00 0.  1.
</event>
<event>
 7    1  0.2490895E-015  0.9000772E+02  0.7816164E-02  0.1186339E+00
        -11   -1    0    0    0    0  0.00000000000E+00  0.00000000000E+00  0.45593999997E+02  0.45594000000E+02  0.51100000000E-03 0. -1.
         11   -1    0    0    0    0 -0.00000000000E+00 -0.00000000000E+00 -0.45593999997E+02  0.45594000000E+02  0.51100000000E-03 0.  1.
    9900012    2    1    2    0    0  0.23835233294E+00  0.35847829762E+00 -0.10989734208E+01  0.90007719904E+02  0.89999981007E+02 0.  0.
         12    1    1    2    0    0 -0.23835233294E+00 -0.35847829762E+00  0.10989734208E+01  0.11802800956E+01  0.00000000000E+00 0. -1.
         11    1    3    3    0    0 -0.92338614003E+01 -0.23295325106E+02 -0.76024291971E+01  0.26186509850E+02  0.51100000000E-03 0. -1.
        -11    1    3    3    0    0  0.53268150475E+01 -0.19432894479E+02  0.32884608975E+01  0.20416324883E+02  0.51100000000E-03 0.  1.
        -12    1    3    3    0    0  0.41453986857E+01  0.43086697883E+02  0.32149948789E+01  0.43404885172E+02  0.00000000000E+00 0.  1.
</event>
<event>
 7    1  0.2490895E-015  0.9000771E+02  0.7816164E-02  0.1186339E+00
        -11   -1    0    0    0    0  0.00000000000E+00  0.00000000000E+00  0.45593999997E+02  0.45594000000E+02  0.51100000000E-03 0. -1.
         11   -1    0    0    0    0 -0.00000000000E+00 -0.00000000000E+00 -0.45593999997E+02  0.45594000000E+02  0.51100000000E-03 0.  1.
    9900012    2    1    2    0    0 -0.10551547032E+01  0.38449732960E+00 -0.36318431091E+00  0.90007706609E+02  0.89999967537E+02 0.  0.
         12    1    1    2    0    0  0.10551547032E+01 -0.38449732960E+00  0.36318431091E+00  0.11802933906E+01  0.00000000000E+00 0. -1.
         11    1    3    3    0    0 -0.15039481392E+02 -0.33857573876E+02 -0.13689848666E+02  0.39495990506E+02  0.51100000000E-03 0. -1.
        -11    1    3    3    0    0  0.94203783130E+01 -0.12327358547E+01 -0.45407357459E+01  0.10530025955E+02  0.51100000000E-03 0.  1.
        -12    1    3    3    0    0  0.45639483756E+01  0.35474807060E+02  0.17867400100E+02  0.39981690148E+02  0.00000000000E+00 0.  1.
</event>
<event>
 8    1  0.2490895E-015  0.9000772E+02  0.7816164E-02  0.1186339E+00
        -11   -1    0    0    0    0  0.00000000000E+00  0.00000000000E+00  0.45593999997E+02  0.45594000000E+02  0.51100000000E-03 0.  1.
         11   -1    0    0    0    0 -0.00000000000E+00 -0.00000000000E+00 -0.45593999997E+02  0.45594000000E+02  0.51100000000E-03 0. -1.
    9900012    2    1    2    0    0  0.67110465298E-01  0.98006107433E+00  0.65424853935E+00  0.90007718392E+02  0.89999979474E+02 0.  0.
         23    2    3    3    0    0  0.23988343926E+02 -0.12709638024E+02  0.66585770163E+01  0.61799825309E+02  0.55117204368E+02 0.  0.
         12    1    1    2    0    0 -0.67110465298E-01 -0.98006107433E+00 -0.65424853935E+00  0.11802816084E+01  0.00000000000E+00 0. -1.
         11    1    4    4    0    0 -0.48127515052E+01 -0.18230686479E+02  0.21777899903E+02  0.28806204730E+02  0.51100000000E-03 0. -1.
        -11    1    4    4    0    0  0.28801095431E+02  0.55210484543E+01 -0.15119322886E+02  0.32993620579E+02  0.51100000000E-03 0.  1.
        -12    1    3    3    0    0 -0.23921233461E+02  0.13689699099E+02 -0.60043284769E+01  0.28207893083E+02  0.00000000000E+00 0.  1.
</event>
<event>
 7    1  0.2490895E-015  0.9000763E+02  0.7816164E-02  0.1186339E+00
        -11   -1    0    0    0    0  0.00000000000E+00  0.00000000000E+00  0.45593999997E+02  0.45594000000E+02  0.51100000000E-03 0. -1.
         11   -1    0    0    0    0 -0.00000000000E+00 -0.00000000000E+00 -0.45593999997E+02  0.45594000000E+02  0.51100000000E-03 0.  1.
    9900012    2    1    2    0    0  0.29974864278E+00 -0.10983990524E+01 -0.31137120998E+00  0.90007626433E+02  0.89999886302E+02 0.  0.
         12    1    1    2    0    0 -0.29974864278E+00  0.10983990524E+01  0.31137120998E+00  0.11803735669E+01  0.00000000000E+00 0. -1.
         11    1    3    3    0    0 -0.34675859506E+02  0.23011114285E+02  0.88423951723E+01  0.42545441186E+02  0.51100000000E-03 0. -1.
        -11    1    3    3    0    0  0.72817586775E+01 -0.21652932852E+01  0.53243594563E+01  0.92769234301E+01  0.51100000000E-03 0.  1.
        -12    1    3    3    0    0  0.27693849471E+02 -0.21944220052E+02 -0.14478125839E+02  0.38185261817E+02  0.00000000000E+00 0.  1.
</event>
<event>
 7    1  0.2490895E-015  0.9000801E+02  0.7816164E-02  0.1186338E+00
        -11   -1    0    0    0    0  0.00000000000E+00  0.00000000000E+00  0.45593999997E+02  0.45594000000E+02  0.51100000000E-03 0. -1.
         11   -1    0    0    0    0 -0.00000000000E+00 -0.00000000000E+00 -0.45593999997E+02  0.45594000000E+02  0.51100000000E-03 0.  1.
    9900012    2    1    2    0    0 -0.62368867341E+00  0.49447987217E+00 -0.87112974818E+00  0.90008014855E+02  0.90000279850E+02 0.  0.
         12    1    1    2    0    0  0.62368867341E+00 -0.49447987217E+00  0.87112974818E+00  0.11799851454E+01  0.00000000000E+00 0. -1.
         11    1    3    3    0    0  0.78339094873E+01  0.17837075429E+02  0.23392001245E+02  0.30442028845E+02  0.51100000000E-03 0. -1.
        -11    1    3    3    0    0 -0.60157243624E+01  0.16517150052E+02 -0.17784050081E+02  0.25005551843E+02  0.51100000000E-03 0.  1.
        -12    1    3    3    0    0 -0.24418737983E+01 -0.33859745608E+02 -0.64790809124E+01  0.34560434167E+02  0.00000000000E+00 0.  1.
</event>
<event>
 7    1  0.2490895E-015  0.9000780E+02  0.7816164E-02  0.1186339E+00
        -11   -1    0    0    0    0  0.00000000000E+00  0.00000000000E+00  0.45593999997E+02  0.45594000000E+02  0.51100000000E-03 0. -1.
         11   -1    0    0    0    0 -0.00000000000E+00 -0.00000000000E+00 -0.45593999997E+02  0.45594000000E+02  0.51100000000E-03 0.  1.
    9900012    2    1    2    0    0 -0.76395571028E+00 -0.84595194188E+00 -0.30597446525E+00  0.90007795192E+02  0.90000057289E+02 0.  0.
         12    1    1    2    0    0  0.76395571028E+00  0.84595194188E+00  0.30597446525E+00  0.11802048079E+01  0.00000000000E+00 0. -1.
         11    1    3    3    0    0 -0.83126535107E+01  0.43612201991E+01 -0.29768530169E+01  0.98479492362E+01  0.51100000000E-03 0. -1.
        -11    1    3    3    0    0 -0.35970752916E+02  0.16810030838E+01 -0.12200457687E+00  0.36010216912E+02  0.51100000000E-03 0.  1.
         12    1    3    3    0    0  0.43519450716E+02 -0.68881752248E+01  0.27928831285E+01  0.44149629044E+02  0.00000000000E+00 0. -1.
</event>
<event>
 7    1  0.2490895E-015  0.9000778E+02  0.7816164E-02  0.1186339E+00
        -11   -1    0    0    0    0  0.00000000000E+00  0.00000000000E+00  0.45593999997E+02  0.45594000000E+02  0.51100000000E-03 0. -1.
         11   -1    0    0    0    0 -0.00000000000E+00 -0.00000000000E+00 -0.45593999997E+02  0.45594000000E+02  0.51100000000E-03 0.  1.
    9900012    2    1    2    0    0  0.10008015822E+01  0.55529781898E+00  0.28802255265E+00  0.90007781179E+02  0.90000043091E+02 0.  0.
         12    1    1    2    0    0 -0.10008015822E+01 -0.55529781898E+00 -0.28802255265E+00  0.11802188210E+01  0.00000000000E+00 0. -1.
         11    1    3    3    0    0  0.51078722709E+01  0.60567073518E+01  0.67315799562E+01  0.10396549045E+02  0.51100000000E-03 0. -1.
        -11    1    3    3    0    0  0.37220308069E+02 -0.65141813553E+01 -0.90726818477E-01  0.37786163117E+02  0.51100000000E-03 0.  1.
         12    1    3    3    0    0 -0.41327378758E+02  0.10127718225E+01 -0.63528305850E+01  0.41825069016E+02  0.00000000000E+00 0. -1.
</event>
<event>
 7    1  0.2490895E-015  0.9000781E+02  0.7816164E-02  0.1186339E+00
        -11   -1    0    0    0    0  0.00000000000E+00  0.00000000000E+00  0.45593999997E+02  0.45594000000E+02  0.51100000000E-03 0. -1.
         11   -1    0    0    0    0 -0.00000000000E+00 -0.00000000000E+00 -0.45593999997E+02  0.45594000000E+02  0.51100000000E-03 0.  1.
    9900012    2    1    2    0    0  0.56465907158E+00  0.58499440460E+00 -0.85544556460E+00  0.90007811272E+02  0.90000073580E+02 0.  0.
         12    1    1    2    0    0 -0.56465907158E+00 -0.58499440460E+00  0.85544556460E+00  0.11801887284E+01  0.00000000000E+00 0. -1.
         11    1    3    3    0    0  0.41989942916E+01 -0.21736395686E+01 -0.91972483408E+01  0.10341452477E+02  0.51100000000E-03 0. -1.
        -11    1    3    3    0    0  0.13785519986E+02 -0.29257810259E+02 -0.15751280277E+02  0.35974475021E+02  0.51100000000E-03 0.  1.
         12    1    3    3    0    0 -0.17419855206E+02  0.32016444232E+02  0.24093083053E+02  0.43691883773E+02  0.00000000000E+00 0. -1.
</event>
<event>
 7    1  0.2490895E-015  0.9000782E+02  0.7816164E-02  0.1186339E+00
        -11   -1    0    0    0    0  0.00000000000E+00  0.00000000000E+00  0.45593999997E+02  0.45594000000E+02  0.51100000000E-03 0. -1.
         11   -1    0    0    0    0 -0.00000000000E+00 -0.00000000000E+00 -0.45593999997E+02  0.45594000000E+02  0.51100000000E-03 0.  1.
    9900012    2    1    2    0    0 -0.94590482674E+00 -0.40856868478E+00 -0.57546869698E+00  0.90007818432E+02  0.90000080836E+02 0.  0.
         12    1    1    2    0    0  0.94590482674E+00  0.40856868478E+00  0.57546869698E+00  0.11801815677E+01  0.00000000000E+00 0. -1.
         11    1    3    3    0    0  0.30575040735E+01  0.31318491157E+02  0.26799374334E+02  0.41332828169E+02  0.51100000000E-03 0. -1.
        -11    1    3    3    0    0 -0.76826976570E+01 -0.29132713274E+01  0.73973232129E+00  0.82497392253E+01  0.51100000000E-03 0.  1.
        -12    1    3    3    0    0  0.36792887568E+01 -0.28813788514E+02 -0.28114575352E+02  0.40425251038E+02  0.00000000000E+00 0.  1.
</event>
<event>
 7    1  0.2490895E-015  0.9000748E+02  0.7816164E-02  0.1186340E+00
        -11   -1    0    0    0    0  0.00000000000E+00  0.00000000000E+00  0.45593999997E+02  0.45594000000E+02  0.51100000000E-03 0.  1.
         11   -1    0    0    0    0 -0.00000000000E+00 -0.00000000000E+00 -0.45593999997E+02  0.45594000000E+02  0.51100000000E-03 0. -1.
    9900012    2    1    2    0    0  0.18007252156E+00 -0.66860274582E+00  0.95612395723E+00  0.90007479451E+02  0.89999737379E+02 0.  0.
         12    1    1    2    0    0 -0.18007252156E+00  0.66860274582E+00 -0.95612395723E+00  0.11805205489E+01  0.00000000000E+00 0. -1.
         11    1    3    3    0    0  0.26225675262E+02  0.55947262549E+01 -0.27859521589E+02  0.38668332629E+02  0.51100000000E-03 0. -1.
        -11    1    3    3    0    0  0.20979527429E+01 -0.76349265740E+01 -0.33324048409E+01  0.85906013635E+01  0.51100000000E-03 0.  1.
        -12    1    3    3    0    0 -0.28143555484E+02  0.13715975733E+01  0.32148050387E+02  0.42748545459E+02  0.00000000000E+00 0.  1.
</event>
<event>
 7    1  0.2490895E-015  0.9000768E+02  0.7816164E-02  0.1186339E+00
        -11   -1    0    0    0    0  0.00000000000E+00  0.00000000000E+00  0.45593999997E+02  0.45594000000E+02  0.51100000000E-03 0.  1.
         11   -1    0    0    0    0 -0.00000000000E+00 -0.00000000000E+00 -0.45593999997E+02  0.45594000000E+02  0.51100000000E-03 0. -1.
    9900012    2    1    2    0    0 -0.10209491903E+01 -0.59113316167E+00 -0.37034261462E-01  0.90007683432E+02  0.89999944053E+02 0.  0.
         12    1    1    2    0    0  0.10209491903E+01  0.59113316167E+00  0.37034261462E-01  0.11803165679E+01  0.00000000000E+00 0. -1.
         11    1    3    3    0    0 -0.48412344919E+01  0.55534927960E+01  0.61774143005E+01  0.96145349000E+01  0.51100000000E-03 0. -1.
        -11    1    3    3    0    0  0.12559953838E+02 -0.37858012956E+01  0.35427720534E+02  0.37778408044E+02  0.51100000000E-03 0.  1.
         12    1    3    3    0    0 -0.87396685362E+01 -0.23588246621E+01 -0.41642169096E+02  0.42614740488E+02  0.00000000000E+00 0. -1.
</event>
<event>
 7    1  0.2490895E-015  0.9000764E+02  0.7816164E-02  0.1186339E+00
        -11   -1    0    0    0    0  0.00000000000E+00  0.00000000000E+00  0.45593999997E+02  0.45594000000E+02  0.51100000000E-03 0.  1.
         11   -1    0    0    0    0 -0.00000000000E+00 -0.00000000000E+00 -0.45593999997E+02  0.45594000000E+02  0.51100000000E-03 0. -1.
    9900012    2    1    2    0    0 -0.15642042194E+00  0.74544406481E+00 -0.90171756371E+00  0.90007640408E+02  0.89999900461E+02 0.  0.
         12    1    1    2    0    0  0.15642042194E+00 -0.74544406481E+00  0.90171756371E+00  0.11803595922E+01  0.00000000000E+00 0. -1.
         11    1    3    3    0    0  0.84006050488E+01 -0.10179622345E+00 -0.34859132084E+02  0.35857211514E+02  0.51100000000E-03 0. -1.
        -11    1    3    3    0    0 -0.46509463605E+00  0.29522784006E+01 -0.94674221066E+01  0.99279576138E+01  0.51100000000E-03 0.  1.
        -12    1    3    3    0    0 -0.80919308347E+01 -0.21050381123E+01  0.43424836627E+02  0.44222471280E+02  0.00000000000E+00 0.  1.
</event>
<event>
 7    1  0.2865438E-015  0.9000773E+02  0.7816164E-02  0.1186339E+00
        -11   -1    0    0    0    0  0.00000000000E+00  0.00000000000E+00  0.45593999997E+02  0.45594000000E+02  0.51100000000E-03 0. -1.
         11   -1    0    0    0    0 -0.00000000000E+00 -0.00000000000E+00 -0.45593999997E+02  0.45594000000E+02  0.51100000000E-03 0.  1.
    9900012    2    1    2    0    0 -0.63922566408E+00 -0.44371233140E+00 -0.88743664194E+00  0.90007731439E+02  0.89999992694E+02 0.  0.
         12    1    1    2    0    0  0.63922566408E+00  0.44371233140E+00  0.88743664194E+00  0.11802685610E+01  0.00000000000E+00 0. -1.
         11    1    3    3    0    0  0.34199644064E+02  0.79624873039E+01  0.15868696816E+02  0.38533523030E+02  0.51100000000E-03 0. -1.
        -11    1    3    3    0    0  0.39777838587E+01  0.52627018923E+01 -0.60507275262E+01  0.89515417382E+01  0.51100000000E-03 0.  1.
        -12    1    3    3    0    0 -0.38816653587E+02 -0.13668901528E+02 -0.10705405932E+02  0.42522666671E+02  0.00000000000E+00 0.  1.
</event>
<event>
 7    1  0.2490895E-015  0.9000776E+02  0.7816164E-02  0.1186339E+00
        -11   -1    0    0    0    0  0.00000000000E+00  0.00000000000E+00  0.45593999997E+02  0.45594000000E+02  0.51100000000E-03 0. -1.
         11   -1    0    0    0    0 -0.00000000000E+00 -0.00000000000E+00 -0.45593999997E+02  0.45594000000E+02  0.51100000000E-03 0.  1.
    9900012    2    1    2    0    0  0.26658263203E+00  0.11460010548E+01 -0.92608243945E-01  0.90007762310E+02  0.90000023973E+02 0.  0.
         12    1    1    2    0    0 -0.26658263203E+00 -0.11460010548E+01  0.92608243945E-01  0.11802376896E+01  0.00000000000E+00 0. -1.
         11    1    3    3    0    0  0.31347906770E+02  0.20751048191E+02  0.60004808510E+01  0.38069712772E+02  0.51100000000E-03 0. -1.
        -11    1    3    3    0    0  0.32727890953E+01  0.37360283600E+01 -0.90250023864E+01  0.10301442846E+02  0.51100000000E-03 0.  1.
        -12    1    3    3    0    0 -0.34354113233E+02 -0.23341075496E+02  0.29319132915E+01  0.41636606692E+02  0.00000000000E+00 0.  1.
</event>
<event>
 7    1  0.2490895E-015  0.9000779E+02  0.7816164E-02  0.1186339E+00
        -11   -1    0    0    0    0  0.00000000000E+00  0.00000000000E+00  0.45593999997E+02  0.45594000000E+02  0.51100000000E-03 0. -1.
         11   -1    0    0    0    0 -0.00000000000E+00 -0.00000000000E+00 -0.45593999997E+02  0.45594000000E+02  0.51100000000E-03 0.  1.
    9900012    2    1    2    0    0 -0.68281162097E+00 -0.10827811450E+00 -0.95652660166E+00  0.90007788578E+02  0.90000050588E+02 0.  0.
         12    1    1    2    0    0  0.68281162097E+00  0.10827811450E+00  0.95652660166E+00  0.11802114215E+01  0.00000000000E+00 0. -1.
         11    1    3    3    0    0  0.35063356361E+00 -0.28001491066E+02 -0.13683423521E+02  0.31167972750E+02  0.51100000000E-03 0. -1.
        -11    1    3    3    0    0 -0.96616294201E+00 -0.14692382609E+02  0.50614492826E+01  0.15569773495E+02  0.51100000000E-03 0.  1.
        -12    1    3    3    0    0 -0.67282242573E-01  0.42585595560E+02  0.76654476370E+01  0.43270042334E+02  0.00000000000E+00 0.  1.
</event>
<event>
 7    1  0.2490895E-015  0.9000776E+02  0.7816164E-02  0.1186339E+00
        -11   -1    0    0    0    0  0.00000000000E+00  0.00000000000E+00  0.45593999997E+02  0.45594000000E+02  0.51100000000E-03 0.  1.
         11   -1    0    0    0    0 -0.00000000000E+00 -0.00000000000E+00 -0.45593999997E+02  0.45594000000E+02  0.51100000000E-03 0. -1.
    9900012    2    1    2    0    0 -0.55676092941E+00 -0.79734674636E+00  0.66873914091E+00  0.90007764174E+02  0.90000025861E+02 0.  0.
         12    1    1    2    0    0  0.55676092941E+00  0.79734674636E+00 -0.66873914091E+00  0.11802358260E+01  0.00000000000E+00 0. -1.
         11    1    3    3    0    0  0.72063084192E-02 -0.21180757347E+01 -0.39158359932E+02  0.39215602119E+02  0.51100000000E-03 0. -1.
        -11    1    3    3    0    0 -0.85959500151E+01 -0.57471511419E+01  0.85200003763E+00  0.10375259382E+02  0.51100000000E-03 0.  1.
        -12    1    3    3    0    0  0.80319827773E+01  0.70678801303E+01  0.38975099035E+02  0.40416902673E+02  0.00000000000E+00 0.  1.
</event>
<event>
 7    1  0.2490895E-015  0.9000693E+02  0.7816164E-02  0.1186341E+00
        -11   -1    0    0    0    0  0.00000000000E+00  0.00000000000E+00  0.45593999997E+02  0.45594000000E+02  0.51100000000E-03 0.  1.
         11   -1    0    0    0    0 -0.00000000000E+00 -0.00000000000E+00 -0.45593999997E+02  0.45594000000E+02  0.51100000000E-03 0. -1.
    9900012    2    1    2    0    0 -0.56016419087E-01  0.47270385920E+00  0.10808928847E+01  0.90006934292E+02  0.89999185021E+02 0.  0.
         12    1    1    2    0    0  0.56016419087E-01 -0.47270385920E+00 -0.10808928847E+01  0.11810657077E+01  0.00000000000E+00 0. -1.
         11    1    3    3    0    0  0.50331351209E+01  0.27072822407E+02  0.12208379987E+02  0.30121665033E+02  0.51100000000E-03 0. -1.
        -11    1    3    3    0    0  0.45803934145E+01  0.12056762790E+02 -0.15078424982E+02  0.19841986620E+02  0.51100000000E-03 0.  1.
        -12    1    3    3    0    0 -0.96695449545E+01 -0.38656881338E+02  0.39509378795E+01  0.40043282639E+02  0.00000000000E+00 0.  1.
</event>
<event>
 7    1  0.2490895E-015  0.9000767E+02  0.7816164E-02  0.1186339E+00
        -11   -1    0    0    0    0  0.00000000000E+00  0.00000000000E+00  0.45593999997E+02  0.45594000000E+02  0.51100000000E-03 0. -1.
         11   -1    0    0    0    0 -0.00000000000E+00 -0.00000000000E+00 -0.45593999997E+02  0.45594000000E+02  0.51100000000E-03 0.  1.
    9900012    2    1    2    0    0 -0.70501390410E+00 -0.34808688422E-01 -0.94600453410E+00  0.90007669187E+02  0.89999929620E+02 0.  0.
         12    1    1    2    0    0  0.70501390410E+00  0.34808688422E-01  0.94600453410E+00  0.11803308131E+01  0.00000000000E+00 0. -1.
         11    1    3    3    0    0 -0.53297871070E+01 -0.10967944006E+02 -0.43201278698E+01  0.12936998547E+02  0.51100000000E-03 0. -1.
        -11    1    3    3    0    0 -0.54514094398E+01 -0.31862983418E+02 -0.37068214236E+01  0.32537794985E+02  0.51100000000E-03 0.  1.
         12    1    3    3    0    0  0.10076182643E+02  0.42796118735E+02  0.70809447593E+01  0.44532875655E+02  0.00000000000E+00 0. -1.
</event>
<event>
 7    1  0.2490895E-015  0.9000778E+02  0.7816164E-02  0.1186339E+00
        -11   -1    0    0    0    0  0.00000000000E+00  0.00000000000E+00  0.45593999997E+02  0.45594000000E+02  0.51100000000E-03 0.  1.
         11   -1    0    0    0    0 -0.00000000000E+00 -0.00000000000E+00 -0.45593999997E+02  0.45594000000E+02  0.51100000000E-03 0. -1.
    9900012    2    1    2    0    0  0.14743755155E+00 -0.23047850251E+00  0.11480669093E+01  0.90007781461E+02  0.90000043376E+02 0.  0.
         12    1    1    2    0    0 -0.14743755155E+00  0.23047850251E+00 -0.11480669093E+01  0.11802185391E+01  0.00000000000E+00 0. -1.
         11    1    3    3    0    0 -0.22556075029E+02  0.26869860500E+02 -0.91570331418E+01  0.36257649955E+02  0.51100000000E-03 0. -1.
        -11    1    3    3    0    0 -0.28184632801E+01  0.79134274061E+01 -0.21426175718E+01  0.86693067135E+01  0.51100000000E-03 0.  1.
        -12    1    3    3    0    0  0.25521975861E+02 -0.35013766409E+02  0.12447717623E+02  0.45080824793E+02  0.00000000000E+00 0.  1.
</event>
