<event>
 7    1  0.3597718E-013  0.7246158E+02  0.7816164E-02  0.1226708E+00
        -11   -1    0    0    0    0  0.00000000000E+00  0.00000000000E+00  0.45593999997E+02  0.45594000000E+02  0.51100000000E-03 0. -1.
         11   -1    0    0    0    0 -0.00000000000E+00 -0.00000000000E+00 -0.45593999997E+02  0.45594000000E+02  0.51100000000E-03 0.  1.
    9900012    2    1    2    0    0 -0.86382270902E+01 -0.77561779431E+01 -0.14693593729E+02  0.72461575883E+02  0.70000007280E+02 0.  0.
         12    1    1    2    0    0  0.86382270902E+01  0.77561779431E+01  0.14693593729E+02  0.18726424117E+02  0.00000000000E+00 0. -1.
         11    1    3    3    0    0 -0.10063245488E+02 -0.58918200548E+01  0.11299165894E+01  0.11715765663E+02  0.51100000000E-03 0. -1.
        -11    1    3    3    0    0 -0.25547472156E+02 -0.98170150898E+01  0.20179069965E+01  0.27443014917E+02  0.51100000000E-03 0.  1.
         12    1    3    3    0    0  0.26972490553E+02  0.79526572015E+01 -0.17841417314E+02  0.33302795303E+02  0.00000000000E+00 0. -1.
</event>
<event>
 7    1  0.3597718E-013  0.7246079E+02  0.7816164E-02  0.1226710E+00
        -11   -1    0    0    0    0  0.00000000000E+00  0.00000000000E+00  0.45593999997E+02  0.45594000000E+02  0.51100000000E-03 0. -1.
         11   -1    0    0    0    0 -0.00000000000E+00 -0.00000000000E+00 -0.45593999997E+02  0.45594000000E+02  0.51100000000E-03 0.  1.
    9900012    2    1    2    0    0  0.97417827975E+00  0.22938493466E+01 -0.18560644226E+02  0.72460792994E+02  0.69998987415E+02 0.  0.
         12    1    1    2    0    0 -0.97417827975E+00 -0.22938493466E+01  0.18560644226E+02  0.18727207006E+02  0.00000000000E+00 0. -1.
         11    1    3    3    0    0 -0.20488777398E+02  0.84885637537E+01 -0.19771962990E+02  0.29711550525E+02  0.51100000000E-03 0. -1.
        -11    1    3    3    0    0 -0.70267681109E+01  0.81132599527E+01 -0.10736228352E+01  0.10786710499E+02  0.51100000000E-03 0.  1.
        -12    1    3    3    0    0  0.28489723788E+02 -0.14307974360E+02  0.22849415994E+01  0.31962531970E+02  0.00000000000E+00 0.  1.
</event>
<event>
 7    1  0.4251498E-013  0.7246179E+02  0.7816164E-02  0.1226707E+00
        -11   -1    0    0    0    0  0.00000000000E+00  0.00000000000E+00  0.45593999997E+02  0.45594000000E+02  0.51100000000E-03 0. -1.
         11   -1    0    0    0    0 -0.00000000000E+00 -0.00000000000E+00 -0.45593999997E+02  0.45594000000E+02  0.51100000000E-03 0.  1.
    9900012    2    1    2    0    0  0.21057166027E+01  0.64939930941E+01 -0.17437457721E+02  0.72461790547E+02  0.70000286920E+02 0.  0.
         12    1    1    2    0    0 -0.21057166027E+01 -0.64939930941E+01  0.17437457721E+02  0.18726209453E+02  0.00000000000E+00 0. -1.
         11    1    3    3    0    0 -0.69380577939E+01 -0.84106254254E+00 -0.97342534014E+01  0.11983310131E+02  0.51100000000E-03 0. -1.
        -11    1    3    3    0    0 -0.54161057042E+01  0.14374534849E+01 -0.31511358204E+02  0.32005720889E+02  0.51100000000E-03 0.  1.
         12    1    3    3    0    0  0.14459880101E+02  0.58976021517E+01  0.23808153885E+02  0.28472759527E+02  0.00000000000E+00 0. -1.
</event>
<event>
 7    1  0.3597718E-013  0.7246153E+02  0.7816164E-02  0.1226708E+00
        -11   -1    0    0    0    0  0.00000000000E+00  0.00000000000E+00  0.45593999997E+02  0.45594000000E+02  0.51100000000E-03 0.  1.
         11   -1    0    0    0    0 -0.00000000000E+00 -0.00000000000E+00 -0.45593999997E+02  0.45594000000E+02  0.51100000000E-03 0. -1.
    9900012    2    1    2    0    0  0.14123597039E+02  0.12283868768E+02  0.55777977450E+00  0.72461533609E+02  0.69999952210E+02 0.  0.
         12    1    1    2    0    0 -0.14123597039E+02 -0.12283868768E+02 -0.55777977450E+00  0.18726466391E+02  0.00000000000E+00 0. -1.
         11    1    3    3    0    0  0.61961617918E+01 -0.14895752189E+02 -0.23912717843E+02  0.28846038361E+02  0.51100000000E-03 0. -1.
        -11    1    3    3    0    0 -0.23815428053E+01  0.41807908891E+01 -0.35112712644E+01  0.59564909758E+01  0.51100000000E-03 0.  1.
        -12    1    3    3    0    0  0.10308978052E+02  0.22998830068E+02  0.27981768882E+02  0.37659004272E+02  0.00000000000E+00 0.  1.
</event>
<event>
 7    1  0.3597718E-013  0.7246158E+02  0.7816164E-02  0.1226708E+00
        -11   -1    0    0    0    0  0.00000000000E+00  0.00000000000E+00  0.45593999997E+02  0.45594000000E+02  0.51100000000E-03 0.  1.
         11   -1    0    0    0    0 -0.00000000000E+00 -0.00000000000E+00 -0.45593999997E+02  0.45594000000E+02  0.51100000000E-03 0. -1.
    9900012    2    1    2    0    0  0.29992302672E+01 -0.94482473898E+01  0.15887540918E+02  0.72461582367E+02  0.70000015727E+02 0.  0.
         12    1    1    2    0    0 -0.29992302672E+01  0.94482473898E+01 -0.15887540918E+02  0.18726417633E+02  0.00000000000E+00 0. -1.
         11    1    3    3    0    0 -0.38767551046E+01  0.10645664614E+02  0.12613245829E+02  0.16954450030E+02  0.51100000000E-03 0. -1.
        -11    1    3    3    0    0 -0.13039207643E+02 -0.78845541854E+00  0.19426639665E+02  0.23410188526E+02  0.51100000000E-03 0.  1.
         12    1    3    3    0    0  0.19915193015E+02 -0.19305456585E+02 -0.16152344576E+02  0.32096943812E+02  0.00000000000E+00 0. -1.
</event>
<event>
 7    1  0.3597718E-013  0.7246157E+02  0.7816164E-02  0.1226708E+00
        -11   -1    0    0    0    0  0.00000000000E+00  0.00000000000E+00  0.45593999997E+02  0.45594000000E+02  0.51100000000E-03 0.  1.
         11   -1    0    0    0    0 -0.00000000000E+00 -0.00000000000E+00 -0.45593999997E+02  0.45594000000E+02  0.51100000000E-03 0. -1.
    9900012    2    1    2    0    0 -0.16390613598E+02  0.70674023043E+01 -0.56638134915E+01  0.72461570209E+02  0.69999999889E+02 0.  0.
         12    1    1    2    0    0  0.16390613598E+02 -0.70674023043E+01  0.56638134915E+01  0.18726429791E+02  0.00000000000E+00 0. -1.
         11    1    3    3    0    0  0.18333800949E+02 -0.26681941220E+00 -0.77753247037E+01  0.19916202558E+02  0.51100000000E-03 0. -1.
        -11    1    3    3    0    0  0.90200794871E+00  0.15809555677E+02 -0.38236032536E+00  0.15839882219E+02  0.51100000000E-03 0.  1.
        -12    1    3    3    0    0 -0.35626422495E+02 -0.84753339601E+01  0.24938715375E+01  0.36705485432E+02  0.00000000000E+00 0.  1.
</event>
<event>
 7    1  0.3597718E-013  0.7246168E+02  0.7816164E-02  0.1226708E+00
        -11   -1    0    0    0    0  0.00000000000E+00  0.00000000000E+00  0.45593999997E+02  0.45594000000E+02  0.51100000000E-03 0.  1.
         11   -1    0    0    0    0 -0.00000000000E+00 -0.00000000000E+00 -0.45593999997E+02  0.45594000000E+02  0.51100000000E-03 0. -1.
    9900012    2    1    2    0    0 -0.59431865104E+01 -0.11630268641E+02  0.13419780890E+02  0.72461678052E+02  0.70000140374E+02 0.  0.
         12    1    1    2    0    0  0.59431865104E+01  0.11630268641E+02 -0.13419780890E+02  0.18726321948E+02  0.00000000000E+00 0. -1.
         11    1    3    3    0    0  0.36191368284E+01 -0.14924064814E+02  0.11177312267E+02  0.18993635031E+02  0.51100000000E-03 0. -1.
        -11    1    3    3    0    0  0.20981644730E+02  0.78764144290E+00 -0.58018011978E+01  0.21783266331E+02  0.51100000000E-03 0.  1.
         12    1    3    3    0    0 -0.30543968069E+02  0.25061547292E+01  0.80442698210E+01  0.31684776690E+02  0.00000000000E+00 0. -1.
</event>
<event>
 7    1  0.3597718E-013  0.7246158E+02  0.7816164E-02  0.1226708E+00
        -11   -1    0    0    0    0  0.00000000000E+00  0.00000000000E+00  0.45593999997E+02  0.45594000000E+02  0.51100000000E-03 0. -1.
         11   -1    0    0    0    0 -0.00000000000E+00 -0.00000000000E+00 -0.45593999997E+02  0.45594000000E+02  0.51100000000E-03 0.  1.
    9900012    2    1    2    0    0  0.18046083413E+02  0.34964600139E+01  0.35766612898E+01  0.72461578421E+02  0.70000010586E+02 0.  0.
         12    1    1    2    0    0 -0.18046083413E+02 -0.34964600139E+01 -0.35766612898E+01  0.18726421579E+02  0.00000000000E+00 0. -1.
         11    1    3    3    0    0 -0.59743037666E+01  0.16484662191E+02  0.16716757151E+02  0.24225737614E+02  0.51100000000E-03 0. -1.
        -11    1    3    3    0    0 -0.55485182796E+01 -0.76853418676E+01  0.72458694981E+01  0.11931184340E+02  0.51100000000E-03 0.  1.
        -12    1    3    3    0    0  0.29568905459E+02 -0.53028603092E+01 -0.20385965359E+02  0.36304656466E+02  0.00000000000E+00 0.  1.
</event>
<event>
 7    1  0.3597718E-013  0.7246157E+02  0.7816164E-02  0.1226708E+00
        -11   -1    0    0    0    0  0.00000000000E+00  0.00000000000E+00  0.45593999997E+02  0.45594000000E+02  0.51100000000E-03 0.  1.
         11   -1    0    0    0    0 -0.00000000000E+00 -0.00000000000E+00 -0.45593999997E+02  0.45594000000E+02  0.51100000000E-03 0. -1.
    9900012    2    1    2    0    0  0.16325562324E+02  0.70849313107E+01  0.58274202540E+01  0.72461573120E+02  0.70000003681E+02 0.  0.
         12    1    1    2    0    0 -0.16325562324E+02 -0.70849313107E+01 -0.58274202540E+01  0.18726426880E+02  0.00000000000E+00 0. -1.
         11    1    3    3    0    0  0.15288220932E+01 -0.58179054237E+00  0.35785106205E+01  0.39346557346E+01  0.51100000000E-03 0. -1.
        -11    1    3    3    0    0  0.99212253762E+01  0.85737183438E+00  0.34135752857E+02  0.35558619529E+02  0.51100000000E-03 0.  1.
         12    1    3    3    0    0  0.48755148542E+01  0.68093500187E+01 -0.31886843224E+02  0.32968297856E+02  0.00000000000E+00 0. -1.
</event>
<event>
 7    1  0.3597718E-013  0.7246159E+02  0.7816164E-02  0.1226708E+00
        -11   -1    0    0    0    0  0.00000000000E+00  0.00000000000E+00  0.45593999997E+02  0.45594000000E+02  0.51100000000E-03 0. -1.
         11   -1    0    0    0    0 -0.00000000000E+00 -0.00000000000E+00 -0.45593999997E+02  0.45594000000E+02  0.51100000000E-03 0.  1.
    9900012    2    1    2    0    0 -0.30852564615E+01  0.17526858924E+02 -0.58282827086E+01  0.72461588959E+02  0.70000024314E+02 0.  0.
         12    1    1    2    0    0  0.30852564615E+01 -0.17526858924E+02  0.58282827086E+01  0.18726411041E+02  0.00000000000E+00 0. -1.
         11    1    3    3    0    0 -0.27346554042E+02  0.23800831716E+02  0.85111479745E+00  0.36263452745E+02  0.51100000000E-03 0. -1.
        -11    1    3    3    0    0  0.53476236822E+00  0.78134242420E+01 -0.10591400984E+00  0.78324189887E+01  0.51100000000E-03 0.  1.
        -12    1    3    3    0    0  0.23726535212E+02 -0.14087397035E+02 -0.65734834962E+01  0.28365717225E+02  0.00000000000E+00 0.  1.
</event>
<event>
 7    1  0.4128919E-013  0.7246159E+02  0.7816164E-02  0.1226708E+00
        -11   -1    0    0    0    0  0.00000000000E+00  0.00000000000E+00  0.45593999997E+02  0.45594000000E+02  0.51100000000E-03 0. -1.
         11   -1    0    0    0    0 -0.00000000000E+00 -0.00000000000E+00 -0.45593999997E+02  0.45594000000E+02  0.51100000000E-03 0.  1.
    9900012    2    1    2    0    0  0.65751151208E+00 -0.49387768993E+01 -0.18051439550E+02  0.72461593284E+02  0.70000029948E+02 0.  0.
         12    1    1    2    0    0 -0.65751151208E+00  0.49387768993E+01  0.18051439550E+02  0.18726406716E+02  0.00000000000E+00 0. -1.
         11    1    3    3    0    0  0.13021227096E+00  0.11994293746E+02 -0.65931207339E+01  0.13687559277E+02  0.51100000000E-03 0. -1.
        -11    1    3    3    0    0  0.80674625618E+01  0.56216563481E+01 -0.28084956793E+02  0.29756541644E+02  0.51100000000E-03 0.  1.
         12    1    3    3    0    0 -0.75401633206E+01 -0.22554726993E+02  0.16626637976E+02  0.29017492363E+02  0.00000000000E+00 0. -1.
</event>
<event>
 7    1  0.3597718E-013  0.7246177E+02  0.7816164E-02  0.1226707E+00
        -11   -1    0    0    0    0  0.00000000000E+00  0.00000000000E+00  0.45593999997E+02  0.45594000000E+02  0.51100000000E-03 0. -1.
         11   -1    0    0    0    0 -0.00000000000E+00 -0.00000000000E+00 -0.45593999997E+02  0.45594000000E+02  0.51100000000E-03 0.  1.
    9900012    2    1    2    0    0  0.74277652494E+01 -0.60802412668E+01 -0.16078893358E+02  0.72461765939E+02  0.70000254863E+02 0.  0.
         12    1    1    2    0    0 -0.74277652494E+01  0.60802412668E+01  0.16078893358E+02  0.18726234061E+02  0.00000000000E+00 0. -1.
         11    1    3    3    0    0  0.48008217372E+01  0.42457309809E+01  0.10757639388E+02  0.12522017664E+02  0.51100000000E-03 0. -1.
        -11    1    3    3    0    0  0.81949891845E+01  0.19917035564E+02 -0.17650423136E+02  0.27845710451E+02  0.51100000000E-03 0.  1.
        -12    1    3    3    0    0 -0.55680456723E+01 -0.30243007811E+02 -0.91861096103E+01  0.32094037824E+02  0.00000000000E+00 0.  1.
</event>
<event>
 7    1  0.3597718E-013  0.7246158E+02  0.7816164E-02  0.1226708E+00
        -11   -1    0    0    0    0  0.00000000000E+00  0.00000000000E+00  0.45593999997E+02  0.45594000000E+02  0.51100000000E-03 0.  1.
         11   -1    0    0    0    0 -0.00000000000E+00 -0.00000000000E+00 -0.45593999997E+02  0.45594000000E+02  0.51100000000E-03 0. -1.
    9900012    2    1    2    0    0 -0.15127841562E+01 -0.91117098301E+01  0.16290086035E+02  0.72461583499E+02  0.70000017202E+02 0.  0.
         12    1    1    2    0    0  0.15127841562E+01  0.91117098301E+01 -0.16290086035E+02  0.18726416501E+02  0.00000000000E+00 0. -1.
         11    1    3    3    0    0 -0.25013852411E+02 -0.39086570909E+01  0.13619129206E+02  0.28748062426E+02  0.51100000000E-03 0. -1.
        -11    1    3    3    0    0 -0.71675656741E+01  0.49959059648E+01 -0.55674927967E+01  0.10360021738E+02  0.51100000000E-03 0.  1.
        -12    1    3    3    0    0  0.30668633928E+02 -0.10198958704E+02  0.82384496260E+01  0.33353499335E+02  0.00000000000E+00 0.  1.
</event>
<event>
 7    1  0.3597718E-013  0.7246144E+02  0.7816164E-02  0.1226708E+00
        -11   -1    0    0    0    0  0.00000000000E+00  0.00000000000E+00  0.45593999997E+02  0.45594000000E+02  0.51100000000E-03 0. -1.
         11   -1    0    0    0    0 -0.00000000000E+00 -0.00000000000E+00 -0.45593999997E+02  0.45594000000E+02  0.51100000000E-03 0.  1.
    9900012    2    1    2    0    0 -0.16743196739E+02 -0.29702907992E-01 -0.83873947105E+01  0.72461443740E+02  0.69999835140E+02 0.  0.
         12    1    1    2    0    0  0.16743196739E+02  0.29702907992E-01  0.83873947105E+01  0.18726556260E+02  0.00000000000E+00 0. -1.
         11    1    3    3    0    0 -0.31787231022E+02 -0.43776239628E+00  0.30772857551E+01  0.31938838110E+02  0.51100000000E-03 0. -1.
        -11    1    3    3    0    0 -0.10082516878E+02  0.11193272865E+01  0.41173049561E+01  0.10948161514E+02  0.51100000000E-03 0.  1.
        -12    1    3    3    0    0  0.25126551160E+02 -0.71126779825E+00 -0.15581985422E+02  0.29574444116E+02  0.00000000000E+00 0.  1.
</event>
<event>
 7    1  0.3597718E-013  0.7246163E+02  0.7816164E-02  0.1226708E+00
        -11   -1    0    0    0    0  0.00000000000E+00  0.00000000000E+00  0.45593999997E+02  0.45594000000E+02  0.51100000000E-03 0.  1.
         11   -1    0    0    0    0 -0.00000000000E+00 -0.00000000000E+00 -0.45593999997E+02  0.45594000000E+02  0.51100000000E-03 0. -1.
    9900012    2    1    2    0    0 -0.17148052309E+01 -0.18523338089E+01  0.18555465041E+02  0.72461628744E+02  0.70000076141E+02 0.  0.
         12    1    1    2    0    0  0.17148052309E+01  0.18523338089E+01 -0.18555465041E+02  0.18726371256E+02  0.00000000000E+00 0. -1.
         11    1    3    3    0    0 -0.73089216028E+01 -0.13665518777E+02 -0.68832007213E+01  0.16957157512E+02  0.51100000000E-03 0. -1.
        -11    1    3    3    0    0  0.10196916594E+02 -0.51401979839E+01  0.34069057819E+02  0.35931872262E+02  0.51100000000E-03 0.  1.
         12    1    3    3    0    0 -0.46028002221E+01  0.16953382952E+02 -0.86303920559E+01  0.19572598970E+02  0.00000000000E+00 0. -1.
</event>
<event>
 7    1  0.3597718E-013  0.7246158E+02  0.7816164E-02  0.1226708E+00
        -11   -1    0    0    0    0  0.00000000000E+00  0.00000000000E+00  0.45593999997E+02  0.45594000000E+02  0.51100000000E-03 0.  1.
         11   -1    0    0    0    0 -0.00000000000E+00 -0.00000000000E+00 -0.45593999997E+02  0.45594000000E+02  0.51100000000E-03 0. -1.
    9900012    2    1    2    0    0 -0.50575203539E+01 -0.13955368786E+02  0.11417000273E+02  0.72461582155E+02  0.70000015450E+02 0.  0.
         12    1    1    2    0    0  0.50575203539E+01  0.13955368786E+02 -0.11417000273E+02  0.18726417845E+02  0.00000000000E+00 0. -1.
         11    1    3    3    0    0 -0.22884456588E+00 -0.10770047240E+00  0.34817598612E+00  0.43034405482E+00  0.51100000000E-03 0. -1.
        -11    1    3    3    0    0 -0.45173799195E+01 -0.34322249967E+02  0.28732354525E+02  0.44988573670E+02  0.51100000000E-03 0.  1.
         12    1    3    3    0    0 -0.31129586851E+00  0.20474581653E+02 -0.17663530238E+02  0.27042664429E+02  0.00000000000E+00 0. -1.
</event>
<event>
 7    1  0.3597718E-013  0.7246182E+02  0.7816164E-02  0.1226707E+00
        -11   -1    0    0    0    0  0.00000000000E+00  0.00000000000E+00  0.45593999997E+02  0.45594000000E+02  0.51100000000E-03 0.  1.
         11   -1    0    0    0    0 -0.00000000000E+00 -0.00000000000E+00 -0.45593999997E+02  0.45594000000E+02  0.51100000000E-03 0. -1.
    9900012    2    1    2    0    0 -0.14837996881E+02 -0.92609164923E+01  0.66887339761E+01  0.72461818117E+02  0.70000322834E+02 0.  0.
         12    1    1    2    0    0  0.14837996881E+02  0.92609164923E+01 -0.66887339761E+01  0.18726181883E+02  0.00000000000E+00 0. -1.
         11    1    3    3    0    0 -0.17486159561E+02 -0.20420664109E+02 -0.10680157673E+01  0.26905574827E+02  0.51100000000E-03 0. -1.
        -11    1    3    3    0    0  0.34192415955E+01 -0.14255379729E+02 -0.69056290099E+01  0.16204776351E+02  0.51100000000E-03 0.  1.
         12    1    3    3    0    0 -0.77107891501E+00  0.25415127346E+02  0.14662378753E+02  0.29351466938E+02  0.00000000000E+00 0. -1.
</event>
<event>
 7    1  0.3597718E-013  0.7246154E+02  0.7816164E-02  0.1226708E+00
        -11   -1    0    0    0    0  0.00000000000E+00  0.00000000000E+00  0.45593999997E+02  0.45594000000E+02  0.51100000000E-03 0.  1.
         11   -1    0    0    0    0 -0.00000000000E+00 -0.00000000000E+00 -0.45593999997E+02  0.45594000000E+02  0.51100000000E-03 0. -1.
    9900012    2    1    2    0    0 -0.24898871532E+01 -0.18491680284E+02  0.15932293842E+01  0.72461543912E+02  0.69999965632E+02 0.  0.
         12    1    1    2    0    0  0.24898871532E+01  0.18491680284E+02 -0.15932293842E+01  0.18726456088E+02  0.00000000000E+00 0. -1.
         11    1    3    3    0    0  0.32991105812E+01  0.40159620703E+00 -0.16065095149E+02  0.16405264172E+02  0.51100000000E-03 0. -1.
        -11    1    3    3    0    0  0.74583839662E+01 -0.19476984084E+02 -0.11648857010E+02  0.23888831497E+02  0.51100000000E-03 0.  1.
        -12    1    3    3    0    0 -0.13247381701E+02  0.58370759358E+00  0.29307181543E+02  0.32167448243E+02  0.00000000000E+00 0.  1.
</event>
<event>
 7    1  0.3597718E-013  0.7246157E+02  0.7816164E-02  0.1226708E+00
        -11   -1    0    0    0    0  0.00000000000E+00  0.00000000000E+00  0.45593999997E+02  0.45594000000E+02  0.51100000000E-03 0.  1.
         11   -1    0    0    0    0 -0.00000000000E+00 -0.00000000000E+00 -0.45593999997E+02  0.45594000000E+02  0.51100000000E-03 0. -1.
    9900012    2    1    2    0    0  0.15056518227E+02 -0.34387035979E+01  0.10590364716E+02  0.72461568189E+02  0.69999997257E+02 0.  0.
         12    1    1    2    0    0 -0.15056518227E+02  0.34387035979E+01 -0.10590364716E+02  0.18726431811E+02  0.00000000000E+00 0. -1.
         11    1    3    3    0    0 -0.51647157163E+01 -0.48006846951E+01 -0.19668946519E+02  0.20894695963E+02  0.51100000000E-03 0. -1.
        -11    1    3    3    0    0  0.18534818420E+01  0.34540006328E+01 -0.80926101467E+01  0.89919883540E+01  0.51100000000E-03 0.  1.
        -12    1    3    3    0    0  0.18367752101E+02 -0.20920195356E+01  0.38351921382E+02  0.42574883872E+02  0.00000000000E+00 0.  1.
</event>
<event>
 7    1  0.3597718E-013  0.7246144E+02  0.7816164E-02  0.1226708E+00
        -11   -1    0    0    0    0  0.00000000000E+00  0.00000000000E+00  0.45593999997E+02  0.45594000000E+02  0.51100000000E-03 0.  1.
         11   -1    0    0    0    0 -0.00000000000E+00 -0.00000000000E+00 -0.45593999997E+02  0.45594000000E+02  0.51100000000E-03 0. -1.
    9900012    2    1    2    0    0  0.10146286029E+02  0.15515870667E+02 -0.26447804441E+01  0.72461435277E+02  0.69999824115E+02 0.  0.
         12    1    1    2    0    0 -0.10146286029E+02 -0.15515870667E+02  0.26447804441E+01  0.18726564723E+02  0.00000000000E+00 0. -1.
         11    1    3    3    0    0  0.49178711946E+01  0.38742801700E+01 -0.13964006332E+01  0.64144710547E+01  0.51100000000E-03 0. -1.
        -11    1    3    3    0    0  0.67085335569E+01  0.22108138310E+02  0.27206137907E+02  0.35692410147E+02  0.51100000000E-03 0.  1.
         12    1    3    3    0    0 -0.14801187224E+01 -0.10466547814E+02 -0.28454517718E+02  0.30354554075E+02  0.00000000000E+00 0. -1.
</event>
<event>
 7    1  0.3597718E-013  0.7246164E+02  0.7816164E-02  0.1226708E+00
        -11   -1    0    0    0    0  0.00000000000E+00  0.00000000000E+00  0.45593999997E+02  0.45594000000E+02  0.51100000000E-03 0.  1.
         11   -1    0    0    0    0 -0.00000000000E+00 -0.00000000000E+00 -0.45593999997E+02  0.45594000000E+02  0.51100000000E-03 0. -1.
    9900012    2    1    2    0    0 -0.11620884638E+02  0.77164767449E+01  0.12493500270E+02  0.72461640980E+02  0.70000092081E+02 0.  0.
         12    1    1    2    0    0  0.11620884638E+02 -0.77164767449E+01 -0.12493500270E+02  0.18726359020E+02  0.00000000000E+00 0. -1.
         11    1    3    3    0    0  0.93549349523E+01  0.56370768985E+01 -0.30495417248E+01  0.11339803742E+02  0.51100000000E-03 0. -1.
        -11    1    3    3    0    0 -0.20158933937E+02 -0.69331872584E+01 -0.17048925062E+02  0.27296841375E+02  0.51100000000E-03 0.  1.
        -12    1    3    3    0    0 -0.81688565396E+00  0.90125871049E+01  0.32591967057E+02  0.33824995863E+02  0.00000000000E+00 0.  1.
</event>
<event>
 7    1  0.3597718E-013  0.7246157E+02  0.7816164E-02  0.1226708E+00
        -11   -1    0    0    0    0  0.00000000000E+00  0.00000000000E+00  0.45593999997E+02  0.45594000000E+02  0.51100000000E-03 0. -1.
         11   -1    0    0    0    0 -0.00000000000E+00 -0.00000000000E+00 -0.45593999997E+02  0.45594000000E+02  0.51100000000E-03 0.  1.
    9900012    2    1    2    0    0  0.18167503142E+02  0.11178035866E+01  0.44013303939E+01  0.72461565088E+02  0.69999993218E+02 0.  0.
         12    1    1    2    0    0 -0.18167503142E+02 -0.11178035866E+01 -0.44013303939E+01  0.18726434912E+02  0.00000000000E+00 0. -1.
         11    1    3    3    0    0 -0.35482169844E+01 -0.15945929246E+02 -0.10763280561E+02  0.19562993431E+02  0.51100000000E-03 0. -1.
        -11    1    3    3    0    0  0.22807392475E+02 -0.40603506524E+01 -0.49725986757E+01  0.23693677148E+02  0.51100000000E-03 0.  1.
        -12    1    3    3    0    0 -0.10916723482E+01  0.21124083485E+02  0.20137209631E+02  0.29204894509E+02  0.00000000000E+00 0.  1.
</event>
<event>
 7    1  0.3597718E-013  0.7246142E+02  0.7816164E-02  0.1226708E+00
        -11   -1    0    0    0    0  0.00000000000E+00  0.00000000000E+00  0.45593999997E+02  0.45594000000E+02  0.51100000000E-03 0.  1.
         11   -1    0    0    0    0 -0.00000000000E+00 -0.00000000000E+00 -0.45593999997E+02  0.45594000000E+02  0.51100000000E-03 0. -1.
    9900012    2    1    2    0    0  0.15364394732E+02 -0.95386596504E+01  0.48614959283E+01  0.72461420065E+02  0.69999804298E+02 0.  0.
         12    1    1    2    0    0 -0.15364394732E+02  0.95386596504E+01 -0.48614959283E+01  0.18726579935E+02  0.00000000000E+00 0. -1.
         11    1    3    3    0    0  0.25044260116E+02 -0.23598352345E+02  0.63617994059E+01  0.34993852175E+02  0.51100000000E-03 0. -1.
        -11    1    3    3    0    0  0.40562882879E+01 -0.17654376206E+01 -0.12882386100E+02  0.13620797207E+02  0.51100000000E-03 0.  1.
        -12    1    3    3    0    0 -0.13736153672E+02  0.15825130315E+02  0.11382082622E+02  0.23846770683E+02  0.00000000000E+00 0.  1.
</event>
<event>
 7    1  0.3597718E-013  0.7246156E+02  0.7816164E-02  0.1226708E+00
        -11   -1    0    0    0    0  0.00000000000E+00  0.00000000000E+00  0.45593999997E+02  0.45594000000E+02  0.51100000000E-03 0.  1.
         11   -1    0    0    0    0 -0.00000000000E+00 -0.00000000000E+00 -0.45593999997E+02  0.45594000000E+02  0.51100000000E-03 0. -1.
    9900012    2    1    2    0    0  0.33212993731E+01  0.18082804109E+02  0.35581879150E+01  0.72461560530E+02  0.69999987280E+02 0.  0.
         12    1    1    2    0    0 -0.33212993731E+01 -0.18082804109E+02 -0.35581879150E+01  0.18726439470E+02  0.00000000000E+00 0. -1.
         11    1    3    3    0    0 -0.15973152991E+02  0.59362864346E+01 -0.81454976914E+01  0.18887303831E+02  0.51100000000E-03 0. -1.
        -11    1    3    3    0    0 -0.15195603545E+02  0.76492140714E+01  0.45439245039E+00  0.17018322942E+02  0.51100000000E-03 0.  1.
         12    1    3    3    0    0  0.34490055909E+02  0.44973036034E+01  0.11249293156E+02  0.36555933757E+02  0.00000000000E+00 0. -1.
</event>
<event>
 7    1  0.3597718E-013  0.7246158E+02  0.7816164E-02  0.1226708E+00
        -11   -1    0    0    0    0  0.00000000000E+00  0.00000000000E+00  0.45593999997E+02  0.45594000000E+02  0.51100000000E-03 0.  1.
         11   -1    0    0    0    0 -0.00000000000E+00 -0.00000000000E+00 -0.45593999997E+02  0.45594000000E+02  0.51100000000E-03 0. -1.
    9900012    2    1    2    0    0 -0.18569532171E+01 -0.14994342900E+02  0.11063463378E+02  0.72461579729E+02  0.70000012290E+02 0.  0.
         12    1    1    2    0    0  0.18569532171E+01  0.14994342900E+02 -0.11063463378E+02  0.18726420271E+02  0.00000000000E+00 0. -1.
         11    1    3    3    0    0 -0.38904211074E+01 -0.83563329084E+01 -0.13103788679E+01  0.93102507543E+01  0.51100000000E-03 0. -1.
        -11    1    3    3    0    0 -0.21806051936E+02 -0.23533816872E+02  0.10936900110E+02  0.33896315757E+02  0.51100000000E-03 0.  1.
         12    1    3    3    0    0  0.23839519826E+02  0.16895806881E+02  0.14369421364E+01  0.29255013218E+02  0.00000000000E+00 0. -1.
</event>
<event>
 7    1  0.3597718E-013  0.7246159E+02  0.7816164E-02  0.1226708E+00
        -11   -1    0    0    0    0  0.00000000000E+00  0.00000000000E+00  0.45593999997E+02  0.45594000000E+02  0.51100000000E-03 0.  1.
         11   -1    0    0    0    0 -0.00000000000E+00 -0.00000000000E+00 -0.45593999997E+02  0.45594000000E+02  0.51100000000E-03 0. -1.
    9900012    2    1    2    0    0  0.10968186143E+02  0.15159306228E+02 -0.75682179750E+00  0.72461589458E+02  0.70000024964E+02 0.  0.
         12    1    1    2    0    0 -0.10968186143E+02 -0.15159306228E+02  0.75682179750E+00  0.18726410542E+02  0.00000000000E+00 0. -1.
         11    1    3    3    0    0  0.14413161849E+02  0.65817874268E+01  0.15151252065E+00  0.15845570880E+02  0.51100000000E-03 0. -1.
        -11    1    3    3    0    0  0.24564973765E+02 -0.51590135165E+01  0.25400912715E+01  0.25229059048E+02  0.51100000000E-03 0.  1.
        -12    1    3    3    0    0 -0.28009949471E+02  0.13736532317E+02 -0.34484255896E+01  0.31386959530E+02  0.00000000000E+00 0.  1.
</event>
<event>
 7    1  0.3597718E-013  0.7246151E+02  0.7816164E-02  0.1226708E+00
        -11   -1    0    0    0    0  0.00000000000E+00  0.00000000000E+00  0.45593999997E+02  0.45594000000E+02  0.51100000000E-03 0. -1.
         11   -1    0    0    0    0 -0.00000000000E+00 -0.00000000000E+00 -0.45593999997E+02  0.45594000000E+02  0.51100000000E-03 0.  1.
    9900012    2    1    2    0    0 -0.11105156956E+02  0.12766645791E+02 -0.80230603776E+01  0.72461514649E+02  0.69999927512E+02 0.  0.
         12    1    1    2    0    0  0.11105156956E+02 -0.12766645791E+02  0.80230603776E+01  0.18726485351E+02  0.00000000000E+00 0. -1.
         11    1    3    3    0    0  0.18796039167E+02 -0.11416623951E+02  0.73710599776E+01  0.23194027599E+02  0.51100000000E-03 0. -1.
        -11    1    3    3    0    0  0.29272113106E+01 -0.25688517243E+01  0.71327909196E+00  0.39593348637E+01  0.51100000000E-03 0.  1.
        -12    1    3    3    0    0 -0.32828407434E+02  0.26752121466E+02 -0.16107399447E+02  0.45308152186E+02  0.00000000000E+00 0.  1.
</event>
<event>
 7    1  0.3597718E-013  0.7246158E+02  0.7816164E-02  0.1226708E+00
        -11   -1    0    0    0    0  0.00000000000E+00  0.00000000000E+00  0.45593999997E+02  0.45594000000E+02  0.51100000000E-03 0. -1.
         11   -1    0    0    0    0 -0.00000000000E+00 -0.00000000000E+00 -0.45593999997E+02  0.45594000000E+02  0.51100000000E-03 0.  1.
    9900012    2    1    2    0    0 -0.10470800364E+02  0.15522692117E+02 -0.29512352208E+00  0.72461582064E+02  0.70000015332E+02 0.  0.
         12    1    1    2    0    0  0.10470800364E+02 -0.15522692117E+02  0.29512352208E+00  0.18726417936E+02  0.00000000000E+00 0. -1.
         11    1    3    3    0    0  0.42444352482E+01 -0.37202488963E+01 -0.11724364419E+01  0.57645546140E+01  0.51100000000E-03 0. -1.
        -11    1    3    3    0    0  0.83760357524E+01 -0.14731794968E+02 -0.15024323459E+02  0.22647605912E+02  0.51100000000E-03 0.  1.
         12    1    3    3    0    0 -0.23091271365E+02  0.33974735982E+02  0.15901636379E+02  0.44049421537E+02  0.00000000000E+00 0. -1.
</event>
<event>
 7    1  0.3597718E-013  0.7246156E+02  0.7816164E-02  0.1226708E+00
        -11   -1    0    0    0    0  0.00000000000E+00  0.00000000000E+00  0.45593999997E+02  0.45594000000E+02  0.51100000000E-03 0.  1.
         11   -1    0    0    0    0 -0.00000000000E+00 -0.00000000000E+00 -0.45593999997E+02  0.45594000000E+02  0.51100000000E-03 0. -1.
    9900012    2    1    2    0    0  0.13585227303E+02 -0.10046013701E+02  0.80745853082E+01  0.72461555595E+02  0.69999980851E+02 0.  0.
         12    1    1    2    0    0 -0.13585227303E+02  0.10046013701E+02 -0.80745853082E+01  0.18726444405E+02  0.00000000000E+00 0. -1.
         11    1    3    3    0    0 -0.41438645073E+01 -0.16041489925E+02 -0.25077818881E+02  0.30056580181E+02  0.51100000000E-03 0. -1.
        -11    1    3    3    0    0  0.19255871651E+01 -0.59989648626E+01  0.54475716750E+01  0.83289556829E+01  0.51100000000E-03 0.  1.
        -12    1    3    3    0    0  0.15803504645E+02  0.11994441087E+02  0.27704832515E+02  0.34076019731E+02  0.00000000000E+00 0.  1.
</event>
<event>
 7    1  0.3597718E-013  0.7246156E+02  0.7816164E-02  0.1226708E+00
        -11   -1    0    0    0    0  0.00000000000E+00  0.00000000000E+00  0.45593999997E+02  0.45594000000E+02  0.51100000000E-03 0. -1.
         11   -1    0    0    0    0 -0.00000000000E+00 -0.00000000000E+00 -0.45593999997E+02  0.45594000000E+02  0.51100000000E-03 0.  1.
    9900012    2    1    2    0    0  0.74569625608E+01 -0.17162002906E+02 -0.73421343362E+00  0.72461556031E+02  0.69999981419E+02 0.  0.
         12    1    1    2    0    0 -0.74569625608E+01  0.17162002906E+02  0.73421343362E+00  0.18726443969E+02  0.00000000000E+00 0. -1.
         11    1    3    3    0    0 -0.17045346978E+02  0.15208312091E+02  0.96980960475E+01  0.24817124682E+02  0.51100000000E-03 0. -1.
        -11    1    3    3    0    0 -0.12693735194E+01 -0.33607194936E+01  0.47678126518E+01  0.59697388879E+01  0.51100000000E-03 0.  1.
        -12    1    3    3    0    0  0.25771683058E+02 -0.29009595503E+02 -0.15200122133E+02  0.41674692461E+02  0.00000000000E+00 0.  1.
</event>
<event>
 7    1  0.3597718E-013  0.7246152E+02  0.7816164E-02  0.1226708E+00
        -11   -1    0    0    0    0  0.00000000000E+00  0.00000000000E+00  0.45593999997E+02  0.45594000000E+02  0.51100000000E-03 0. -1.
         11   -1    0    0    0    0 -0.00000000000E+00 -0.00000000000E+00 -0.45593999997E+02  0.45594000000E+02  0.51100000000E-03 0.  1.
    9900012    2    1    2    0    0 -0.16465508922E+01 -0.17703379553E+02  0.58787971769E+01  0.72461520521E+02  0.69999935161E+02 0.  0.
         12    1    1    2    0    0  0.16465508922E+01  0.17703379553E+02 -0.58787971769E+01  0.18726479479E+02  0.00000000000E+00 0. -1.
         11    1    3    3    0    0  0.29529504681E+01  0.53824109239E+01  0.69834427740E+01  0.92983190448E+01  0.51100000000E-03 0. -1.
        -11    1    3    3    0    0  0.25553068609E+01  0.12578627700E+02  0.17975463898E+02  0.22087751596E+02  0.51100000000E-03 0.  1.
        -12    1    3    3    0    0 -0.71548082212E+01 -0.35664418176E+02 -0.19080109495E+02  0.41075449880E+02  0.00000000000E+00 0.  1.
</event>
<event>
 7    1  0.3597718E-013  0.7246147E+02  0.7816164E-02  0.1226708E+00
        -11   -1    0    0    0    0  0.00000000000E+00  0.00000000000E+00  0.45593999997E+02  0.45594000000E+02  0.51100000000E-03 0. -1.
         11   -1    0    0    0    0 -0.00000000000E+00 -0.00000000000E+00 -0.45593999997E+02  0.45594000000E+02  0.51100000000E-03 0.  1.
    9900012    2    1    2    0    0 -0.16871982641E+02  0.61886404086E+01 -0.52649608925E+01  0.72461471182E+02  0.69999870888E+02 0.  0.
         12    1    1    2    0    0  0.16871982641E+02 -0.61886404086E+01  0.52649608925E+01  0.18726528818E+02  0.00000000000E+00 0. -1.
         11    1    3    3    0    0  0.72063171038E+00  0.93104086903E-01 -0.37640442809E+01  0.38335372755E+01  0.51100000000E-03 0. -1.
        -11    1    3    3    0    0  0.14905746291E+02 -0.21249663978E+02  0.18594836349E+01  0.26022820203E+02  0.51100000000E-03 0.  1.
         12    1    3    3    0    0 -0.32498360642E+02  0.27345200300E+02 -0.33604002465E+01  0.42605113704E+02  0.00000000000E+00 0. -1.
</event>
<event>
 7    1  0.3597718E-013  0.7246153E+02  0.7816164E-02  0.1226708E+00
        -11   -1    0    0    0    0  0.00000000000E+00  0.00000000000E+00  0.45593999997E+02  0.45594000000E+02  0.51100000000E-03 0. -1.
         11   -1    0    0    0    0 -0.00000000000E+00 -0.00000000000E+00 -0.45593999997E+02  0.45594000000E+02  0.51100000000E-03 0.  1.
    9900012    2    1    2    0    0 -0.37450127043E+01  0.89653403195E+00 -0.18326261481E+02  0.72461528008E+02  0.69999944914E+02 0.  0.
         12    1    1    2    0    0  0.37450127043E+01 -0.89653403195E+00  0.18326261481E+02  0.18726471992E+02  0.00000000000E+00 0. -1.
         11    1    3    3    0    0  0.16126920371E+02 -0.80275552366E+01  0.52395582860E+01  0.18760921486E+02  0.51100000000E-03 0. -1.
        -11    1    3    3    0    0  0.12686126815E+02  0.40796088701E+01 -0.14208759909E+02  0.19479986666E+02  0.51100000000E-03 0.  1.
         12    1    3    3    0    0 -0.32558059890E+02  0.48444803984E+01 -0.93570598577E+01  0.34220619855E+02  0.00000000000E+00 0. -1.
</event>
<event>
 7    1  0.3597718E-013  0.7246158E+02  0.7816164E-02  0.1226708E+00
        -11   -1    0    0    0    0  0.00000000000E+00  0.00000000000E+00  0.45593999997E+02  0.45594000000E+02  0.51100000000E-03 0.  1.
         11   -1    0    0    0    0 -0.00000000000E+00 -0.00000000000E+00 -0.45593999997E+02  0.45594000000E+02  0.51100000000E-03 0. -1.
    9900012    2    1    2    0    0  0.11428064321E+02  0.14834111653E+02  0.16512076437E+00  0.72461580494E+02  0.70000013287E+02 0.  0.
         12    1    1    2    0    0 -0.11428064321E+02 -0.14834111653E+02 -0.16512076437E+00  0.18726419506E+02  0.00000000000E+00 0. -1.
         11    1    3    3    0    0 -0.15414360685E+02  0.14179796894E+02  0.84047208905E+01  0.22567864072E+02  0.51100000000E-03 0. -1.
        -11    1    3    3    0    0 -0.94144937085E+01  0.69941620551E+01  0.14898591443E+01  0.11822464852E+02  0.51100000000E-03 0.  1.
        -12    1    3    3    0    0  0.36256918714E+02 -0.63398472958E+01 -0.97294592704E+01  0.38071251570E+02  0.00000000000E+00 0.  1.
</event>
<event>
 7    1  0.3597718E-013  0.7246158E+02  0.7816164E-02  0.1226708E+00
        -11   -1    0    0    0    0  0.00000000000E+00  0.00000000000E+00  0.45593999997E+02  0.45594000000E+02  0.51100000000E-03 0.  1.
         11   -1    0    0    0    0 -0.00000000000E+00 -0.00000000000E+00 -0.45593999997E+02  0.45594000000E+02  0.51100000000E-03 0. -1.
    9900012    2    1    2    0    0  0.13161941284E+01  0.13322388319E+02  0.13094288356E+02  0.72461580560E+02  0.70000013373E+02 0.  0.
         12    1    1    2    0    0 -0.13161941284E+01 -0.13322388319E+02 -0.13094288356E+02  0.18726419440E+02  0.00000000000E+00 0. -1.
         11    1    3    3    0    0 -0.15981906262E+02 -0.97875809842E+01  0.17077338773E+02  0.25354557167E+02  0.51100000000E-03 0. -1.
        -11    1    3    3    0    0  0.42075620970E+01  0.21611266205E+02  0.13033512663E+02  0.25585598652E+02  0.51100000000E-03 0.  1.
        -12    1    3    3    0    0  0.13090538294E+02  0.14987030976E+01 -0.17016563080E+02  0.21521424741E+02  0.00000000000E+00 0.  1.
</event>
<event>
 7    1  0.3597718E-013  0.7246164E+02  0.7816164E-02  0.1226708E+00
        -11   -1    0    0    0    0  0.00000000000E+00  0.00000000000E+00  0.45593999997E+02  0.45594000000E+02  0.51100000000E-03 0.  1.
         11   -1    0    0    0    0 -0.00000000000E+00 -0.00000000000E+00 -0.45593999997E+02  0.45594000000E+02  0.51100000000E-03 0. -1.
    9900012    2    1    2    0    0 -0.18322568232E+02 -0.37850999529E+01 -0.79570018692E+00  0.72461638179E+02  0.70000088432E+02 0.  0.
         12    1    1    2    0    0  0.18322568232E+02  0.37850999529E+01  0.79570018692E+00  0.18726361821E+02  0.00000000000E+00 0. -1.
         11    1    3    3    0    0  0.21743075179E+01 -0.15929916637E+02  0.13920174225E+01  0.16137768433E+02  0.51100000000E-03 0. -1.
        -11    1    3    3    0    0  0.15736873363E+02  0.12335527173E+02  0.37757241159E+00  0.19998924348E+02  0.51100000000E-03 0.  1.
        -12    1    3    3    0    0 -0.36233749113E+02 -0.19071048966E+00 -0.25652900210E+01  0.36324945398E+02  0.00000000000E+00 0.  1.
</event>
<event>
 7    1  0.3597718E-013  0.7246118E+02  0.7816164E-02  0.1226709E+00
        -11   -1    0    0    0    0  0.00000000000E+00  0.00000000000E+00  0.45593999997E+02  0.45594000000E+02  0.51100000000E-03 0.  1.
         11   -1    0    0    0    0 -0.00000000000E+00 -0.00000000000E+00 -0.45593999997E+02  0.45594000000E+02  0.51100000000E-03 0. -1.
    9900012    2    1    2    0    0 -0.38786140190E+01  0.11502831701E+02  0.14259554807E+02  0.72461182674E+02  0.69999495051E+02 0.  0.
         12    1    1    2    0    0  0.38786140190E+01 -0.11502831701E+02 -0.14259554807E+02  0.18726817326E+02  0.00000000000E+00 0. -1.
         11    1    3    3    0    0 -0.86314109533E+01  0.15595573033E+02 -0.11209496655E+02  0.21056494694E+02  0.51100000000E-03 0. -1.
        -11    1    3    3    0    0 -0.39493106840E+01 -0.26708387941E+01 -0.11999842000E+02  0.12912267153E+02  0.51100000000E-03 0.  1.
        -12    1    3    3    0    0  0.87021076183E+01 -0.14219025382E+01  0.37468893462E+02  0.38492420827E+02  0.00000000000E+00 0.  1.
</event>
<event>
 7    1  0.3597718E-013  0.7246153E+02  0.7816164E-02  0.1226708E+00
        -11   -1    0    0    0    0  0.00000000000E+00  0.00000000000E+00  0.45593999997E+02  0.45594000000E+02  0.51100000000E-03 0. -1.
         11   -1    0    0    0    0 -0.00000000000E+00 -0.00000000000E+00 -0.45593999997E+02  0.45594000000E+02  0.51100000000E-03 0.  1.
    9900012    2    1    2    0    0  0.12008029572E+02 -0.98544137304E+01 -0.10458408760E+02  0.72461533222E+02  0.69999951707E+02 0.  0.
         12    1    1    2    0    0 -0.12008029572E+02  0.98544137304E+01  0.10458408760E+02  0.18726466778E+02  0.00000000000E+00 0. -1.
         11    1    3    3    0    0 -0.28398855398E+01 -0.82550067556E+00  0.31988910332E+01  0.43565244574E+01  0.51100000000E-03 0. -1.
        -11    1    3    3    0    0  0.14698298863E+02  0.26417247204E+02 -0.32080928058E+00  0.30232662108E+02  0.51100000000E-03 0.  1.
         12    1    3    3    0    0  0.14961624826E+00 -0.35446160258E+02 -0.13336490513E+02  0.37872346657E+02  0.00000000000E+00 0. -1.
</event>
<event>
 7    1  0.3597718E-013  0.7246155E+02  0.7816164E-02  0.1226708E+00
        -11   -1    0    0    0    0  0.00000000000E+00  0.00000000000E+00  0.45593999997E+02  0.45594000000E+02  0.51100000000E-03 0.  1.
         11   -1    0    0    0    0 -0.00000000000E+00 -0.00000000000E+00 -0.45593999997E+02  0.45594000000E+02  0.51100000000E-03 0. -1.
    9900012    2    1    2    0    0 -0.14507301976E+02 -0.11289635372E+02  0.35724484823E+01  0.72461546368E+02  0.69999968832E+02 0.  0.
         12    1    1    2    0    0  0.14507301976E+02  0.11289635372E+02 -0.35724484823E+01  0.18726453632E+02  0.00000000000E+00 0. -1.
         11    1    3    3    0    0 -0.11113805908E+02 -0.44132638204E+01  0.24494672227E+01  0.12206288103E+02  0.51100000000E-03 0. -1.
        -11    1    3    3    0    0 -0.23889529363E+02  0.48677011427E+01 -0.17636112780E+02  0.30090473607E+02  0.51100000000E-03 0.  1.
         12    1    3    3    0    0  0.20496033296E+02 -0.11744072695E+02  0.18759094039E+02  0.30164784659E+02  0.00000000000E+00 0. -1.
</event>
<event>
 7    1  0.3597718E-013  0.7246161E+02  0.7816164E-02  0.1226708E+00
        -11   -1    0    0    0    0  0.00000000000E+00  0.00000000000E+00  0.45593999997E+02  0.45594000000E+02  0.51100000000E-03 0. -1.
         11   -1    0    0    0    0 -0.00000000000E+00 -0.00000000000E+00 -0.45593999997E+02  0.45594000000E+02  0.51100000000E-03 0.  1.
    9900012    2    1    2    0    0 -0.88203045483E+01 -0.58606984435E+01 -0.15444482564E+02  0.72461612195E+02  0.70000054583E+02 0.  0.
         12    1    1    2    0    0  0.88203045483E+01  0.58606984435E+01  0.15444482564E+02  0.18726387805E+02  0.00000000000E+00 0. -1.
         11    1    3    3    0    0 -0.22044461143E+02  0.64896762982E+01  0.16022223887E+02  0.28014029059E+02  0.51100000000E-03 0. -1.
        -11    1    3    3    0    0 -0.70047187581E+01  0.38315794207E+00 -0.10638492267E+02  0.12743249698E+02  0.51100000000E-03 0.  1.
        -12    1    3    3    0    0  0.20228875353E+02 -0.12733532684E+02 -0.20828214184E+02  0.31704333438E+02  0.00000000000E+00 0.  1.
</event>
<event>
 7    1  0.3597718E-013  0.7246160E+02  0.7816164E-02  0.1226708E+00
        -11   -1    0    0    0    0  0.00000000000E+00  0.00000000000E+00  0.45593999997E+02  0.45594000000E+02  0.51100000000E-03 0.  1.
         11   -1    0    0    0    0 -0.00000000000E+00 -0.00000000000E+00 -0.45593999997E+02  0.45594000000E+02  0.51100000000E-03 0. -1.
    9900012    2    1    2    0    0 -0.16072488702E+02  0.32809292076E+01  0.90326357993E+01  0.72461604217E+02  0.70000044190E+02 0.  0.
         12    1    1    2    0    0  0.16072488702E+02 -0.32809292076E+01 -0.90326357993E+01  0.18726395783E+02  0.00000000000E+00 0. -1.
         11    1    3    3    0    0  0.87698377345E+01  0.45980441468E+01  0.26120114184E+01  0.10240833354E+02  0.51100000000E-03 0. -1.
        -11    1    3    3    0    0 -0.12198067505E+02 -0.68860242003E+01 -0.24574159273E+02  0.28286029844E+02  0.51100000000E-03 0.  1.
         12    1    3    3    0    0 -0.12644258932E+02  0.55689092611E+01  0.30994783653E+02  0.33934741019E+02  0.00000000000E+00 0. -1.
</event>
<event>
 7    1  0.3597718E-013  0.7246155E+02  0.7816164E-02  0.1226708E+00
        -11   -1    0    0    0    0  0.00000000000E+00  0.00000000000E+00  0.45593999997E+02  0.45594000000E+02  0.51100000000E-03 0. -1.
         11   -1    0    0    0    0 -0.00000000000E+00 -0.00000000000E+00 -0.45593999997E+02  0.45594000000E+02  0.51100000000E-03 0.  1.
    9900012    2    1    2    0    0  0.12756548962E+02 -0.46605263081E+01 -0.12893021175E+02  0.72461547002E+02  0.69999969657E+02 0.  0.
         12    1    1    2    0    0 -0.12756548962E+02  0.46605263081E+01  0.12893021175E+02  0.18726452998E+02  0.00000000000E+00 0. -1.
         11    1    3    3    0    0 -0.10851022013E+02 -0.67320430247E+01 -0.80660806028E+01  0.15103865021E+02  0.51100000000E-03 0. -1.
        -11    1    3    3    0    0  0.22018169641E+02  0.79906450323E+01 -0.26187929887E+02  0.35134852702E+02  0.51100000000E-03 0.  1.
         12    1    3    3    0    0  0.15894013346E+01 -0.59191283157E+01  0.21360989315E+02  0.22222829279E+02  0.00000000000E+00 0. -1.
</event>
<event>
 7    1  0.3597718E-013  0.7246156E+02  0.7816164E-02  0.1226708E+00
        -11   -1    0    0    0    0  0.00000000000E+00  0.00000000000E+00  0.45593999997E+02  0.45594000000E+02  0.51100000000E-03 0. -1.
         11   -1    0    0    0    0 -0.00000000000E+00 -0.00000000000E+00 -0.45593999997E+02  0.45594000000E+02  0.51100000000E-03 0.  1.
    9900012    2    1    2    0    0  0.10742864879E+01 -0.15105591842E+02 -0.11015746762E+02  0.72461556849E+02  0.69999982486E+02 0.  0.
         12    1    1    2    0    0 -0.10742864879E+01  0.15105591842E+02  0.11015746762E+02  0.18726443151E+02  0.00000000000E+00 0. -1.
         11    1    3    3    0    0  0.10490905233E+02  0.20928876124E+01  0.16667754683E+02  0.19805386075E+02  0.51100000000E-03 0. -1.
        -11    1    3    3    0    0  0.15849246558E+02 -0.43578329320E+01 -0.95606421674E+01  0.19015656792E+02  0.51100000000E-03 0.  1.
        -12    1    3    3    0    0 -0.25265865303E+02 -0.12840646522E+02 -0.18122859277E+02  0.33640513982E+02  0.00000000000E+00 0.  1.
</event>
<event>
 7    1  0.3597718E-013  0.7246154E+02  0.7816164E-02  0.1226708E+00
        -11   -1    0    0    0    0  0.00000000000E+00  0.00000000000E+00  0.45593999997E+02  0.45594000000E+02  0.51100000000E-03 0. -1.
         11   -1    0    0    0    0 -0.00000000000E+00 -0.00000000000E+00 -0.45593999997E+02  0.45594000000E+02  0.51100000000E-03 0.  1.
    9900012    2    1    2    0    0 -0.10543823132E+02  0.92457537565E+01 -0.12410642856E+02  0.72461542117E+02  0.69999963293E+02 0.  0.
         12    1    1    2    0    0  0.10543823132E+02 -0.92457537565E+01  0.12410642856E+02  0.18726457883E+02  0.00000000000E+00 0. -1.
         11    1    3    3    0    0  0.10657325458E+02  0.17226953112E+02  0.98538346178E+01  0.22526530057E+02  0.51100000000E-03 0. -1.
        -11    1    3    3    0    0  0.10076241890E+02 -0.79412478980E+01 -0.10280763619E+02  0.16440443110E+02  0.51100000000E-03 0.  1.
        -12    1    3    3    0    0 -0.31277390480E+02 -0.39951457855E-01 -0.11983713854E+02  0.33494568950E+02  0.00000000000E+00 0.  1.
</event>
<event>
 7    1  0.3597718E-013  0.7246157E+02  0.7816164E-02  0.1226708E+00
        -11   -1    0    0    0    0  0.00000000000E+00  0.00000000000E+00  0.45593999997E+02  0.45594000000E+02  0.51100000000E-03 0.  1.
         11   -1    0    0    0    0 -0.00000000000E+00 -0.00000000000E+00 -0.45593999997E+02  0.45594000000E+02  0.51100000000E-03 0. -1.
    9900012    2    1    2    0    0  0.79742496479E+01  0.86943783965E+01  0.14542978857E+02  0.72461571959E+02  0.70000002168E+02 0.  0.
         12    1    1    2    0    0 -0.79742496479E+01 -0.86943783965E+01 -0.14542978857E+02  0.18726428041E+02  0.00000000000E+00 0. -1.
         11    1    3    3    0    0 -0.17128382378E+02 -0.14631014126E+02 -0.23953881573E+01  0.22653607703E+02  0.51100000000E-03 0. -1.
        -11    1    3    3    0    0 -0.10512547968E+01  0.84267181073E+01 -0.72716615281E+01  0.11179972109E+02  0.51100000000E-03 0.  1.
        -12    1    3    3    0    0  0.26153886823E+02  0.14898674415E+02  0.24210028543E+02  0.38627992147E+02  0.00000000000E+00 0.  1.
</event>
<event>
 7    1  0.3597718E-013  0.7246168E+02  0.7816164E-02  0.1226708E+00
        -11   -1    0    0    0    0  0.00000000000E+00  0.00000000000E+00  0.45593999997E+02  0.45594000000E+02  0.51100000000E-03 0. -1.
         11   -1    0    0    0    0 -0.00000000000E+00 -0.00000000000E+00 -0.45593999997E+02  0.45594000000E+02  0.51100000000E-03 0.  1.
    9900012    2    1    2    0    0 -0.19647247900E+01 -0.17234677493E+02 -0.70555543887E+01  0.72461678964E+02  0.70000141563E+02 0.  0.
         12    1    1    2    0    0  0.19647247900E+01  0.17234677493E+02  0.70555543887E+01  0.18726321036E+02  0.00000000000E+00 0. -1.
         11    1    3    3    0    0  0.11558247441E+02 -0.82777107315E+01  0.19926329009E+02  0.24477993523E+02  0.51100000000E-03 0. -1.
        -11    1    3    3    0    0  0.79418719739E+01 -0.52132764866E+01  0.38325278316E+01  0.10244015424E+02  0.51100000000E-03 0.  1.
        -12    1    3    3    0    0 -0.21464844205E+02 -0.37436902750E+01 -0.30814411229E+02  0.37739670017E+02  0.00000000000E+00 0.  1.
</event>
<event>
 7    1  0.3597718E-013  0.7246228E+02  0.7816164E-02  0.1226706E+00
        -11   -1    0    0    0    0  0.00000000000E+00  0.00000000000E+00  0.45593999997E+02  0.45594000000E+02  0.51100000000E-03 0. -1.
         11   -1    0    0    0    0 -0.00000000000E+00 -0.00000000000E+00 -0.45593999997E+02  0.45594000000E+02  0.51100000000E-03 0.  1.
    9900012    2    1    2    0    0  0.82100467181E+01 -0.77481049823E+00 -0.16812120767E+02  0.72462279637E+02  0.70000924045E+02 0.  0.
         12    1    1    2    0    0 -0.82100467181E+01  0.77481049823E+00  0.16812120767E+02  0.18725720363E+02  0.00000000000E+00 0. -1.
         11    1    3    3    0    0  0.20297855551E+01  0.92461454573E+01  0.10582608025E+02  0.14198691070E+02  0.51100000000E-03 0. -1.
        -11    1    3    3    0    0 -0.21509502714E+02  0.11555308531E+01 -0.10665874079E+02  0.24036531128E+02  0.51100000000E-03 0.  1.
        -12    1    3    3    0    0  0.27689763877E+02 -0.11176486809E+02 -0.16728854714E+02  0.34227057439E+02  0.00000000000E+00 0.  1.
</event>
<event>
 7    1  0.3597718E-013  0.7246156E+02  0.7816164E-02  0.1226708E+00
        -11   -1    0    0    0    0  0.00000000000E+00  0.00000000000E+00  0.45593999997E+02  0.45594000000E+02  0.51100000000E-03 0.  1.
         11   -1    0    0    0    0 -0.00000000000E+00 -0.00000000000E+00 -0.45593999997E+02  0.45594000000E+02  0.51100000000E-03 0. -1.
    9900012    2    1    2    0    0  0.15616888523E+02  0.93124183750E+01  0.44800775668E+01  0.72461563122E+02  0.69999990657E+02 0.  0.
         12    1    1    2    0    0 -0.15616888523E+02 -0.93124183750E+01 -0.44800775668E+01  0.18726436878E+02  0.00000000000E+00 0. -1.
         11    1    3    3    0    0  0.11409193220E+02  0.28510378528E+02 -0.13172902211E+02  0.33414618458E+02  0.51100000000E-03 0.  1.
        -11    1    3    3    0    0 -0.19774578653E+01 -0.17826359117E+02 -0.23275092418E+01  0.18086091853E+02  0.51100000000E-03 0. -1.
        -12    1    3    3    0    0  0.61851531678E+01 -0.13716010357E+01  0.19980489020E+02  0.20960852811E+02  0.00000000000E+00 0.  1.
</event>
<event>
 7    1  0.3597718E-013  0.7246158E+02  0.7816164E-02  0.1226708E+00
        -11   -1    0    0    0    0  0.00000000000E+00  0.00000000000E+00  0.45593999997E+02  0.45594000000E+02  0.51100000000E-03 0. -1.
         11   -1    0    0    0    0 -0.00000000000E+00 -0.00000000000E+00 -0.45593999997E+02  0.45594000000E+02  0.51100000000E-03 0.  1.
    9900012    2    1    2    0    0 -0.14960761986E+02  0.18999160566E+01 -0.11101563890E+02  0.72461580133E+02  0.70000012817E+02 0.  0.
         12    1    1    2    0    0  0.14960761986E+02 -0.18999160566E+01  0.11101563890E+02  0.18726419867E+02  0.00000000000E+00 0. -1.
         11    1    3    3    0    0  0.56861340067E+01  0.17817808369E+01  0.11145716456E+02  0.12638586095E+02  0.51100000000E-03 0. -1.
        -11    1    3    3    0    0  0.14819670274E+02  0.67687210030E+01 -0.16670741922E+02  0.23309908784E+02  0.51100000000E-03 0.  1.
         12    1    3    3    0    0 -0.35466566267E+02 -0.66505857833E+01 -0.55765384235E+01  0.36513085255E+02  0.00000000000E+00 0. -1.
</event>
<event>
 7    1  0.3597718E-013  0.7246155E+02  0.7816164E-02  0.1226708E+00
        -11   -1    0    0    0    0  0.00000000000E+00  0.00000000000E+00  0.45593999997E+02  0.45594000000E+02  0.51100000000E-03 0.  1.
         11   -1    0    0    0    0 -0.00000000000E+00 -0.00000000000E+00 -0.45593999997E+02  0.45594000000E+02  0.51100000000E-03 0. -1.
    9900012    2    1    2    0    0  0.10312944933E+02 -0.23064751167E+01  0.15459730808E+02  0.72461549794E+02  0.69999973295E+02 0.  0.
         12    1    1    2    0    0 -0.10312944933E+02  0.23064751167E+01 -0.15459730808E+02  0.18726450206E+02  0.00000000000E+00 0. -1.
         11    1    3    3    0    0 -0.52698939934E+01 -0.45906132106E+01 -0.69482318073E+01  0.98551224173E+01  0.51100000000E-03 0. -1.
        -11    1    3    3    0    0 -0.20398165645E+02 -0.33870455118E+01  0.17998833263E+01  0.20755645479E+02  0.51100000000E-03 0.  1.
         12    1    3    3    0    0  0.35981004572E+02  0.56711836057E+01  0.20608079289E+02  0.41850781898E+02  0.00000000000E+00 0. -1.
</event>
<event>
 7    1  0.3597718E-013  0.7246135E+02  0.7816164E-02  0.1226709E+00
        -11   -1    0    0    0    0  0.00000000000E+00  0.00000000000E+00  0.45593999997E+02  0.45594000000E+02  0.51100000000E-03 0. -1.
         11   -1    0    0    0    0 -0.00000000000E+00 -0.00000000000E+00 -0.45593999997E+02  0.45594000000E+02  0.51100000000E-03 0.  1.
    9900012    2    1    2    0    0 -0.35105972416E+01 -0.13835789272E+02 -0.12121631795E+02  0.72461352806E+02  0.69999716680E+02 0.  0.
         12    1    1    2    0    0  0.35105972416E+01  0.13835789272E+02  0.12121631795E+02  0.18726647194E+02  0.00000000000E+00 0. -1.
         11    1    3    3    0    0 -0.32794484389E+02 -0.10332061041E+02 -0.88006034591E+00  0.34394828073E+02  0.51100000000E-03 0. -1.
        -11    1    3    3    0    0 -0.21795718055E+01  0.58731498487E-01  0.26985436667E+01  0.34693112900E+01  0.51100000000E-03 0.  1.
        -12    1    3    3    0    0  0.31463458953E+02 -0.35624597296E+01 -0.13940115116E+02  0.34597213443E+02  0.00000000000E+00 0.  1.
</event>
<event>
 7    1  0.3597718E-013  0.7246157E+02  0.7816164E-02  0.1226708E+00
        -11   -1    0    0    0    0  0.00000000000E+00  0.00000000000E+00  0.45593999997E+02  0.45594000000E+02  0.51100000000E-03 0.  1.
         11   -1    0    0    0    0 -0.00000000000E+00 -0.00000000000E+00 -0.45593999997E+02  0.45594000000E+02  0.51100000000E-03 0. -1.
    9900012    2    1    2    0    0  0.95177970969E+01  0.40550485400E+01  0.15609203410E+02  0.72461571848E+02  0.70000002024E+02 0.  0.
         12    1    1    2    0    0 -0.95177970969E+01 -0.40550485400E+01 -0.15609203410E+02  0.18726428152E+02  0.00000000000E+00 0. -1.
         11    1    3    3    0    0 -0.12693167287E+02  0.90431859038E+00  0.13538245976E+01  0.12797153167E+02  0.51100000000E-03 0. -1.
        -11    1    3    3    0    0 -0.63628992418E+01  0.19313763056E+02 -0.58610885481E+01  0.21162709878E+02  0.51100000000E-03 0.  1.
        -12    1    3    3    0    0  0.28573863625E+02 -0.16163033106E+02  0.20116467361E+02  0.38501708803E+02  0.00000000000E+00 0.  1.
</event>
<event>
 7    1  0.3597718E-013  0.7246159E+02  0.7816164E-02  0.1226708E+00
        -11   -1    0    0    0    0  0.00000000000E+00  0.00000000000E+00  0.45593999997E+02  0.45594000000E+02  0.51100000000E-03 0.  1.
         11   -1    0    0    0    0 -0.00000000000E+00 -0.00000000000E+00 -0.45593999997E+02  0.45594000000E+02  0.51100000000E-03 0. -1.
    9900012    2    1    2    0    0 -0.91115379206E+01  0.12643260329E+02  0.10382987960E+02  0.72461585661E+02  0.70000020018E+02 0.  0.
         12    1    1    2    0    0  0.91115379206E+01 -0.12643260329E+02 -0.10382987960E+02  0.18726414339E+02  0.00000000000E+00 0. -1.
         11    1    3    3    0    0  0.43432135379E+01  0.26170761258E+01  0.17966141608E+01  0.53796295400E+01  0.51100000000E-03 0. -1.
        -11    1    3    3    0    0 -0.14065265418E+02 -0.20016378690E+02  0.23157947986E+02  0.33686461113E+02  0.51100000000E-03 0.  1.
         12    1    3    3    0    0  0.61051395962E+00  0.30042562894E+02 -0.14571574187E+02  0.33395495008E+02  0.00000000000E+00 0. -1.
</event>
<event>
 7    1  0.3597718E-013  0.7246159E+02  0.7816164E-02  0.1226708E+00
        -11   -1    0    0    0    0  0.00000000000E+00  0.00000000000E+00  0.45593999997E+02  0.45594000000E+02  0.51100000000E-03 0.  1.
         11   -1    0    0    0    0 -0.00000000000E+00 -0.00000000000E+00 -0.45593999997E+02  0.45594000000E+02  0.51100000000E-03 0. -1.
    9900012    2    1    2    0    0 -0.92912953512E+01  0.11232968988E+02  0.11754597030E+02  0.72461593166E+02  0.70000029794E+02 0.  0.
         12    1    1    2    0    0  0.92912953512E+01 -0.11232968988E+02 -0.11754597030E+02  0.18726406834E+02  0.00000000000E+00 0. -1.
         11    1    3    3    0    0 -0.18264074522E+02  0.41208821117E+01  0.29174524925E+02  0.34665703402E+02  0.51100000000E-03 0. -1.
        -11    1    3    3    0    0 -0.49694321520E+01 -0.25140650995E+01  0.64517425841E+01  0.85229549964E+01  0.51100000000E-03 0.  1.
         12    1    3    3    0    0  0.13942211323E+02  0.96261519760E+01 -0.23871670479E+02  0.29272934767E+02  0.00000000000E+00 0. -1.
</event>
<event>
 7    1  0.3597718E-013  0.7246160E+02  0.7816164E-02  0.1226708E+00
        -11   -1    0    0    0    0  0.00000000000E+00  0.00000000000E+00  0.45593999997E+02  0.45594000000E+02  0.51100000000E-03 0.  1.
         11   -1    0    0    0    0 -0.00000000000E+00 -0.00000000000E+00 -0.45593999997E+02  0.45594000000E+02  0.51100000000E-03 0. -1.
    9900012    2    1    2    0    0  0.21437094851E+01 -0.81015333150E+01  0.16746570234E+02  0.72461602935E+02  0.70000042521E+02 0.  0.
         12    1    1    2    0    0 -0.21437094851E+01  0.81015333150E+01 -0.16746570234E+02  0.18726397065E+02  0.00000000000E+00 0. -1.
         11    1    3    3    0    0 -0.25562759593E+02 -0.58203972502E+01 -0.76347856362E+01  0.27306073576E+02  0.51100000000E-03 0. -1.
        -11    1    3    3    0    0  0.10015905189E+02 -0.91236986234E+00 -0.46899939995E+01  0.11097153666E+02  0.51100000000E-03 0.  1.
        -12    1    3    3    0    0  0.17690563889E+02 -0.13687662024E+01  0.29071349870E+02  0.34058375694E+02  0.00000000000E+00 0.  1.
</event>
<event>
 7    1  0.3597718E-013  0.7246156E+02  0.7816164E-02  0.1226708E+00
        -11   -1    0    0    0    0  0.00000000000E+00  0.00000000000E+00  0.45593999997E+02  0.45594000000E+02  0.51100000000E-03 0. -1.
         11   -1    0    0    0    0 -0.00000000000E+00 -0.00000000000E+00 -0.45593999997E+02  0.45594000000E+02  0.51100000000E-03 0.  1.
    9900012    2    1    2    0    0 -0.96612982395E+01 -0.88099458543E+00 -0.16017580344E+02  0.72461555724E+02  0.69999981020E+02 0.  0.
         12    1    1    2    0    0  0.96612982395E+01  0.88099458543E+00  0.16017580344E+02  0.18726444276E+02  0.00000000000E+00 0. -1.
         11    1    3    3    0    0  0.64055769576E+01  0.33280500395E+01  0.18087182565E+02  0.19474432126E+02  0.51100000000E-03 0. -1.
        -11    1    3    3    0    0 -0.15851683165E+01  0.37949708375E+01  0.73109780632E+01  0.83883826064E+01  0.51100000000E-03 0.  1.
        -12    1    3    3    0    0 -0.14481706881E+02 -0.80040154625E+01 -0.41415740973E+02  0.44598740992E+02  0.00000000000E+00 0.  1.
</event>
<event>
 7    1  0.5564801E-013  0.7246155E+02  0.7816164E-02  0.1226708E+00
        -11   -1    0    0    0    0  0.00000000000E+00  0.00000000000E+00  0.45593999997E+02  0.45594000000E+02  0.51100000000E-03 0. -1.
         11   -1    0    0    0    0 -0.00000000000E+00 -0.00000000000E+00 -0.45593999997E+02  0.45594000000E+02  0.51100000000E-03 0.  1.
    9900012    2    1    2    0    0  0.14874483128E+01 -0.64770195260E+01 -0.17507586302E+02  0.72461551790E+02  0.69999975895E+02 0.  0.
         12    1    1    2    0    0 -0.14874483128E+01  0.64770195260E+01  0.17507586302E+02  0.18726448210E+02  0.00000000000E+00 0. -1.
         11    1    3    3    0    0  0.97789796400E+01 -0.15930415935E+02  0.31281398051E+01  0.18952357467E+02  0.51100000000E-03 0. -1.
        -11    1    3    3    0    0 -0.67233403085E+01 -0.11250889278E+01 -0.34968342077E+02  0.35626592285E+02  0.51100000000E-03 0.  1.
         12    1    3    3    0    0 -0.15681910186E+01  0.10578485337E+02  0.14332615970E+02  0.17882602037E+02  0.00000000000E+00 0. -1.
</event>
<event>
 7    1  0.3597718E-013  0.7246160E+02  0.7816164E-02  0.1226708E+00
        -11   -1    0    0    0    0  0.00000000000E+00  0.00000000000E+00  0.45593999997E+02  0.45594000000E+02  0.51100000000E-03 0. -1.
         11   -1    0    0    0    0 -0.00000000000E+00 -0.00000000000E+00 -0.45593999997E+02  0.45594000000E+02  0.51100000000E-03 0.  1.
    9900012    2    1    2    0    0  0.66684955014E+01  0.10505095298E+02  0.13994726947E+02  0.72461595065E+02  0.70000032268E+02 0.  0.
         12    1    1    2    0    0 -0.66684955014E+01 -0.10505095298E+02 -0.13994726947E+02  0.18726404935E+02  0.00000000000E+00 0. -1.
         11    1    3    3    0    0  0.10168951240E+01 -0.16659625607E+01 -0.43148337662E+01  0.47357467878E+01  0.51100000000E-03 0. -1.
        -11    1    3    3    0    0  0.20959703768E+02  0.53356033880E+01 -0.17737235612E+02  0.27971188266E+02  0.51100000000E-03 0.  1.
         12    1    3    3    0    0 -0.15308103391E+02  0.68354544708E+01  0.36046796326E+02  0.39754660011E+02  0.00000000000E+00 0. -1.
</event>
<event>
 7    1  0.3597718E-013  0.7246166E+02  0.7816164E-02  0.1226708E+00
        -11   -1    0    0    0    0  0.00000000000E+00  0.00000000000E+00  0.45593999997E+02  0.45594000000E+02  0.51100000000E-03 0. -1.
         11   -1    0    0    0    0 -0.00000000000E+00 -0.00000000000E+00 -0.45593999997E+02  0.45594000000E+02  0.51100000000E-03 0.  1.
    9900012    2    1    2    0    0  0.80038925534E+01 -0.16819384300E+02 -0.19292386629E+01  0.72461656362E+02  0.70000112119E+02 0.  0.
         12    1    1    2    0    0 -0.80038925534E+01  0.16819384300E+02  0.19292386629E+01  0.18726343638E+02  0.00000000000E+00 0. -1.
         11    1    3    3    0    0  0.76824648487E+01 -0.88614019143E+01  0.86320248473E+01  0.14562162039E+02  0.51100000000E-03 0. -1.
        -11    1    3    3    0    0  0.24537082741E+02  0.80164242290E+01  0.27916922016E+01  0.25963917895E+02  0.51100000000E-03 0.  1.
         12    1    3    3    0    0 -0.24215655036E+02 -0.15974406615E+02 -0.13352955712E+02  0.31935576427E+02  0.00000000000E+00 0. -1.
</event>
<event>
 7    1  0.3597718E-013  0.7246155E+02  0.7816164E-02  0.1226708E+00
        -11   -1    0    0    0    0  0.00000000000E+00  0.00000000000E+00  0.45593999997E+02  0.45594000000E+02  0.51100000000E-03 0. -1.
         11   -1    0    0    0    0 -0.00000000000E+00 -0.00000000000E+00 -0.45593999997E+02  0.45594000000E+02  0.51100000000E-03 0.  1.
    9900012    2    1    2    0    0 -0.14614481087E+02 -0.11665101888E+02  0.10109992337E+01  0.72461554022E+02  0.69999978803E+02 0.  0.
         12    1    1    2    0    0  0.14614481087E+02  0.11665101888E+02 -0.10109992337E+01  0.18726445978E+02  0.00000000000E+00 0. -1.
         11    1    3    3    0    0  0.44888429026E+01  0.24669410285E+01  0.50134960162E+01  0.71673322240E+01  0.51100000000E-03 0. -1.
        -11    1    3    3    0    0  0.21426061525E+02 -0.72335641611E+01 -0.80012498844E+01  0.23987925357E+02  0.51100000000E-03 0.  1.
         12    1    3    3    0    0 -0.40529385515E+02 -0.68984787555E+01  0.39987531019E+01  0.41306296442E+02  0.00000000000E+00 0. -1.
</event>
<event>
 7    1  0.4680056E-013  0.7246162E+02  0.7816164E-02  0.1226708E+00
        -11   -1    0    0    0    0  0.00000000000E+00  0.00000000000E+00  0.45593999997E+02  0.45594000000E+02  0.51100000000E-03 0. -1.
         11   -1    0    0    0    0 -0.00000000000E+00 -0.00000000000E+00 -0.45593999997E+02  0.45594000000E+02  0.51100000000E-03 0.  1.
    9900012    2    1    2    0    0  0.11447015056E+02 -0.52130002826E+01 -0.13873276178E+02  0.72461619742E+02  0.70000064415E+02 0.  0.
         12    1    1    2    0    0 -0.11447015056E+02  0.52130002826E+01  0.13873276178E+02  0.18726380258E+02  0.00000000000E+00 0. -1.
         11    1    3    3    0    0  0.56190418812E+01 -0.12967375585E+01  0.13764494275E+02  0.14923687978E+02  0.51100000000E-03 0. -1.
        -11    1    3    3    0    0  0.26269253885E+02 -0.89252159669E+01 -0.83057937264E+01  0.28960652435E+02  0.51100000000E-03 0.  1.
         12    1    3    3    0    0 -0.20441280711E+02  0.50089532429E+01 -0.19331976727E+02  0.28577279329E+02  0.00000000000E+00 0. -1.
</event>
<event>
 7    1  0.3597718E-013  0.7246152E+02  0.7816164E-02  0.1226708E+00
        -11   -1    0    0    0    0  0.00000000000E+00  0.00000000000E+00  0.45593999997E+02  0.45594000000E+02  0.51100000000E-03 0. -1.
         11   -1    0    0    0    0 -0.00000000000E+00 -0.00000000000E+00 -0.45593999997E+02  0.45594000000E+02  0.51100000000E-03 0.  1.
    9900012    2    1    2    0    0  0.18196162603E+02  0.21942804195E+01  0.38426279317E+01  0.72461521702E+02  0.69999936699E+02 0.  0.
         12    1    1    2    0    0 -0.18196162603E+02 -0.21942804195E+01 -0.38426279317E+01  0.18726478298E+02  0.00000000000E+00 0. -1.
         11    1    3    3    0    0  0.18963774642E+02 -0.10996264256E+02 -0.20255959590E+02  0.29847051369E+02  0.51100000000E-03 0. -1.
        -11    1    3    3    0    0  0.10818454833E+02  0.78717214178E+01 -0.20388702440E+01  0.13533660081E+02  0.51100000000E-03 0.  1.
        -12    1    3    3    0    0 -0.11586066872E+02  0.53188232582E+01  0.26137457766E+02  0.29080810251E+02  0.00000000000E+00 0.  1.
</event>
<event>
 7    1  0.3597718E-013  0.7246160E+02  0.7816164E-02  0.1226708E+00
        -11   -1    0    0    0    0  0.00000000000E+00  0.00000000000E+00  0.45593999997E+02  0.45594000000E+02  0.51100000000E-03 0.  1.
         11   -1    0    0    0    0 -0.00000000000E+00 -0.00000000000E+00 -0.45593999997E+02  0.45594000000E+02  0.51100000000E-03 0. -1.
    9900012    2    1    2    0    0  0.18061453066E+02  0.25642848119E+00  0.49392650588E+01  0.72461596668E+02  0.70000034357E+02 0.  0.
         12    1    1    2    0    0 -0.18061453066E+02 -0.25642848119E+00 -0.49392650588E+01  0.18726403332E+02  0.00000000000E+00 0. -1.
         11    1    3    3    0    0  0.10869077179E+02  0.68635224842E+01  0.99092937482E+01  0.16230800426E+02  0.51100000000E-03 0. -1.
        -11    1    3    3    0    0  0.27021348993E+02  0.11187128137E+02 -0.74281619132E+00  0.29255032277E+02  0.51100000000E-03 0.  1.
         12    1    3    3    0    0 -0.19828973106E+02 -0.17794222140E+02 -0.42272124981E+01  0.26975763966E+02  0.00000000000E+00 0. -1.
</event>
<event>
 7    1  0.3597718E-013  0.7246154E+02  0.7816164E-02  0.1226708E+00
        -11   -1    0    0    0    0  0.00000000000E+00  0.00000000000E+00  0.45593999997E+02  0.45594000000E+02  0.51100000000E-03 0. -1.
         11   -1    0    0    0    0 -0.00000000000E+00 -0.00000000000E+00 -0.45593999997E+02  0.45594000000E+02  0.51100000000E-03 0.  1.
    9900012    2    1    2    0    0  0.12849701421E+02 -0.65556805462E+01  0.11941037509E+02  0.72461544094E+02  0.69999965869E+02 0.  0.
         12    1    1    2    0    0 -0.12849701421E+02  0.65556805462E+01 -0.11941037509E+02  0.18726455906E+02  0.00000000000E+00 0. -1.
         11    1    3    3    0    0  0.11770097806E+01 -0.90177196884E+00  0.82187879008E+01  0.83514681061E+01  0.51100000000E-03 0. -1.
        -11    1    3    3    0    0 -0.53317299064E+01 -0.31934909985E+02 -0.13216057088E+01  0.32403895776E+02  0.51100000000E-03 0.  1.
        -12    1    3    3    0    0  0.17004421547E+02  0.26281001408E+02  0.50438553167E+01  0.31706180211E+02  0.00000000000E+00 0.  1.
</event>
<event>
 7    1  0.3597718E-013  0.7246158E+02  0.7816164E-02  0.1226708E+00
        -11   -1    0    0    0    0  0.00000000000E+00  0.00000000000E+00  0.45593999997E+02  0.45594000000E+02  0.51100000000E-03 0.  1.
         11   -1    0    0    0    0 -0.00000000000E+00 -0.00000000000E+00 -0.45593999997E+02  0.45594000000E+02  0.51100000000E-03 0. -1.
    9900012    2    1    2    0    0  0.64075249450E+01 -0.91884603931E+01  0.15006489528E+02  0.72461577270E+02  0.70000009087E+02 0.  0.
         12    1    1    2    0    0 -0.64075249450E+01  0.91884603931E+01 -0.15006489528E+02  0.18726422730E+02  0.00000000000E+00 0. -1.
         11    1    3    3    0    0  0.28365431852E+01 -0.12338879440E+02 -0.19191671106E+02  0.22991610713E+02  0.51100000000E-03 0. -1.
        -11    1    3    3    0    0  0.83476891284E+01  0.12634136896E+01 -0.50827855006E+01  0.98546860245E+01  0.51100000000E-03 0.  1.
        -12    1    3    3    0    0 -0.47767073687E+01  0.18870053574E+01  0.39280946134E+02  0.39615280533E+02  0.00000000000E+00 0.  1.
</event>
<event>
 7    1  0.3597718E-013  0.7246153E+02  0.7816164E-02  0.1226708E+00
        -11   -1    0    0    0    0  0.00000000000E+00  0.00000000000E+00  0.45593999997E+02  0.45594000000E+02  0.51100000000E-03 0.  1.
         11   -1    0    0    0    0 -0.00000000000E+00 -0.00000000000E+00 -0.45593999997E+02  0.45594000000E+02  0.51100000000E-03 0. -1.
    9900012    2    1    2    0    0 -0.18011378703E+01 -0.13268854175E+02  0.13090994163E+02  0.72461528979E+02  0.69999946179E+02 0.  0.
         12    1    1    2    0    0  0.18011378703E+01  0.13268854175E+02 -0.13090994163E+02  0.18726471021E+02  0.00000000000E+00 0. -1.
         11    1    3    3    0    0  0.11997795015E+02  0.17735850072E+01 -0.10010800333E+02  0.15726055213E+02  0.51100000000E-03 0. -1.
        -11    1    3    3    0    0 -0.30605799363E+01  0.16387750599E+02  0.72495531787E+00  0.16686853499E+02  0.51100000000E-03 0.  1.
        -12    1    3    3    0    0 -0.10738352949E+02 -0.31430189780E+02  0.22376839178E+02  0.40048620267E+02  0.00000000000E+00 0.  1.
</event>
<event>
 7    1  0.3597718E-013  0.7246153E+02  0.7816164E-02  0.1226708E+00
        -11   -1    0    0    0    0  0.00000000000E+00  0.00000000000E+00  0.45593999997E+02  0.45594000000E+02  0.51100000000E-03 0. -1.
         11   -1    0    0    0    0 -0.00000000000E+00 -0.00000000000E+00 -0.45593999997E+02  0.45594000000E+02  0.51100000000E-03 0.  1.
    9900012    2    1    2    0    0 -0.15282486844E+02 -0.10250539993E+02 -0.34717118911E+01  0.72461527888E+02  0.69999944758E+02 0.  0.
         12    1    1    2    0    0  0.15282486844E+02  0.10250539993E+02  0.34717118911E+01  0.18726472112E+02  0.00000000000E+00 0. -1.
         11    1    3    3    0    0  0.15062681746E+01 -0.19346857507E+02 -0.28551290831E+01  0.19614318788E+02  0.51100000000E-03 0. -1.
        -11    1    3    3    0    0 -0.52995039708E+01 -0.47043981177E+01 -0.23048360746E+02  0.24113129977E+02  0.51100000000E-03 0.  1.
         12    1    3    3    0    0 -0.11489251048E+02  0.13800715631E+02  0.22431777938E+02  0.28734079123E+02  0.00000000000E+00 0. -1.
</event>
<event>
 7    1  0.3597718E-013  0.7246135E+02  0.7816164E-02  0.1226709E+00
        -11   -1    0    0    0    0  0.00000000000E+00  0.00000000000E+00  0.45593999997E+02  0.45594000000E+02  0.51100000000E-03 0. -1.
         11   -1    0    0    0    0 -0.00000000000E+00 -0.00000000000E+00 -0.45593999997E+02  0.45594000000E+02  0.51100000000E-03 0.  1.
    9900012    2    1    2    0    0  0.95080609518E+01 -0.35293811149E+01 -0.15742542860E+02  0.72461350278E+02  0.69999713388E+02 0.  0.
         12    1    1    2    0    0 -0.95080609518E+01  0.35293811149E+01  0.15742542860E+02  0.18726649722E+02  0.00000000000E+00 0. -1.
         11    1    3    3    0    0  0.63753476785E+01 -0.16330636550E+01  0.16377667510E+01  0.67819049769E+01  0.51100000000E-03 0. -1.
        -11    1    3    3    0    0  0.19123471951E+02 -0.46546463656E+01  0.18052921674E+02  0.26707319099E+02  0.51100000000E-03 0.  1.
        -12    1    3    3    0    0 -0.15990758678E+02  0.27583289057E+01 -0.35433231285E+02  0.38972126202E+02  0.00000000000E+00 0.  1.
</event>
<event>
 7    1  0.3597718E-013  0.7246132E+02  0.7816164E-02  0.1226709E+00
        -11   -1    0    0    0    0  0.00000000000E+00  0.00000000000E+00  0.45593999997E+02  0.45594000000E+02  0.51100000000E-03 0.  1.
         11   -1    0    0    0    0 -0.00000000000E+00 -0.00000000000E+00 -0.45593999997E+02  0.45594000000E+02  0.51100000000E-03 0. -1.
    9900012    2    1    2    0    0  0.11902801045E+02 -0.10498206481E+02  0.99397942658E+01  0.72461320580E+02  0.69999674700E+02 0.  0.
         12    1    1    2    0    0 -0.11902801045E+02  0.10498206481E+02 -0.99397942658E+01  0.18726679420E+02  0.00000000000E+00 0. -1.
         11    1    3    3    0    0 -0.31214473417E+01  0.20552561633E+02 -0.70366838948E+01  0.21946893714E+02  0.51100000000E-03 0. -1.
        -11    1    3    3    0    0  0.40677711963E+01  0.51317632124E+00  0.16602076326E+02  0.17100849424E+02  0.51100000000E-03 0.  1.
        -12    1    3    3    0    0  0.10956477191E+02 -0.31563944435E+02  0.37440183463E+00  0.33413577442E+02  0.00000000000E+00 0.  1.
</event>
<event>
 7    1  0.3597718E-013  0.7246151E+02  0.7816164E-02  0.1226708E+00
        -11   -1    0    0    0    0  0.00000000000E+00  0.00000000000E+00  0.45593999997E+02  0.45594000000E+02  0.51100000000E-03 0. -1.
         11   -1    0    0    0    0 -0.00000000000E+00 -0.00000000000E+00 -0.45593999997E+02  0.45594000000E+02  0.51100000000E-03 0.  1.
    9900012    2    1    2    0    0 -0.12262326656E+02  0.12032732385E+02  0.74518619723E+01  0.72461506721E+02  0.69999917184E+02 0.  0.
         12    1    1    2    0    0  0.12262326656E+02 -0.12032732385E+02 -0.74518619723E+01  0.18726493279E+02  0.00000000000E+00 0. -1.
         11    1    3    3    0    0  0.10023770535E+02 -0.20309160683E+02  0.34315931726E+00  0.22650733807E+02  0.51100000000E-03 0. -1.
        -11    1    3    3    0    0  0.74053957027E+01  0.78917989782E+01  0.10397168137E+01  0.10872046171E+02  0.51100000000E-03 0.  1.
        -12    1    3    3    0    0 -0.29691492893E+02  0.24450094090E+02  0.60689858413E+01  0.38938726744E+02  0.00000000000E+00 0.  1.
</event>
<event>
 7    1  0.3597718E-013  0.7246194E+02  0.7816164E-02  0.1226707E+00
        -11   -1    0    0    0    0  0.00000000000E+00  0.00000000000E+00  0.45593999997E+02  0.45594000000E+02  0.51100000000E-03 0. -1.
         11   -1    0    0    0    0 -0.00000000000E+00 -0.00000000000E+00 -0.45593999997E+02  0.45594000000E+02  0.51100000000E-03 0.  1.
    9900012    2    1    2    0    0 -0.56173288387E+01 -0.11633448921E+02 -0.13556321458E+02  0.72461938787E+02  0.70000480029E+02 0.  0.
         12    1    1    2    0    0  0.56173288387E+01  0.11633448921E+02  0.13556321458E+02  0.18726061213E+02  0.00000000000E+00 0. -1.
         11    1    3    3    0    0  0.17418240989E+02  0.18356071205E+02 -0.50666316054E+01  0.25807193286E+02  0.51100000000E-03 0. -1.
        -11    1    3    3    0    0  0.42939162205E+01  0.10581758784E+01  0.36711134710E-01  0.44225332861E+01  0.51100000000E-03 0.  1.
        -12    1    3    3    0    0 -0.27329486048E+02 -0.31047696004E+02 -0.85264009870E+01  0.42232212215E+02  0.00000000000E+00 0.  1.
</event>
<event>
 7    1  0.3597718E-013  0.7246156E+02  0.7816164E-02  0.1226708E+00
        -11   -1    0    0    0    0  0.00000000000E+00  0.00000000000E+00  0.45593999997E+02  0.45594000000E+02  0.51100000000E-03 0.  1.
         11   -1    0    0    0    0 -0.00000000000E+00 -0.00000000000E+00 -0.45593999997E+02  0.45594000000E+02  0.51100000000E-03 0. -1.
    9900012    2    1    2    0    0  0.12760273541E+02 -0.13261279106E+02  0.34631692863E+01  0.72461557576E+02  0.69999983432E+02 0.  0.
         12    1    1    2    0    0 -0.12760273541E+02  0.13261279106E+02 -0.34631692863E+01  0.18726442424E+02  0.00000000000E+00 0. -1.
         11    1    3    3    0    0  0.75941608850E+01 -0.21844776825E+01 -0.28469058465E+02  0.29545397483E+02  0.51100000000E-03 0. -1.
        -11    1    3    3    0    0 -0.40421697643E+01  0.28481978689E+01 -0.18134484628E+01  0.52668741291E+01  0.51100000000E-03 0.  1.
        -12    1    3    3    0    0  0.92082824200E+01 -0.13924999292E+02  0.33745676214E+02  0.37649285964E+02  0.00000000000E+00 0.  1.
</event>
<event>
 7    1  0.3597718E-013  0.7246157E+02  0.7816164E-02  0.1226708E+00
        -11   -1    0    0    0    0  0.00000000000E+00  0.00000000000E+00  0.45593999997E+02  0.45594000000E+02  0.51100000000E-03 0.  1.
         11   -1    0    0    0    0 -0.00000000000E+00 -0.00000000000E+00 -0.45593999997E+02  0.45594000000E+02  0.51100000000E-03 0. -1.
    9900012    2    1    2    0    0 -0.13667714055E+02 -0.45097792537E+01  0.11980596839E+02  0.72461569026E+02  0.69999998347E+02 0.  0.
         12    1    1    2    0    0  0.13667714055E+02  0.45097792537E+01 -0.11980596839E+02  0.18726430974E+02  0.00000000000E+00 0. -1.
         11    1    3    3    0    0 -0.14009132114E+02 -0.21372467451E+02 -0.61166342444E+01  0.26276441202E+02  0.51100000000E-03 0. -1.
        -11    1    3    3    0    0 -0.33729866592E+00 -0.29891928677E+01  0.24981904559E+02  0.25162364754E+02  0.51100000000E-03 0.  1.
         12    1    3    3    0    0  0.67871672420E+00  0.19851881065E+02 -0.68846734750E+01  0.21022763069E+02  0.00000000000E+00 0. -1.
</event>
<event>
 7    1  0.3597718E-013  0.7246144E+02  0.7816164E-02  0.1226708E+00
        -11   -1    0    0    0    0  0.00000000000E+00  0.00000000000E+00  0.45593999997E+02  0.45594000000E+02  0.51100000000E-03 0.  1.
         11   -1    0    0    0    0 -0.00000000000E+00 -0.00000000000E+00 -0.45593999997E+02  0.45594000000E+02  0.51100000000E-03 0. -1.
    9900012    2    1    2    0    0  0.14313107977E+02 -0.10569665149E+02 -0.58396267522E+01  0.72461438064E+02  0.69999827746E+02 0.  0.
         12    1    1    2    0    0 -0.14313107977E+02  0.10569665149E+02  0.58396267522E+01  0.18726561936E+02  0.00000000000E+00 0. -1.
         11    1    3    3    0    0 -0.13803774565E+02  0.13824552874E+02 -0.19423292809E+01  0.19632501056E+02  0.51100000000E-03 0. -1.
        -11    1    3    3    0    0 -0.76993221634E+01 -0.35371887047E+01  0.57938018380E+01  0.10264472987E+02  0.51100000000E-03 0.  1.
        -12    1    3    3    0    0  0.35816204706E+02 -0.20857029319E+02 -0.96910993093E+01  0.42564464021E+02  0.00000000000E+00 0.  1.
</event>
<event>
 7    1  0.3597718E-013  0.7246143E+02  0.7816164E-02  0.1226708E+00
        -11   -1    0    0    0    0  0.00000000000E+00  0.00000000000E+00  0.45593999997E+02  0.45594000000E+02  0.51100000000E-03 0.  1.
         11   -1    0    0    0    0 -0.00000000000E+00 -0.00000000000E+00 -0.45593999997E+02  0.45594000000E+02  0.51100000000E-03 0. -1.
    9900012    2    1    2    0    0 -0.43192184468E+01 -0.18004825197E+02  0.28026685319E+01  0.72461432529E+02  0.69999820534E+02 0.  0.
         12    1    1    2    0    0  0.43192184468E+01  0.18004825197E+02 -0.28026685319E+01  0.18726567471E+02  0.00000000000E+00 0. -1.
         11    1    3    3    0    0 -0.29393862777E+01 -0.22006094007E+01  0.40734111379E+01  0.54840999247E+01  0.51100000000E-03 0. -1.
        -11    1    3    3    0    0 -0.10339263909E+02 -0.15498022300E+02  0.29520449819E+02  0.34907678685E+02  0.51100000000E-03 0.  1.
         12    1    3    3    0    0  0.89594317398E+01 -0.30619349665E+00 -0.30791192425E+02  0.32069653919E+02  0.00000000000E+00 0. -1.
</event>
<event>
 7    1  0.3597718E-013  0.7246172E+02  0.7816164E-02  0.1226708E+00
        -11   -1    0    0    0    0  0.00000000000E+00  0.00000000000E+00  0.45593999997E+02  0.45594000000E+02  0.51100000000E-03 0.  1.
         11   -1    0    0    0    0 -0.00000000000E+00 -0.00000000000E+00 -0.45593999997E+02  0.45594000000E+02  0.51100000000E-03 0. -1.
    9900012    2    1    2    0    0 -0.39445094213E+01  0.18264844400E+02  0.12287625492E+01  0.72461720259E+02  0.70000195356E+02 0.  0.
         12    1    1    2    0    0  0.39445094213E+01 -0.18264844400E+02 -0.12287625492E+01  0.18726279741E+02  0.00000000000E+00 0. -1.
         11    1    3    3    0    0 -0.23269893291E+02  0.11646322477E+02 -0.24840565864E+02  0.35974692128E+02  0.51100000000E-03 0. -1.
        -11    1    3    3    0    0  0.74704640267E+00  0.68902303963E+01  0.64919953238E+01  0.94962812083E+01  0.51100000000E-03 0.  1.
        -12    1    3    3    0    0  0.18578337467E+02 -0.27170847312E+00  0.19577333089E+02  0.26990746922E+02  0.00000000000E+00 0.  1.
</event>
<event>
 7    1  0.3597718E-013  0.7246159E+02  0.7816164E-02  0.1226708E+00
        -11   -1    0    0    0    0  0.00000000000E+00  0.00000000000E+00  0.45593999997E+02  0.45594000000E+02  0.51100000000E-03 0.  1.
         11   -1    0    0    0    0 -0.00000000000E+00 -0.00000000000E+00 -0.45593999997E+02  0.45594000000E+02  0.51100000000E-03 0. -1.
    9900012    2    1    2    0    0 -0.13491401203E+02 -0.10345185755E+02  0.78509631371E+01  0.72461590923E+02  0.70000026873E+02 0.  0.
         12    1    1    2    0    0  0.13491401203E+02  0.10345185755E+02 -0.78509631371E+01  0.18726409077E+02  0.00000000000E+00 0. -1.
         11    1    3    3    0    0 -0.37374764046E+01 -0.43656075143E+01 -0.29967451982E+02  0.30513528760E+02  0.51100000000E-03 0. -1.
        -11    1    3    3    0    0  0.30582492504E+01 -0.28600180947E+01  0.46654063217E+01  0.62688602144E+01  0.51100000000E-03 0.  1.
        -12    1    3    3    0    0 -0.12812174049E+02 -0.31195601458E+01  0.33153008797E+02  0.35679201949E+02  0.00000000000E+00 0.  1.
</event>
<event>
 7    1  0.3597718E-013  0.7246159E+02  0.7816164E-02  0.1226708E+00
        -11   -1    0    0    0    0  0.00000000000E+00  0.00000000000E+00  0.45593999997E+02  0.45594000000E+02  0.51100000000E-03 0.  1.
         11   -1    0    0    0    0 -0.00000000000E+00 -0.00000000000E+00 -0.45593999997E+02  0.45594000000E+02  0.51100000000E-03 0. -1.
    9900012    2    1    2    0    0 -0.67039234293E+01 -0.71702915450E-01  0.17485161853E+02  0.72461585082E+02  0.70000019263E+02 0.  0.
         12    1    1    2    0    0  0.67039234293E+01  0.71702915450E-01 -0.17485161853E+02  0.18726414918E+02  0.00000000000E+00 0. -1.
         11    1    3    3    0    0  0.17646334909E+02 -0.32491311706E+01  0.14508222956E+02  0.23074629416E+02  0.51100000000E-03 0. -1.
        -11    1    3    3    0    0 -0.15372800083E+02 -0.15464422530E+02  0.14029850193E+02  0.25928903626E+02  0.51100000000E-03 0.  1.
         12    1    3    3    0    0 -0.89774582548E+01  0.18641850785E+02 -0.11052911295E+02  0.23458052040E+02  0.00000000000E+00 0. -1.
</event>
<event>
 7    1  0.3597718E-013  0.7246159E+02  0.7816164E-02  0.1226708E+00
        -11   -1    0    0    0    0  0.00000000000E+00  0.00000000000E+00  0.45593999997E+02  0.45594000000E+02  0.51100000000E-03 0. -1.
         11   -1    0    0    0    0 -0.00000000000E+00 -0.00000000000E+00 -0.45593999997E+02  0.45594000000E+02  0.51100000000E-03 0.  1.
    9900012    2    1    2    0    0 -0.73378245063E+01  0.11059856818E+02 -0.13210387778E+02  0.72461589598E+02  0.70000025146E+02 0.  0.
         12    1    1    2    0    0  0.73378245063E+01 -0.11059856818E+02  0.13210387778E+02  0.18726410402E+02  0.00000000000E+00 0. -1.
         11    1    3    3    0    0  0.11855886052E+02  0.58461538064E+01  0.20991820977E+02  0.24807178328E+02  0.51100000000E-03 0. -1.
        -11    1    3    3    0    0  0.17248264294E+01 -0.28462584199E+01  0.28278819163E+01  0.43672794276E+01  0.51100000000E-03 0.  1.
        -12    1    3    3    0    0 -0.20918536988E+02  0.80599614316E+01 -0.37030090671E+02  0.43287131842E+02  0.00000000000E+00 0.  1.
</event>
<event>
 7    1  0.3597718E-013  0.7246146E+02  0.7816164E-02  0.1226708E+00
        -11   -1    0    0    0    0  0.00000000000E+00  0.00000000000E+00  0.45593999997E+02  0.45594000000E+02  0.51100000000E-03 0. -1.
         11   -1    0    0    0    0 -0.00000000000E+00 -0.00000000000E+00 -0.45593999997E+02  0.45594000000E+02  0.51100000000E-03 0.  1.
    9900012    2    1    2    0    0 -0.17478559082E+02  0.10197949669E+01 -0.66440530026E+01  0.72461456014E+02  0.69999851129E+02 0.  0.
         12    1    1    2    0    0  0.17478559082E+02 -0.10197949669E+01  0.66440530026E+01  0.18726543986E+02  0.00000000000E+00 0. -1.
         11    1    3    3    0    0  0.27313380143E+01  0.20310774625E+01 -0.35735196551E+01  0.49351318111E+01  0.51100000000E-03 0. -1.
        -11    1    3    3    0    0  0.98853929654E+01  0.18861928160E+02 -0.18586237530E+02  0.28265554192E+02  0.51100000000E-03 0.  1.
         12    1    3    3    0    0 -0.30095290061E+02 -0.19873210655E+02  0.15515704182E+02  0.39260770012E+02  0.00000000000E+00 0. -1.
</event>
<event>
 7    1  0.3597718E-013  0.7246156E+02  0.7816164E-02  0.1226708E+00
        -11   -1    0    0    0    0  0.00000000000E+00  0.00000000000E+00  0.45593999997E+02  0.45594000000E+02  0.51100000000E-03 0.  1.
         11   -1    0    0    0    0 -0.00000000000E+00 -0.00000000000E+00 -0.45593999997E+02  0.45594000000E+02  0.51100000000E-03 0. -1.
    9900012    2    1    2    0    0  0.33887972747E+01 -0.32973411832E+01  0.18119686582E+02  0.72461562867E+02  0.69999990325E+02 0.  0.
         12    1    1    2    0    0 -0.33887972747E+01  0.32973411832E+01 -0.18119686582E+02  0.18726437133E+02  0.00000000000E+00 0. -1.
         11    1    3    3    0    0 -0.12229468568E+02 -0.17645631516E+02  0.18306887460E+02  0.28214718531E+02  0.51100000000E-03 0. -1.
        -11    1    3    3    0    0  0.11898653406E+02 -0.36823486716E+01  0.15622412817E+02  0.19979925603E+02  0.51100000000E-03 0.  1.
         12    1    3    3    0    0  0.37196124370E+01  0.18030639004E+02 -0.15809613696E+02  0.24266918733E+02  0.00000000000E+00 0. -1.
</event>
<event>
 7    1  0.3597718E-013  0.7246156E+02  0.7816164E-02  0.1226708E+00
        -11   -1    0    0    0    0  0.00000000000E+00  0.00000000000E+00  0.45593999997E+02  0.45594000000E+02  0.51100000000E-03 0.  1.
         11   -1    0    0    0    0 -0.00000000000E+00 -0.00000000000E+00 -0.45593999997E+02  0.45594000000E+02  0.51100000000E-03 0. -1.
    9900012    2    1    2    0    0 -0.38486064030E+01  0.18084561453E+02  0.29692235557E+01  0.72461563534E+02  0.69999991193E+02 0.  0.
         12    1    1    2    0    0  0.38486064030E+01 -0.18084561453E+02 -0.29692235557E+01  0.18726436466E+02  0.00000000000E+00 0. -1.
         11    1    3    3    0    0  0.11644899301E+02 -0.10896675067E+02  0.12948481537E+02  0.20542745231E+02  0.51100000000E-03 0.  1.
        -11    1    3    3    0    0  0.99413753799E+01 -0.25343002715E+01 -0.38539136264E+01  0.10959300745E+02  0.51100000000E-03 0. -1.
        -12    1    3    3    0    0 -0.25434881084E+02  0.31515536792E+02 -0.61253443553E+01  0.40959517557E+02  0.00000000000E+00 0.  1.
</event>
<event>
 7    1  0.3597718E-013  0.7246159E+02  0.7816164E-02  0.1226708E+00
        -11   -1    0    0    0    0  0.00000000000E+00  0.00000000000E+00  0.45593999997E+02  0.45594000000E+02  0.51100000000E-03 0.  1.
         11   -1    0    0    0    0 -0.00000000000E+00 -0.00000000000E+00 -0.45593999997E+02  0.45594000000E+02  0.51100000000E-03 0. -1.
    9900012    2    1    2    0    0 -0.79737982840E+01 -0.52205288289E+01  0.16119648302E+02  0.72461589727E+02  0.70000025315E+02 0.  0.
         12    1    1    2    0    0  0.79737982840E+01  0.52205288289E+01 -0.16119648302E+02  0.18726410273E+02  0.00000000000E+00 0. -1.
         11    1    3    3    0    0 -0.49817001441E+01 -0.22957549543E+02  0.13086587341E+02  0.26890987074E+02  0.51100000000E-03 0. -1.
        -11    1    3    3    0    0 -0.77267366111E+01 -0.12240159218E+02  0.45805392488E+01  0.15182400877E+02  0.51100000000E-03 0.  1.
        -12    1    3    3    0    0  0.47346384712E+01  0.29977179931E+02 -0.15474782882E+01  0.30388201776E+02  0.00000000000E+00 0.  1.
</event>
<event>
 7    1  0.3597718E-013  0.7246159E+02  0.7816164E-02  0.1226708E+00
        -11   -1    0    0    0    0  0.00000000000E+00  0.00000000000E+00  0.45593999997E+02  0.45594000000E+02  0.51100000000E-03 0.  1.
         11   -1    0    0    0    0 -0.00000000000E+00 -0.00000000000E+00 -0.45593999997E+02  0.45594000000E+02  0.51100000000E-03 0. -1.
    9900012    2    1    2    0    0  0.12465029582E+02 -0.57832804234E+01  0.12722236241E+02  0.72461585770E+02  0.70000020161E+02 0.  0.
         12    1    1    2    0    0 -0.12465029582E+02  0.57832804234E+01 -0.12722236241E+02  0.18726414230E+02  0.00000000000E+00 0. -1.
         11    1    3    3    0    0  0.33482413179E+01  0.18961747099E+02  0.80039494022E+01  0.20852380661E+02  0.51100000000E-03 0. -1.
        -11    1    3    3    0    0  0.58164674438E+01 -0.17431347815E+01  0.21889314169E+02  0.22715895040E+02  0.51100000000E-03 0.  1.
         12    1    3    3    0    0  0.33003208198E+01 -0.23001892741E+02 -0.17171027331E+02  0.28893310069E+02  0.00000000000E+00 0. -1.
</event>
<event>
 7    1  0.3597718E-013  0.7246157E+02  0.7816164E-02  0.1226708E+00
        -11   -1    0    0    0    0  0.00000000000E+00  0.00000000000E+00  0.45593999997E+02  0.45594000000E+02  0.51100000000E-03 0. -1.
         11   -1    0    0    0    0 -0.00000000000E+00 -0.00000000000E+00 -0.45593999997E+02  0.45594000000E+02  0.51100000000E-03 0.  1.
    9900012    2    1    2    0    0  0.16521600532E+02 -0.42802580647E+00 -0.88052683428E+01  0.72461568390E+02  0.69999997520E+02 0.  0.
         12    1    1    2    0    0 -0.16521600532E+02  0.42802580647E+00  0.88052683428E+01  0.18726431610E+02  0.00000000000E+00 0. -1.
         11    1    3    3    0    0 -0.11210797616E+02 -0.13842316959E+02 -0.16950501927E+02  0.24588843767E+02  0.51100000000E-03 0. -1.
        -11    1    3    3    0    0 -0.65056305930E+01 -0.49453575535E+01 -0.29886853342E-01  0.81719449477E+01  0.51100000000E-03 0.  1.
        -12    1    3    3    0    0  0.34238028741E+02  0.18359648706E+02  0.81751204374E+01  0.39700779675E+02  0.00000000000E+00 0.  1.
</event>
<event>
 7    1  0.3597718E-013  0.7246162E+02  0.7816164E-02  0.1226708E+00
        -11   -1    0    0    0    0  0.00000000000E+00  0.00000000000E+00  0.45593999997E+02  0.45594000000E+02  0.51100000000E-03 0. -1.
         11   -1    0    0    0    0 -0.00000000000E+00 -0.00000000000E+00 -0.45593999997E+02  0.45594000000E+02  0.51100000000E-03 0.  1.
    9900012    2    1    2    0    0  0.13047831526E+02 -0.17083468267E+01 -0.13323392385E+02  0.72461624455E+02  0.70000070554E+02 0.  0.
         12    1    1    2    0    0 -0.13047831526E+02  0.17083468267E+01  0.13323392385E+02  0.18726375545E+02  0.00000000000E+00 0. -1.
         11    1    3    3    0    0 -0.77391914400E+01 -0.52977849376E+01  0.13577619013E+02  0.16501919516E+02  0.51100000000E-03 0. -1.
        -11    1    3    3    0    0 -0.62450258351E+01  0.14254645914E+02  0.11041111463E+01  0.15601741554E+02  0.51100000000E-03 0.  1.
        -12    1    3    3    0    0  0.27032048801E+02 -0.10665207803E+02 -0.28005122544E+02  0.40357963385E+02  0.00000000000E+00 0.  1.
</event>
<event>
 7    1  0.3597718E-013  0.7246154E+02  0.7816164E-02  0.1226708E+00
        -11   -1    0    0    0    0  0.00000000000E+00  0.00000000000E+00  0.45593999997E+02  0.45594000000E+02  0.51100000000E-03 0.  1.
         11   -1    0    0    0    0 -0.00000000000E+00 -0.00000000000E+00 -0.45593999997E+02  0.45594000000E+02  0.51100000000E-03 0. -1.
    9900012    2    1    2    0    0 -0.59361663190E+01 -0.59932310198E+01  0.16718949829E+02  0.72461543528E+02  0.69999965132E+02 0.  0.
         12    1    1    2    0    0  0.59361663190E+01  0.59932310198E+01 -0.16718949829E+02  0.18726456472E+02  0.00000000000E+00 0. -1.
         11    1    3    3    0    0  0.67628408117E+01 -0.52232657088E+01 -0.78622205432E+01  0.11611762684E+02  0.51100000000E-03 0. -1.
        -11    1    3    3    0    0 -0.19437184311E+02  0.14372958861E+02 -0.70140616874E+01  0.25171077489E+02  0.51100000000E-03 0.  1.
         12    1    3    3    0    0  0.67381771802E+01 -0.15142924172E+02  0.31595232059E+02  0.35678703354E+02  0.00000000000E+00 0. -1.
</event>
<event>
 7    1  0.3597718E-013  0.7246158E+02  0.7816164E-02  0.1226708E+00
        -11   -1    0    0    0    0  0.00000000000E+00  0.00000000000E+00  0.45593999997E+02  0.45594000000E+02  0.51100000000E-03 0. -1.
         11   -1    0    0    0    0 -0.00000000000E+00 -0.00000000000E+00 -0.45593999997E+02  0.45594000000E+02  0.51100000000E-03 0.  1.
    9900012    2    1    2    0    0  0.14322793017E+02  0.75757888711E+01  0.93884892910E+01  0.72461582617E+02  0.70000016053E+02 0.  0.
         12    1    1    2    0    0 -0.14322793017E+02 -0.75757888711E+01 -0.93884892910E+01  0.18726417383E+02  0.00000000000E+00 0. -1.
         11    1    3    3    0    0  0.16130462825E+02  0.99398450250E+01  0.66146477527E+01  0.20068530470E+02  0.51100000000E-03 0. -1.
        -11    1    3    3    0    0  0.23615805808E+02  0.77574175385E+01  0.29225539118E+01  0.25028486419E+02  0.51100000000E-03 0.  1.
         12    1    3    3    0    0 -0.25423475616E+02 -0.10121473692E+02 -0.14871237357E+00  0.27364565728E+02  0.00000000000E+00 0. -1.
</event>
<event>
 7    1  0.3597718E-013  0.7246160E+02  0.7816164E-02  0.1226708E+00
        -11   -1    0    0    0    0  0.00000000000E+00  0.00000000000E+00  0.45593999997E+02  0.45594000000E+02  0.51100000000E-03 0. -1.
         11   -1    0    0    0    0 -0.00000000000E+00 -0.00000000000E+00 -0.45593999997E+02  0.45594000000E+02  0.51100000000E-03 0.  1.
    9900012    2    1    2    0    0 -0.53377600830E+01  0.16950735535E+02  0.59041583993E+01  0.72461596067E+02  0.70000033573E+02 0.  0.
         12    1    1    2    0    0  0.53377600830E+01 -0.16950735535E+02 -0.59041583993E+01  0.18726403933E+02  0.00000000000E+00 0. -1.
         11    1    3    3    0    0  0.21845166149E+01 -0.63185574454E+00 -0.29116621743E+01  0.36944730884E+01  0.51100000000E-03 0. -1.
        -11    1    3    3    0    0  0.60117623163E+01  0.95179517193E+01 -0.27210108769E+02  0.29446947390E+02  0.51100000000E-03 0.  1.
         12    1    3    3    0    0 -0.13534039014E+02  0.80646395601E+01  0.36025929343E+02  0.39320175588E+02  0.00000000000E+00 0. -1.
</event>
<event>
 7    1  0.3597718E-013  0.7246159E+02  0.7816164E-02  0.1226708E+00
        -11   -1    0    0    0    0  0.00000000000E+00  0.00000000000E+00  0.45593999997E+02  0.45594000000E+02  0.51100000000E-03 0.  1.
         11   -1    0    0    0    0 -0.00000000000E+00 -0.00000000000E+00 -0.45593999997E+02  0.45594000000E+02  0.51100000000E-03 0. -1.
    9900012    2    1    2    0    0 -0.16486296735E+02  0.43144663163E+01  0.77631001322E+01  0.72461592889E+02  0.70000029434E+02 0.  0.
         12    1    1    2    0    0  0.16486296735E+02 -0.43144663163E+01 -0.77631001322E+01  0.18726407111E+02  0.00000000000E+00 0. -1.
         11    1    3    3    0    0 -0.40253473103E+01  0.23322059718E+02 -0.17558128972E+02  0.29468793388E+02  0.51100000000E-03 0. -1.
        -11    1    3    3    0    0 -0.11710078224E+02  0.34931174988E+01  0.94463197121E+01  0.15445412207E+02  0.51100000000E-03 0.  1.
        -12    1    3    3    0    0 -0.75087120043E+00 -0.22500710900E+02  0.15874909393E+02  0.27547387295E+02  0.00000000000E+00 0.  1.
</event>
<event>
 7    1  0.3597718E-013  0.7246155E+02  0.7816164E-02  0.1226708E+00
        -11   -1    0    0    0    0  0.00000000000E+00  0.00000000000E+00  0.45593999997E+02  0.45594000000E+02  0.51100000000E-03 0.  1.
         11   -1    0    0    0    0 -0.00000000000E+00 -0.00000000000E+00 -0.45593999997E+02  0.45594000000E+02  0.51100000000E-03 0. -1.
    9900012    2    1    2    0    0  0.47167480024E+01  0.38245794669E+01  0.17714532361E+02  0.72461554085E+02  0.69999978885E+02 0.  0.
         12    1    1    2    0    0 -0.47167480024E+01 -0.38245794669E+01 -0.17714532361E+02  0.18726445915E+02  0.00000000000E+00 0. -1.
         11    1    3    3    0    0 -0.26082305829E+02  0.16594637397E+02  0.92098710272E+01  0.32256633307E+02  0.51100000000E-03 0. -1.
        -11    1    3    3    0    0 -0.16283572951E+01  0.21165958348E+01  0.31410398758E+01  0.41228215060E+01  0.51100000000E-03 0.  1.
        -12    1    3    3    0    0  0.32427411127E+02 -0.14886653765E+02  0.53636214584E+01  0.36082099272E+02  0.00000000000E+00 0.  1.
</event>
<event>
 7    1  0.3597718E-013  0.7246162E+02  0.7816164E-02  0.1226708E+00
        -11   -1    0    0    0    0  0.00000000000E+00  0.00000000000E+00  0.45593999997E+02  0.45594000000E+02  0.51100000000E-03 0.  1.
         11   -1    0    0    0    0 -0.00000000000E+00 -0.00000000000E+00 -0.45593999997E+02  0.45594000000E+02  0.51100000000E-03 0. -1.
    9900012    2    1    2    0    0 -0.98989031669E+01  0.67944204198E+01  0.14370969528E+02  0.72461622936E+02  0.70000068576E+02 0.  0.
         12    1    1    2    0    0  0.98989031669E+01 -0.67944204198E+01 -0.14370969528E+02  0.18726377064E+02  0.00000000000E+00 0. -1.
         11    1    3    3    0    0 -0.27317445583E+01  0.20747836906E+02 -0.17078779375E+01  0.20996476179E+02  0.51100000000E-03 0. -1.
        -11    1    3    3    0    0  0.38547052903E+01 -0.76663195658E+01 -0.15342142685E+02  0.17578752828E+02  0.51100000000E-03 0.  1.
        -12    1    3    3    0    0 -0.11021863899E+02 -0.62870969203E+01  0.31420990151E+02  0.33886393930E+02  0.00000000000E+00 0.  1.
</event>
<event>
 7    1  0.3597718E-013  0.7246154E+02  0.7816164E-02  0.1226708E+00
        -11   -1    0    0    0    0  0.00000000000E+00  0.00000000000E+00  0.45593999997E+02  0.45594000000E+02  0.51100000000E-03 0.  1.
         11   -1    0    0    0    0 -0.00000000000E+00 -0.00000000000E+00 -0.45593999997E+02  0.45594000000E+02  0.51100000000E-03 0. -1.
    9900012    2    1    2    0    0 -0.27476406344E+01  0.12161527137E+02  0.13972399474E+02  0.72461542288E+02  0.69999963517E+02 0.  0.
         12    1    1    2    0    0  0.27476406344E+01 -0.12161527137E+02 -0.13972399474E+02  0.18726457712E+02  0.00000000000E+00 0. -1.
         11    1    3    3    0    0 -0.72165282006E+01  0.11768146070E+01 -0.17702077487E+01  0.75230849805E+01  0.51100000000E-03 0. -1.
        -11    1    3    3    0    0 -0.13545721451E+02  0.31574784321E+02  0.22431538448E+01  0.34430877334E+02  0.51100000000E-03 0.  1.
         12    1    3    3    0    0  0.18014609017E+02 -0.20590071791E+02  0.13499453378E+02  0.30507579974E+02  0.00000000000E+00 0. -1.
</event>
<event>
 7    1  0.3597718E-013  0.7246123E+02  0.7816164E-02  0.1226709E+00
        -11   -1    0    0    0    0  0.00000000000E+00  0.00000000000E+00  0.45593999997E+02  0.45594000000E+02  0.51100000000E-03 0.  1.
         11   -1    0    0    0    0 -0.00000000000E+00 -0.00000000000E+00 -0.45593999997E+02  0.45594000000E+02  0.51100000000E-03 0. -1.
    9900012    2    1    2    0    0 -0.14404988617E+02  0.11793211005E+02 -0.20269157016E+01  0.72461230120E+02  0.69999556859E+02 0.  0.
         12    1    1    2    0    0  0.14404988617E+02 -0.11793211005E+02  0.20269157016E+01  0.18726769880E+02  0.00000000000E+00 0. -1.
         11    1    3    3    0    0  0.11875121144E+02 -0.15538990275E+02  0.78018459649E+01  0.21055819188E+02  0.51100000000E-03 0. -1.
        -11    1    3    3    0    0 -0.57803448677E+01  0.20369620889E+02  0.87171261057E+01  0.22898081355E+02  0.51100000000E-03 0.  1.
        -12    1    3    3    0    0 -0.20499764893E+02  0.69625803907E+01 -0.18545887772E+02  0.28507329577E+02  0.00000000000E+00 0.  1.
</event>
<event>
 7    1  0.3597718E-013  0.7246157E+02  0.7816164E-02  0.1226708E+00
        -11   -1    0    0    0    0  0.00000000000E+00  0.00000000000E+00  0.45593999997E+02  0.45594000000E+02  0.51100000000E-03 0. -1.
         11   -1    0    0    0    0 -0.00000000000E+00 -0.00000000000E+00 -0.45593999997E+02  0.45594000000E+02  0.51100000000E-03 0.  1.
    9900012    2    1    2    0    0  0.82333413147E+01 -0.13413752797E+02 -0.10147036275E+02  0.72461574327E+02  0.70000005254E+02 0.  0.
         12    1    1    2    0    0 -0.82333413147E+01  0.13413752797E+02  0.10147036275E+02  0.18726425673E+02  0.00000000000E+00 0. -1.
         11    1    3    3    0    0 -0.46765945518E+01  0.39993029500E+01  0.26255323283E+01  0.66901704728E+01  0.51100000000E-03 0. -1.
        -11    1    3    3    0    0  0.32555155810E+02  0.60898639736E+01 -0.11682842867E+02  0.35119986201E+02  0.51100000000E-03 0.  1.
        -12    1    3    3    0    0 -0.19645219944E+02 -0.23502919720E+02 -0.10897257369E+01  0.30651417654E+02  0.00000000000E+00 0.  1.
</event>
<event>
 7    1  0.3597718E-013  0.7246164E+02  0.7816164E-02  0.1226708E+00
        -11   -1    0    0    0    0  0.00000000000E+00  0.00000000000E+00  0.45593999997E+02  0.45594000000E+02  0.51100000000E-03 0.  1.
         11   -1    0    0    0    0 -0.00000000000E+00 -0.00000000000E+00 -0.45593999997E+02  0.45594000000E+02  0.51100000000E-03 0. -1.
    9900012    2    1    2    0    0 -0.59213630451E+01 -0.31051944065E+01  0.17492052898E+02  0.72461636573E+02  0.70000086340E+02 0.  0.
         12    1    1    2    0    0  0.59213630451E+01  0.31051944065E+01 -0.17492052898E+02  0.18726363427E+02  0.00000000000E+00 0. -1.
         11    1    3    3    0    0 -0.63499424023E+01  0.32365319372E+02  0.52533143124E+01  0.33398098421E+02  0.51100000000E-03 0. -1.
        -11    1    3    3    0    0 -0.25877890253E+01 -0.17348755658E+01  0.21680824063E+00  0.31230516075E+01  0.51100000000E-03 0.  1.
        -12    1    3    3    0    0  0.30163683826E+01 -0.33735638213E+02  0.12021930345E+02  0.35940486545E+02  0.00000000000E+00 0.  1.
</event>
<event>
 7    1  0.3597718E-013  0.7246158E+02  0.7816164E-02  0.1226708E+00
        -11   -1    0    0    0    0  0.00000000000E+00  0.00000000000E+00  0.45593999997E+02  0.45594000000E+02  0.51100000000E-03 0.  1.
         11   -1    0    0    0    0 -0.00000000000E+00 -0.00000000000E+00 -0.45593999997E+02  0.45594000000E+02  0.51100000000E-03 0. -1.
    9900012    2    1    2    0    0  0.96954406882E+01 -0.14921025519E+02  0.58343924917E+01  0.72461582606E+02  0.70000016038E+02 0.  0.
         12    1    1    2    0    0 -0.96954406882E+01  0.14921025519E+02 -0.58343924917E+01  0.18726417394E+02  0.00000000000E+00 0. -1.
         11    1    3    3    0    0 -0.93489676520E+01 -0.18762385234E+02  0.12659748256E+02  0.24488763178E+02  0.51100000000E-03 0. -1.
        -11    1    3    3    0    0 -0.10138338407E+01  0.18332471942E+02  0.69735842385E+01  0.19640220568E+02  0.51100000000E-03 0.  1.
         12    1    3    3    0    0  0.20058242181E+02 -0.14491112227E+02 -0.13798940003E+02  0.28332598860E+02  0.00000000000E+00 0. -1.
</event>
<event>
 7    1  0.6660661E-013  0.7246172E+02  0.7816164E-02  0.1226708E+00
        -11   -1    0    0    0    0  0.00000000000E+00  0.00000000000E+00  0.45593999997E+02  0.45594000000E+02  0.51100000000E-03 0.  1.
         11   -1    0    0    0    0 -0.00000000000E+00 -0.00000000000E+00 -0.45593999997E+02  0.45594000000E+02  0.51100000000E-03 0. -1.
    9900012    2    1    2    0    0 -0.11795120047E+02 -0.48949256307E+01  0.13696291825E+02  0.72461719974E+02  0.70000194985E+02 0.  0.
         12    1    1    2    0    0  0.11795120047E+02  0.48949256307E+01 -0.13696291825E+02  0.18726280026E+02  0.00000000000E+00 0. -1.
         11    1    3    3    0    0 -0.99312067683E+01  0.90210595477E+01  0.64980445021E+01  0.14907480198E+02  0.51100000000E-03 0. -1.
        -11    1    3    3    0    0 -0.18003814814E+02 -0.11602763670E+02  0.25328557626E+02  0.33170729631E+02  0.51100000000E-03 0.  1.
         12    1    3    3    0    0  0.16139901535E+02 -0.23132215087E+01 -0.18130310302E+02  0.24383510145E+02  0.00000000000E+00 0. -1.
</event>
<event>
 7    1  0.3597718E-013  0.7246154E+02  0.7816164E-02  0.1226708E+00
        -11   -1    0    0    0    0  0.00000000000E+00  0.00000000000E+00  0.45593999997E+02  0.45594000000E+02  0.51100000000E-03 0. -1.
         11   -1    0    0    0    0 -0.00000000000E+00 -0.00000000000E+00 -0.45593999997E+02  0.45594000000E+02  0.51100000000E-03 0.  1.
    9900012    2    1    2    0    0  0.75941239685E+01  0.16368376602E+02 -0.50085641982E+01  0.72461543134E+02  0.69999964619E+02 0.  0.
         12    1    1    2    0    0 -0.75941239685E+01 -0.16368376602E+02  0.50085641982E+01  0.18726456866E+02  0.00000000000E+00 0. -1.
         11    1    3    3    0    0 -0.42935669103E+01  0.73375726878E+01  0.56641221135E+01  0.10215525896E+02  0.51100000000E-03 0. -1.
        -11    1    3    3    0    0 -0.24184638947E+02  0.41048555112E+01 -0.88629730313E+00  0.24546529754E+02  0.51100000000E-03 0.  1.
         12    1    3    3    0    0  0.36072329826E+02  0.49259484026E+01 -0.97863890086E+01  0.37699487484E+02  0.00000000000E+00 0. -1.
</event>
<event>
 7    1  0.3597718E-013  0.7246161E+02  0.7816164E-02  0.1226708E+00
        -11   -1    0    0    0    0  0.00000000000E+00  0.00000000000E+00  0.45593999997E+02  0.45594000000E+02  0.51100000000E-03 0.  1.
         11   -1    0    0    0    0 -0.00000000000E+00 -0.00000000000E+00 -0.45593999997E+02  0.45594000000E+02  0.51100000000E-03 0. -1.
    9900012    2    1    2    0    0  0.25627934401E+01  0.17120148501E+02  0.71421598491E+01  0.72461605733E+02  0.70000046166E+02 0.  0.
         12    1    1    2    0    0 -0.25627934401E+01 -0.17120148501E+02 -0.71421598491E+01  0.18726394267E+02  0.00000000000E+00 0. -1.
         11    1    3    3    0    0  0.96266577006E+01  0.37076392602E+00 -0.91929809193E+01  0.13316189501E+02  0.51100000000E-03 0. -1.
        -11    1    3    3    0    0 -0.92243202191E+01 -0.14567944106E+02 -0.83995649003E+01  0.19179827157E+02  0.51100000000E-03 0.  1.
        -12    1    3    3    0    0  0.21604559586E+01  0.31317328681E+02  0.24734705669E+02  0.39965589076E+02  0.00000000000E+00 0.  1.
</event>
<event>
 7    1  0.3597718E-013  0.7246162E+02  0.7816164E-02  0.1226708E+00
        -11   -1    0    0    0    0  0.00000000000E+00  0.00000000000E+00  0.45593999997E+02  0.45594000000E+02  0.51100000000E-03 0.  1.
         11   -1    0    0    0    0 -0.00000000000E+00 -0.00000000000E+00 -0.45593999997E+02  0.45594000000E+02  0.51100000000E-03 0. -1.
    9900012    2    1    2    0    0  0.62667100751E+00 -0.18712202752E+02  0.37157827102E+00  0.72461619709E+02  0.70000064372E+02 0.  0.
         12    1    1    2    0    0 -0.62667100751E+00  0.18712202752E+02 -0.37157827102E+00  0.18726380291E+02  0.00000000000E+00 0. -1.
         11    1    3    3    0    0  0.73127119495E+01 -0.76733730402E+01 -0.31667952681E+02  0.33394844469E+02  0.51100000000E-03 0. -1.
        -11    1    3    3    0    0  0.43450741021E+01 -0.86342934469E+01  0.81483427568E+01  0.12642238023E+02  0.51100000000E-03 0.  1.
        -12    1    3    3    0    0 -0.11031115044E+02 -0.24045362653E+01  0.23891188195E+02  0.26424537217E+02  0.00000000000E+00 0.  1.
</event>
<event>
 7    1  0.3597718E-013  0.7246158E+02  0.7816164E-02  0.1226708E+00
        -11   -1    0    0    0    0  0.00000000000E+00  0.00000000000E+00  0.45593999997E+02  0.45594000000E+02  0.51100000000E-03 0.  1.
         11   -1    0    0    0    0 -0.00000000000E+00 -0.00000000000E+00 -0.45593999997E+02  0.45594000000E+02  0.51100000000E-03 0. -1.
    9900012    2    1    2    0    0 -0.29348932383E+00  0.75969881854E+01  0.17113696136E+02  0.72461575865E+02  0.70000007256E+02 0.  0.
         12    1    1    2    0    0  0.29348932383E+00 -0.75969881854E+01 -0.17113696136E+02  0.18726424135E+02  0.00000000000E+00 0. -1.
         11    1    3    3    0    0 -0.84754384304E+01 -0.72354173972E+01  0.31929271781E+01  0.11592200211E+02  0.51100000000E-03 0. -1.
        -11    1    3    3    0    0  0.13179958320E+02 -0.19565121702E+02  0.10878300535E+02  0.25977734915E+02  0.51100000000E-03 0.  1.
        -12    1    3    3    0    0 -0.49980092131E+01  0.34397527284E+02  0.30424684225E+01  0.34891640739E+02  0.00000000000E+00 0.  1.
</event>
<event>
 7    1  0.3597718E-013  0.7246157E+02  0.7816164E-02  0.1226708E+00
        -11   -1    0    0    0    0  0.00000000000E+00  0.00000000000E+00  0.45593999997E+02  0.45594000000E+02  0.51100000000E-03 0.  1.
         11   -1    0    0    0    0 -0.00000000000E+00 -0.00000000000E+00 -0.45593999997E+02  0.45594000000E+02  0.51100000000E-03 0. -1.
    9900012    2    1    2    0    0 -0.11135326060E+02 -0.14601758868E+02  0.36704749638E+01  0.72461568547E+02  0.69999997724E+02 0.  0.
         12    1    1    2    0    0  0.11135326060E+02  0.14601758868E+02 -0.36704749638E+01  0.18726431453E+02  0.00000000000E+00 0. -1.
         11    1    3    3    0    0  0.18780114861E+02 -0.79787769537E+01 -0.45592711791E+00  0.20409837473E+02  0.51100000000E-03 0. -1.
        -11    1    3    3    0    0 -0.39461712010E+01 -0.15928567520E+01 -0.17421699570E+02  0.17933908552E+02  0.51100000000E-03 0.  1.
        -12    1    3    3    0    0 -0.25969269720E+02 -0.50301251621E+01  0.21548101651E+02  0.34117822523E+02  0.00000000000E+00 0.  1.
</event>
<event>
 7    1  0.3597718E-013  0.7246163E+02  0.7816164E-02  0.1226708E+00
        -11   -1    0    0    0    0  0.00000000000E+00  0.00000000000E+00  0.45593999997E+02  0.45594000000E+02  0.51100000000E-03 0. -1.
         11   -1    0    0    0    0 -0.00000000000E+00 -0.00000000000E+00 -0.45593999997E+02  0.45594000000E+02  0.51100000000E-03 0.  1.
    9900012    2    1    2    0    0 -0.97421400410E+01 -0.11976665988E+02  0.10598451414E+02  0.72461628405E+02  0.70000075699E+02 0.  0.
         12    1    1    2    0    0  0.97421400410E+01  0.11976665988E+02 -0.10598451414E+02  0.18726371595E+02  0.00000000000E+00 0. -1.
         11    1    3    3    0    0  0.50307947913E+00 -0.63492006900E+01 -0.10654564926E+02  0.12413105671E+02  0.51100000000E-03 0. -1.
        -11    1    3    3    0    0 -0.24997823717E+02 -0.16503602969E+02  0.27521415215E+02  0.40677861267E+02  0.51100000000E-03 0.  1.
         12    1    3    3    0    0  0.14752604197E+02  0.10876137671E+02 -0.62683988748E+01  0.19370661467E+02  0.00000000000E+00 0. -1.
</event>
<event>
 7    1  0.3597718E-013  0.7246156E+02  0.7816164E-02  0.1226708E+00
        -11   -1    0    0    0    0  0.00000000000E+00  0.00000000000E+00  0.45593999997E+02  0.45594000000E+02  0.51100000000E-03 0.  1.
         11   -1    0    0    0    0 -0.00000000000E+00 -0.00000000000E+00 -0.45593999997E+02  0.45594000000E+02  0.51100000000E-03 0. -1.
    9900012    2    1    2    0    0  0.10114226535E+02 -0.19362214741E+01  0.15640743765E+02  0.72461564207E+02  0.69999992070E+02 0.  0.
         12    1    1    2    0    0 -0.10114226535E+02  0.19362214741E+01 -0.15640743765E+02  0.18726435793E+02  0.00000000000E+00 0. -1.
         11    1    3    3    0    0  0.78104407620E+01 -0.24732486653E+02 -0.11985996133E+01  0.25964119901E+02  0.51100000000E-03 0. -1.
        -11    1    3    3    0    0 -0.25906053213E+01  0.80042661199E+00 -0.10628682014E+02  0.10969083840E+02  0.51100000000E-03 0.  1.
        -12    1    3    3    0    0  0.48943910942E+01  0.21995838567E+02  0.27468025392E+02  0.35528360466E+02  0.00000000000E+00 0.  1.
</event>
<event>
 7    1  0.3597718E-013  0.7246180E+02  0.7816164E-02  0.1226707E+00
        -11   -1    0    0    0    0  0.00000000000E+00  0.00000000000E+00  0.45593999997E+02  0.45594000000E+02  0.51100000000E-03 0.  1.
         11   -1    0    0    0    0 -0.00000000000E+00 -0.00000000000E+00 -0.45593999997E+02  0.45594000000E+02  0.51100000000E-03 0. -1.
    9900012    2    1    2    0    0  0.13652331308E+01  0.14959518478E+02 -0.11181207189E+02  0.72461803141E+02  0.70000303325E+02 0.  0.
         12    1    1    2    0    0 -0.13652331308E+01 -0.14959518478E+02  0.11181207189E+02  0.18726196859E+02  0.00000000000E+00 0. -1.
         11    1    3    3    0    0 -0.16279053497E+02 -0.31051507075E+01 -0.60206475218E+01  0.17632292548E+02  0.51100000000E-03 0. -1.
        -11    1    3    3    0    0 -0.15347056428E+02 -0.27275232178E+01 -0.16778118568E+01  0.15677581982E+02  0.51100000000E-03 0.  1.
        -12    1    3    3    0    0  0.32991343056E+02  0.20792192404E+02 -0.34827478107E+01  0.39151928610E+02  0.00000000000E+00 0.  1.
</event>
<event>
 7    1  0.3597718E-013  0.7246155E+02  0.7816164E-02  0.1226708E+00
        -11   -1    0    0    0    0  0.00000000000E+00  0.00000000000E+00  0.45593999997E+02  0.45594000000E+02  0.51100000000E-03 0. -1.
         11   -1    0    0    0    0 -0.00000000000E+00 -0.00000000000E+00 -0.45593999997E+02  0.45594000000E+02  0.51100000000E-03 0.  1.
    9900012    2    1    2    0    0  0.11244628726E+02  0.40074070296E+01 -0.14428411411E+02  0.72461546995E+02  0.69999969649E+02 0.  0.
         12    1    1    2    0    0 -0.11244628726E+02 -0.40074070296E+01  0.14428411411E+02  0.18726453005E+02  0.00000000000E+00 0. -1.
         11    1    3    3    0    0 -0.20823426929E+02  0.86916611748E+01  0.40860057487E+01  0.22931539989E+02  0.51100000000E-03 0. -1.
        -11    1    3    3    0    0 -0.46076108438E+01  0.22863044635E+01  0.34708154956E+01  0.62051451436E+01  0.51100000000E-03 0.  1.
        -12    1    3    3    0    0  0.36675666499E+02 -0.69705586087E+01 -0.21985232656E+02  0.43324861862E+02  0.00000000000E+00 0.  1.
</event>
<event>
 7    1  0.3597718E-013  0.7246156E+02  0.7816164E-02  0.1226708E+00
        -11   -1    0    0    0    0  0.00000000000E+00  0.00000000000E+00  0.45593999997E+02  0.45594000000E+02  0.51100000000E-03 0. -1.
         11   -1    0    0    0    0 -0.00000000000E+00 -0.00000000000E+00 -0.45593999997E+02  0.45594000000E+02  0.51100000000E-03 0.  1.
    9900012    2    1    2    0    0 -0.85806157522E+01 -0.10502778843E+02 -0.12912942995E+02  0.72461563422E+02  0.69999991048E+02 0.  0.
         12    1    1    2    0    0  0.85806157522E+01  0.10502778843E+02  0.12912942995E+02  0.18726436578E+02  0.00000000000E+00 0. -1.
         11    1    3    3    0    0 -0.10541088560E+01  0.75350944666E+01  0.17543780955E+02  0.19122579444E+02  0.51100000000E-03 0. -1.
        -11    1    3    3    0    0  0.93176899810E+01  0.60655855159E+01 -0.16141060600E+00  0.11119205362E+02  0.51100000000E-03 0.  1.
         12    1    3    3    0    0 -0.16844196877E+02 -0.24103458825E+02 -0.30295313345E+02  0.42219778617E+02  0.00000000000E+00 0. -1.
</event>
<event>
 7    1  0.3597718E-013  0.7246160E+02  0.7816164E-02  0.1226708E+00
        -11   -1    0    0    0    0  0.00000000000E+00  0.00000000000E+00  0.45593999997E+02  0.45594000000E+02  0.51100000000E-03 0.  1.
         11   -1    0    0    0    0 -0.00000000000E+00 -0.00000000000E+00 -0.45593999997E+02  0.45594000000E+02  0.51100000000E-03 0. -1.
    9900012    2    1    2    0    0  0.13462768482E+02  0.13007508748E+02  0.48635251746E+00  0.72461602648E+02  0.70000042146E+02 0.  0.
         12    1    1    2    0    0 -0.13462768482E+02 -0.13007508748E+02 -0.48635251746E+00  0.18726397352E+02  0.00000000000E+00 0. -1.
         11    1    3    3    0    0  0.44499708142E+01  0.48412036386E+00  0.28286564147E+01  0.52950835827E+01  0.51100000000E-03 0. -1.
        -11    1    3    3    0    0  0.28483838195E+02 -0.15187411448E+02  0.45672917020E+01  0.32601329092E+02  0.51100000000E-03 0.  1.
         12    1    3    3    0    0 -0.19471040527E+02  0.27710799832E+02 -0.69095955993E+01  0.34565189973E+02  0.00000000000E+00 0. -1.
</event>
<event>
 7    1  0.3597718E-013  0.7246158E+02  0.7816164E-02  0.1226708E+00
        -11   -1    0    0    0    0  0.00000000000E+00  0.00000000000E+00  0.45593999997E+02  0.45594000000E+02  0.51100000000E-03 0. -1.
         11   -1    0    0    0    0 -0.00000000000E+00 -0.00000000000E+00 -0.45593999997E+02  0.45594000000E+02  0.51100000000E-03 0.  1.
    9900012    2    1    2    0    0 -0.31035192030E+01 -0.12669534111E+02 -0.13436145136E+02  0.72461576900E+02  0.70000008605E+02 0.  0.
         12    1    1    2    0    0  0.31035192030E+01  0.12669534111E+02  0.13436145136E+02  0.18726423100E+02  0.00000000000E+00 0. -1.
         11    1    3    3    0    0 -0.20798866218E+02 -0.20469446547E+02  0.24239077665E+01  0.29282527333E+02  0.51100000000E-03 0. -1.
        -11    1    3    3    0    0 -0.30864572691E+01 -0.82928522855E+01  0.45042171165E+01  0.99290276259E+01  0.51100000000E-03 0.  1.
        -12    1    3    3    0    0  0.20781804284E+02  0.16092764722E+02 -0.20364270019E+02  0.33250021941E+02  0.00000000000E+00 0.  1.
</event>
<event>
 7    1  0.4689665E-013  0.7246132E+02  0.7816164E-02  0.1226709E+00
        -11   -1    0    0    0    0  0.00000000000E+00  0.00000000000E+00  0.45593999997E+02  0.45594000000E+02  0.51100000000E-03 0.  1.
         11   -1    0    0    0    0 -0.00000000000E+00 -0.00000000000E+00 -0.45593999997E+02  0.45594000000E+02  0.51100000000E-03 0. -1.
    9900012    2    1    2    0    0 -0.14476843345E+02 -0.11624516536E+02 -0.24454459203E+01  0.72461318936E+02  0.69999672558E+02 0.  0.
         12    1    1    2    0    0  0.14476843345E+02  0.11624516536E+02  0.24454459203E+01  0.18726681064E+02  0.00000000000E+00 0. -1.
         11    1    3    3    0    0 -0.25366569859E+01 -0.50972090219E+01 -0.63849729289E+01  0.85547675621E+01  0.51100000000E-03 0. -1.
        -11    1    3    3    0    0 -0.24308643048E+01 -0.31393371720E+02 -0.11031026134E+02  0.33363699241E+02  0.51100000000E-03 0.  1.
         12    1    3    3    0    0 -0.95093220539E+01  0.24866064206E+02  0.14970553143E+02  0.30542852133E+02  0.00000000000E+00 0. -1.
</event>
<event>
 7    1  0.3597718E-013  0.7246155E+02  0.7816164E-02  0.1226708E+00
        -11   -1    0    0    0    0  0.00000000000E+00  0.00000000000E+00  0.45593999997E+02  0.45594000000E+02  0.51100000000E-03 0.  1.
         11   -1    0    0    0    0 -0.00000000000E+00 -0.00000000000E+00 -0.45593999997E+02  0.45594000000E+02  0.51100000000E-03 0. -1.
    9900012    2    1    2    0    0 -0.18060137454E+02  0.29777835807E+01  0.39552720018E+01  0.72461549815E+02  0.69999973322E+02 0.  0.
         12    1    1    2    0    0  0.18060137454E+02 -0.29777835807E+01 -0.39552720018E+01  0.18726450185E+02  0.00000000000E+00 0. -1.
         11    1    3    3    0    0 -0.48233863162E+01 -0.14487210523E+02  0.41792746396E+01  0.15830687321E+02  0.51100000000E-03 0. -1.
        -11    1    3    3    0    0 -0.14128890631E+02 -0.16635898785E+02  0.42191538692E+01  0.22230158310E+02  0.51100000000E-03 0.  1.
         12    1    3    3    0    0  0.89213949300E+00  0.34100892888E+02 -0.44431565070E+01  0.34400704184E+02  0.00000000000E+00 0. -1.
</event>
<event>
 7    1  0.4973316E-013  0.7246158E+02  0.7816164E-02  0.1226708E+00
        -11   -1    0    0    0    0  0.00000000000E+00  0.00000000000E+00  0.45593999997E+02  0.45594000000E+02  0.51100000000E-03 0. -1.
         11   -1    0    0    0    0 -0.00000000000E+00 -0.00000000000E+00 -0.45593999997E+02  0.45594000000E+02  0.51100000000E-03 0.  1.
    9900012    2    1    2    0    0 -0.23254740080E+01  0.12424566203E+02 -0.13816703056E+02  0.72461575941E+02  0.70000007356E+02 0.  0.
         12    1    1    2    0    0  0.23254740080E+01 -0.12424566203E+02  0.13816703056E+02  0.18726424059E+02  0.00000000000E+00 0. -1.
         11    1    3    3    0    0  0.16767399367E+01 -0.29227663935E+01 -0.65012563614E+01  0.73225920782E+01  0.51100000000E-03 0. -1.
        -11    1    3    3    0    0 -0.35401463154E+01  0.22779726413E+02 -0.31952760454E+02  0.39400856238E+02  0.51100000000E-03 0.  1.
         12    1    3    3    0    0 -0.46206762929E+00 -0.74323938170E+01  0.24637313759E+02  0.25738127624E+02  0.00000000000E+00 0. -1.
</event>
<event>
 7    1  0.3597718E-013  0.7246166E+02  0.7816164E-02  0.1226708E+00
        -11   -1    0    0    0    0  0.00000000000E+00  0.00000000000E+00  0.45593999997E+02  0.45594000000E+02  0.51100000000E-03 0.  1.
         11   -1    0    0    0    0 -0.00000000000E+00 -0.00000000000E+00 -0.45593999997E+02  0.45594000000E+02  0.51100000000E-03 0. -1.
    9900012    2    1    2    0    0 -0.75478796524E+00  0.17860911730E+02 -0.55762002492E+01  0.72461658074E+02  0.70000114350E+02 0.  0.
         12    1    1    2    0    0  0.75478796524E+00 -0.17860911730E+02  0.55762002492E+01  0.18726341926E+02  0.00000000000E+00 0. -1.
         11    1    3    3    0    0  0.18180374933E+02  0.10916854389E+02 -0.23094916736E+02  0.31354089395E+02  0.51100000000E-03 0. -1.
        -11    1    3    3    0    0  0.53446761065E+01  0.11291631958E+02  0.51266443732E+01  0.13503666086E+02  0.51100000000E-03 0.  1.
        -12    1    3    3    0    0 -0.24279839004E+02 -0.43475746178E+01  0.12392072114E+02  0.27603902594E+02  0.00000000000E+00 0.  1.
</event>
<event>
 7    1  0.3597718E-013  0.7246179E+02  0.7816164E-02  0.1226707E+00
        -11   -1    0    0    0    0  0.00000000000E+00  0.00000000000E+00  0.45593999997E+02  0.45594000000E+02  0.51100000000E-03 0. -1.
         11   -1    0    0    0    0 -0.00000000000E+00 -0.00000000000E+00 -0.45593999997E+02  0.45594000000E+02  0.51100000000E-03 0.  1.
    9900012    2    1    2    0    0 -0.50365488482E+01  0.56590258958E+01 -0.17125401112E+02  0.72461794788E+02  0.70000292444E+02 0.  0.
         12    1    1    2    0    0  0.50365488482E+01 -0.56590258958E+01  0.17125401112E+02  0.18726205212E+02  0.00000000000E+00 0. -1.
         11    1    3    3    0    0 -0.94899620882E+01  0.49544857960E+01 -0.95609915413E+01  0.14353357428E+02  0.51100000000E-03 0. -1.
        -11    1    3    3    0    0 -0.18610509049E+02  0.10674687258E+02  0.13475984730E+02  0.25335788123E+02  0.51100000000E-03 0.  1.
         12    1    3    3    0    0  0.23063922289E+02 -0.99701471585E+01 -0.21040394301E+02  0.32772649237E+02  0.00000000000E+00 0. -1.
</event>
<event>
 7    1  0.3597718E-013  0.7246157E+02  0.7816164E-02  0.1226708E+00
        -11   -1    0    0    0    0  0.00000000000E+00  0.00000000000E+00  0.45593999997E+02  0.45594000000E+02  0.51100000000E-03 0.  1.
         11   -1    0    0    0    0 -0.00000000000E+00 -0.00000000000E+00 -0.45593999997E+02  0.45594000000E+02  0.51100000000E-03 0. -1.
    9900012    2    1    2    0    0 -0.11073354703E+02 -0.86280028255E+01  0.12394251295E+02  0.72461572623E+02  0.70000003034E+02 0.  0.
         12    1    1    2    0    0  0.11073354703E+02  0.86280028255E+01 -0.12394251295E+02  0.18726427377E+02  0.00000000000E+00 0. -1.
         11    1    3    3    0    0 -0.50403084654E+00  0.12655541382E+02  0.14059433197E+01  0.12743368928E+02  0.51100000000E-03 0. -1.
        -11    1    3    3    0    0 -0.97087420188E+01  0.16278211142E+02  0.11450150889E+02  0.22143752735E+02  0.51100000000E-03 0.  1.
        -12    1    3    3    0    0 -0.86058183748E+00 -0.37561755349E+02 -0.46184291306E+00  0.37574450959E+02  0.00000000000E+00 0.  1.
</event>
<event>
 7    1  0.3597718E-013  0.7246145E+02  0.7816164E-02  0.1226708E+00
        -11   -1    0    0    0    0  0.00000000000E+00  0.00000000000E+00  0.45593999997E+02  0.45594000000E+02  0.51100000000E-03 0. -1.
         11   -1    0    0    0    0 -0.00000000000E+00 -0.00000000000E+00 -0.45593999997E+02  0.45594000000E+02  0.51100000000E-03 0.  1.
    9900012    2    1    2    0    0  0.57954129056E+00  0.15504450022E+02 -0.10486173661E+02  0.72461449953E+02  0.69999843233E+02 0.  0.
         12    1    1    2    0    0 -0.57954129056E+00 -0.15504450022E+02  0.10486173661E+02  0.18726550047E+02  0.00000000000E+00 0. -1.
         11    1    3    3    0    0 -0.91542734506E+01  0.31540272632E+01 -0.19360701699E+01  0.98740558207E+01  0.51100000000E-03 0.  1.
        -11    1    3    3    0    0  0.16412289055E+02 -0.11702552881E+02 -0.25432324242E+02  0.32451750224E+02  0.51100000000E-03 0. -1.
         12    1    3    3    0    0 -0.66784743139E+01  0.24052975640E+02  0.16882220751E+02  0.30135643909E+02  0.00000000000E+00 0. -1.
</event>
<event>
 7    1  0.3597718E-013  0.7246162E+02  0.7816164E-02  0.1226708E+00
        -11   -1    0    0    0    0  0.00000000000E+00  0.00000000000E+00  0.45593999997E+02  0.45594000000E+02  0.51100000000E-03 0.  1.
         11   -1    0    0    0    0 -0.00000000000E+00 -0.00000000000E+00 -0.45593999997E+02  0.45594000000E+02  0.51100000000E-03 0. -1.
    9900012    2    1    2    0    0 -0.74750932125E+01 -0.27595479058E+01  0.16946537077E+02  0.72461621758E+02  0.70000067040E+02 0.  0.
         12    1    1    2    0    0  0.74750932125E+01  0.27595479058E+01 -0.16946537077E+02  0.18726378242E+02  0.00000000000E+00 0. -1.
         11    1    3    3    0    0  0.72750344615E+00  0.18209542773E+02 -0.18734087507E+02  0.26135851703E+02  0.51100000000E-03 0. -1.
        -11    1    3    3    0    0 -0.95076825710E+01 -0.18635616501E+01  0.17037091602E+02  0.19599269895E+02  0.51100000000E-03 0.  1.
        -12    1    3    3    0    0  0.13050859123E+01 -0.19105529029E+02  0.18643532981E+02  0.26726500159E+02  0.00000000000E+00 0.  1.
</event>
<event>
 7    1  0.3597718E-013  0.7246154E+02  0.7816164E-02  0.1226708E+00
        -11   -1    0    0    0    0  0.00000000000E+00  0.00000000000E+00  0.45593999997E+02  0.45594000000E+02  0.51100000000E-03 0. -1.
         11   -1    0    0    0    0 -0.00000000000E+00 -0.00000000000E+00 -0.45593999997E+02  0.45594000000E+02  0.51100000000E-03 0.  1.
    9900012    2    1    2    0    0 -0.28032374716E+01  0.13357550647E+02 -0.12821771705E+02  0.72461544669E+02  0.69999966618E+02 0.  0.
         12    1    1    2    0    0  0.28032374716E+01 -0.13357550647E+02  0.12821771705E+02  0.18726455331E+02  0.00000000000E+00 0. -1.
         11    1    3    3    0    0 -0.34175721102E+00  0.27624047756E+01  0.96199083222E+00  0.29450135412E+01  0.51100000000E-03 0. -1.
        -11    1    3    3    0    0  0.47579509052E+01  0.33899692451E+02 -0.25271871452E+02  0.42549908720E+02  0.51100000000E-03 0.  1.
         12    1    3    3    0    0 -0.72194311657E+01 -0.23304546580E+02  0.11488108915E+02  0.26966622408E+02  0.00000000000E+00 0. -1.
</event>
<event>
 7    1  0.3729348E-013  0.7246168E+02  0.7816164E-02  0.1226708E+00
        -11   -1    0    0    0    0  0.00000000000E+00  0.00000000000E+00  0.45593999997E+02  0.45594000000E+02  0.51100000000E-03 0. -1.
         11   -1    0    0    0    0 -0.00000000000E+00 -0.00000000000E+00 -0.45593999997E+02  0.45594000000E+02  0.51100000000E-03 0.  1.
    9900012    2    1    2    0    0 -0.44701640100E+01 -0.13823564760E+02 -0.11815314995E+02  0.72461682226E+02  0.70000145811E+02 0.  0.
         12    1    1    2    0    0  0.44701640100E+01  0.13823564760E+02  0.11815314995E+02  0.18726317774E+02  0.00000000000E+00 0. -1.
         11    1    3    3    0    0 -0.61597720040E+01 -0.10937883084E+02  0.68448470324E+01  0.14297972187E+02  0.51100000000E-03 0. -1.
        -11    1    3    3    0    0 -0.40027345433E+01 -0.28015436185E+02 -0.15323303292E+02  0.32182140582E+02  0.51100000000E-03 0.  1.
         12    1    3    3    0    0  0.56923425373E+01  0.25129754508E+02 -0.33368587360E+01  0.25981569457E+02  0.00000000000E+00 0. -1.
</event>
<event>
 7    1  0.3597718E-013  0.7246156E+02  0.7816164E-02  0.1226708E+00
        -11   -1    0    0    0    0  0.00000000000E+00  0.00000000000E+00  0.45593999997E+02  0.45594000000E+02  0.51100000000E-03 0. -1.
         11   -1    0    0    0    0 -0.00000000000E+00 -0.00000000000E+00 -0.45593999997E+02  0.45594000000E+02  0.51100000000E-03 0.  1.
    9900012    2    1    2    0    0 -0.99809433620E+01 -0.12415030032E+02 -0.98451731389E+01  0.72461557860E+02  0.69999983802E+02 0.  0.
         12    1    1    2    0    0  0.99809433620E+01  0.12415030032E+02  0.98451731389E+01  0.18726442140E+02  0.00000000000E+00 0. -1.
         11    1    3    3    0    0 -0.20320172699E+02 -0.11115422206E+02  0.13750829603E+02  0.26935986048E+02  0.51100000000E-03 0. -1.
        -11    1    3    3    0    0 -0.84439116621E+01  0.12757538253E+02 -0.11435828360E+02  0.19100591534E+02  0.51100000000E-03 0.  1.
        -12    1    3    3    0    0  0.18783140999E+02 -0.14057146079E+02 -0.12160174381E+02  0.26424980277E+02  0.00000000000E+00 0.  1.
</event>
<event>
 7    1  0.3597718E-013  0.7246159E+02  0.7816164E-02  0.1226708E+00
        -11   -1    0    0    0    0  0.00000000000E+00  0.00000000000E+00  0.45593999997E+02  0.45594000000E+02  0.51100000000E-03 0.  1.
         11   -1    0    0    0    0 -0.00000000000E+00 -0.00000000000E+00 -0.45593999997E+02  0.45594000000E+02  0.51100000000E-03 0. -1.
    9900012    2    1    2    0    0 -0.10772172816E+02  0.11078553554E+02 -0.10578490116E+02  0.72461587926E+02  0.70000022969E+02 0.  0.
         12    1    1    2    0    0  0.10772172816E+02 -0.11078553554E+02  0.10578490116E+02  0.18726412074E+02  0.00000000000E+00 0. -1.
         11    1    3    3    0    0  0.78605889233E+01  0.95328181837E+01 -0.18617130490E+02  0.22344149764E+02  0.51100000000E-03 0. -1.
        -11    1    3    3    0    0  0.84283005961E+01 -0.39067852685E+00 -0.13197605145E+02  0.15664152147E+02  0.51100000000E-03 0.  1.
        -12    1    3    3    0    0 -0.27061062335E+02  0.19364138971E+01  0.21236245519E+02  0.34453286015E+02  0.00000000000E+00 0.  1.
</event>
<event>
 7    1  0.3597718E-013  0.7246156E+02  0.7816164E-02  0.1226708E+00
        -11   -1    0    0    0    0  0.00000000000E+00  0.00000000000E+00  0.45593999997E+02  0.45594000000E+02  0.51100000000E-03 0.  1.
         11   -1    0    0    0    0 -0.00000000000E+00 -0.00000000000E+00 -0.45593999997E+02  0.45594000000E+02  0.51100000000E-03 0. -1.
    9900012    2    1    2    0    0  0.17531745335E+02 -0.54670909024E+01 -0.36644770388E+01  0.72461559617E+02  0.69999986091E+02 0.  0.
         12    1    1    2    0    0 -0.17531745335E+02  0.54670909024E+01  0.36644770388E+01  0.18726440383E+02  0.00000000000E+00 0. -1.
         11    1    3    3    0    0  0.16393584796E+02 -0.10375471861E+02 -0.25021759077E+01  0.19561720868E+02  0.51100000000E-03 0. -1.
        -11    1    3    3    0    0  0.45636921855E+01  0.87825645668E+01  0.24656171486E+02  0.26568543794E+02  0.51100000000E-03 0.  1.
         12    1    3    3    0    0 -0.34255316462E+01 -0.38741836085E+01 -0.25818472617E+02  0.26331294955E+02  0.00000000000E+00 0. -1.
</event>
<event>
 7    1  0.3597718E-013  0.7246164E+02  0.7816164E-02  0.1226708E+00
        -11   -1    0    0    0    0  0.00000000000E+00  0.00000000000E+00  0.45593999997E+02  0.45594000000E+02  0.51100000000E-03 0.  1.
         11   -1    0    0    0    0 -0.00000000000E+00 -0.00000000000E+00 -0.45593999997E+02  0.45594000000E+02  0.51100000000E-03 0. -1.
    9900012    2    1    2    0    0 -0.67751396248E+01 -0.17424656085E+01  0.17370598014E+02  0.72461644810E+02  0.70000097070E+02 0.  0.
         12    1    1    2    0    0  0.67751396248E+01  0.17424656085E+01 -0.17370598014E+02  0.18726355190E+02  0.00000000000E+00 0. -1.
         11    1    3    3    0    0 -0.77879356572E+01 -0.85821384133E+01 -0.78714292922E+01  0.14009441135E+02  0.51100000000E-03 0. -1.
        -11    1    3    3    0    0 -0.98790070755E+01 -0.17836366715E+02  0.23942557368E+02  0.31448001716E+02  0.51100000000E-03 0.  1.
         12    1    3    3    0    0  0.10891803108E+02  0.24676039519E+02  0.12994699385E+01  0.27004201959E+02  0.00000000000E+00 0. -1.
</event>
<event>
 7    1  0.3597718E-013  0.7246162E+02  0.7816164E-02  0.1226708E+00
        -11   -1    0    0    0    0  0.00000000000E+00  0.00000000000E+00  0.45593999997E+02  0.45594000000E+02  0.51100000000E-03 0.  1.
         11   -1    0    0    0    0 -0.00000000000E+00 -0.00000000000E+00 -0.45593999997E+02  0.45594000000E+02  0.51100000000E-03 0. -1.
    9900012    2    1    2    0    0 -0.78121191516E+01 -0.14978271608E+02  0.80808116975E+01  0.72461619045E+02  0.70000063506E+02 0.  0.
         12    1    1    2    0    0  0.78121191516E+01  0.14978271608E+02 -0.80808116975E+01  0.18726380955E+02  0.00000000000E+00 0. -1.
         11    1    3    3    0    0 -0.89703647127E+00  0.46647414672E+00 -0.32285963375E+01  0.33832095903E+01  0.51100000000E-03 0. -1.
        -11    1    3    3    0    0  0.19324314302E+02 -0.30985993155E+02  0.12390528764E+02  0.38562755327E+02  0.51100000000E-03 0.  1.
         12    1    3    3    0    0 -0.26239396983E+02  0.15541247401E+02 -0.10811207290E+01  0.30515654128E+02  0.00000000000E+00 0. -1.
</event>
<event>
 7    1  0.3597718E-013  0.7246156E+02  0.7816164E-02  0.1226708E+00
        -11   -1    0    0    0    0  0.00000000000E+00  0.00000000000E+00  0.45593999997E+02  0.45594000000E+02  0.51100000000E-03 0.  1.
         11   -1    0    0    0    0 -0.00000000000E+00 -0.00000000000E+00 -0.45593999997E+02  0.45594000000E+02  0.51100000000E-03 0. -1.
    9900012    2    1    2    0    0  0.76554512521E+00  0.18705444056E+02 -0.44695773233E+00  0.72461562328E+02  0.69999989622E+02 0.  0.
         12    1    1    2    0    0 -0.76554512521E+00 -0.18705444056E+02  0.44695773233E+00  0.18726437672E+02  0.00000000000E+00 0. -1.
         11    1    3    3    0    0 -0.17022530846E+02 -0.50927594408E+01 -0.56630700185E+01  0.18648676023E+02  0.51100000000E-03 0. -1.
        -11    1    3    3    0    0  0.17075181892E+02 -0.35138344586E+01 -0.12320932884E+02  0.21347464876E+02  0.51100000000E-03 0.  1.
         12    1    3    3    0    0  0.71289407906E+00  0.27312037956E+02  0.17537045170E+02  0.32465421429E+02  0.00000000000E+00 0. -1.
</event>
<event>
 7    1  0.3597718E-013  0.7246154E+02  0.7816164E-02  0.1226708E+00
        -11   -1    0    0    0    0  0.00000000000E+00  0.00000000000E+00  0.45593999997E+02  0.45594000000E+02  0.51100000000E-03 0.  1.
         11   -1    0    0    0    0 -0.00000000000E+00 -0.00000000000E+00 -0.45593999997E+02  0.45594000000E+02  0.51100000000E-03 0. -1.
    9900012    2    1    2    0    0 -0.13097080284E+02 -0.91012662708E+01  0.98139482585E+01  0.72461544379E+02  0.69999966241E+02 0.  0.
         12    1    1    2    0    0  0.13097080284E+02  0.91012662708E+01 -0.98139482585E+01  0.18726455621E+02  0.00000000000E+00 0. -1.
         11    1    3    3    0    0 -0.99738772733E+01 -0.57618772006E+01 -0.19785457291E+02  0.22894142858E+02  0.51100000000E-03 0. -1.
        -11    1    3    3    0    0 -0.38951839424E+00 -0.78754516763E+01 -0.82132804280E+01  0.11385624240E+02  0.51100000000E-03 0.  1.
        -12    1    3    3    0    0 -0.27336846167E+01  0.45360626061E+01  0.37812685977E+02  0.38181777281E+02  0.00000000000E+00 0.  1.
</event>
<event>
 7    1  0.3597718E-013  0.7246160E+02  0.7816164E-02  0.1226708E+00
        -11   -1    0    0    0    0  0.00000000000E+00  0.00000000000E+00  0.45593999997E+02  0.45594000000E+02  0.51100000000E-03 0. -1.
         11   -1    0    0    0    0 -0.00000000000E+00 -0.00000000000E+00 -0.45593999997E+02  0.45594000000E+02  0.51100000000E-03 0.  1.
    9900012    2    1    2    0    0 -0.24464169242E+01  0.80827033518E+00 -0.18548306495E+02  0.72461603376E+02  0.70000043095E+02 0.  0.
         12    1    1    2    0    0  0.24464169242E+01 -0.80827033518E+00  0.18548306495E+02  0.18726396624E+02  0.00000000000E+00 0. -1.
         11    1    3    3    0    0 -0.15016138912E+02 -0.15611299991E+02 -0.22997324277E+02  0.31592309814E+02  0.51100000000E-03 0. -1.
        -11    1    3    3    0    0 -0.54936657891E+01 -0.82315549743E+01  0.27016968467E+01  0.10258558730E+02  0.51100000000E-03 0.  1.
        -12    1    3    3    0    0  0.18063387777E+02  0.24651125300E+02  0.17473209353E+01  0.30610734833E+02  0.00000000000E+00 0.  1.
</event>
<event>
 7    1  0.3597718E-013  0.7246156E+02  0.7816164E-02  0.1226708E+00
        -11   -1    0    0    0    0  0.00000000000E+00  0.00000000000E+00  0.45593999997E+02  0.45594000000E+02  0.51100000000E-03 0.  1.
         11   -1    0    0    0    0 -0.00000000000E+00 -0.00000000000E+00 -0.45593999997E+02  0.45594000000E+02  0.51100000000E-03 0. -1.
    9900012    2    1    2    0    0  0.72751373292E+01  0.44065049625E+01  0.16683360863E+02  0.72461563104E+02  0.69999990633E+02 0.  0.
         12    1    1    2    0    0 -0.72751373292E+01 -0.44065049625E+01 -0.16683360863E+02  0.18726436896E+02  0.00000000000E+00 0. -1.
         11    1    3    3    0    0 -0.18388763531E+02  0.92816368409E+01 -0.83857823729E+00  0.20615494667E+02  0.51100000000E-03 0. -1.
        -11    1    3    3    0    0 -0.72350886675E+01 -0.92364358727E+01  0.14308826170E+02  0.18504074208E+02  0.51100000000E-03 0.  1.
        -12    1    3    3    0    0  0.32898989528E+02  0.43613039943E+01  0.32131129300E+01  0.33341994229E+02  0.00000000000E+00 0.  1.
</event>
<event>
 7    1  0.3597718E-013  0.7246158E+02  0.7816164E-02  0.1226708E+00
        -11   -1    0    0    0    0  0.00000000000E+00  0.00000000000E+00  0.45593999997E+02  0.45594000000E+02  0.51100000000E-03 0.  1.
         11   -1    0    0    0    0 -0.00000000000E+00 -0.00000000000E+00 -0.45593999997E+02  0.45594000000E+02  0.51100000000E-03 0. -1.
    9900012    2    1    2    0    0  0.17760854391E+02  0.12488420862E+01 -0.58026918884E+01  0.72461580470E+02  0.70000013256E+02 0.  0.
         12    1    1    2    0    0 -0.17760854391E+02 -0.12488420862E+01  0.58026918884E+01  0.18726419530E+02  0.00000000000E+00 0. -1.
         11    1    3    3    0    0  0.18050442157E+02 -0.19639671094E+02  0.28198405050E+00  0.26676106500E+02  0.51100000000E-03 0. -1.
        -11    1    3    3    0    0 -0.13736506553E+02 -0.54322475110E+01  0.25570113776E+01  0.14991305239E+02  0.51100000000E-03 0.  1.
        -12    1    3    3    0    0  0.13446918787E+02  0.26320760691E+02 -0.86416873166E+01  0.30794168732E+02  0.00000000000E+00 0.  1.
</event>
<event>
 7    1  0.3597718E-013  0.7246158E+02  0.7816164E-02  0.1226708E+00
        -11   -1    0    0    0    0  0.00000000000E+00  0.00000000000E+00  0.45593999997E+02  0.45594000000E+02  0.51100000000E-03 0.  1.
         11   -1    0    0    0    0 -0.00000000000E+00 -0.00000000000E+00 -0.45593999997E+02  0.45594000000E+02  0.51100000000E-03 0. -1.
    9900012    2    1    2    0    0  0.16053130720E+02  0.56114980904E+01  0.78413631973E+01  0.72461577664E+02  0.70000009600E+02 0.  0.
         12    1    1    2    0    0 -0.16053130720E+02 -0.56114980904E+01 -0.78413631973E+01  0.18726422336E+02  0.00000000000E+00 0. -1.
         11    1    3    3    0    0 -0.14861357363E+02  0.16399319943E+01  0.88292502181E+01  0.17363898735E+02  0.51100000000E-03 0. -1.
        -11    1    3    3    0    0  0.10493302548E+02 -0.19903453399E+02  0.51608245050E+01  0.23084431234E+02  0.51100000000E-03 0.  1.
         12    1    3    3    0    0  0.20421185535E+02  0.23875019495E+02 -0.61487115258E+01  0.32013247695E+02  0.00000000000E+00 0. -1.
</event>
<event>
 7    1  0.3597718E-013  0.7246198E+02  0.7816164E-02  0.1226707E+00
        -11   -1    0    0    0    0  0.00000000000E+00  0.00000000000E+00  0.45593999997E+02  0.45594000000E+02  0.51100000000E-03 0. -1.
         11   -1    0    0    0    0 -0.00000000000E+00 -0.00000000000E+00 -0.45593999997E+02  0.45594000000E+02  0.51100000000E-03 0.  1.
    9900012    2    1    2    0    0 -0.48497769528E+01 -0.15081916982E+01 -0.18024123522E+02  0.72461975130E+02  0.70000527371E+02 0.  0.
         12    1    1    2    0    0  0.48497769528E+01  0.15081916982E+01  0.18024123522E+02  0.18726024870E+02  0.00000000000E+00 0. -1.
         11    1    3    3    0    0  0.28909171532E+01 -0.15332096237E+02 -0.36415835023E+01  0.16021601283E+02  0.51100000000E-03 0. -1.
        -11    1    3    3    0    0 -0.62971098587E+01  0.11101682915E+02 -0.34138079961E+02  0.36445980022E+02  0.51100000000E-03 0.  1.
        -12    1    3    3    0    0 -0.14435842474E+01  0.27222216239E+01  0.19755539941E+02  0.19994393824E+02  0.00000000000E+00 0.  1.
</event>
<event>
 7    1  0.3597718E-013  0.7246156E+02  0.7816164E-02  0.1226708E+00
        -11   -1    0    0    0    0  0.00000000000E+00  0.00000000000E+00  0.45593999997E+02  0.45594000000E+02  0.51100000000E-03 0.  1.
         11   -1    0    0    0    0 -0.00000000000E+00 -0.00000000000E+00 -0.45593999997E+02  0.45594000000E+02  0.51100000000E-03 0. -1.
    9900012    2    1    2    0    0 -0.12539519186E+01 -0.18396701461E+02  0.32662941020E+01  0.72461556204E+02  0.69999981645E+02 0.  0.
         12    1    1    2    0    0  0.12539519186E+01  0.18396701461E+02 -0.32662941020E+01  0.18726443796E+02  0.00000000000E+00 0. -1.
         11    1    3    3    0    0 -0.26187936940E+02 -0.27048309189E+00  0.12621688919E+02  0.29072121246E+02  0.51100000000E-03 0. -1.
        -11    1    3    3    0    0 -0.59541787341E+01  0.93610063132E+00 -0.64121043104E+00  0.60613265765E+01  0.51100000000E-03 0.  1.
        -12    1    3    3    0    0  0.30888163756E+02 -0.19062319001E+02 -0.87141843857E+01  0.37328108382E+02  0.00000000000E+00 0.  1.
</event>
<event>
 7    1  0.3597718E-013  0.7246157E+02  0.7816164E-02  0.1226708E+00
        -11   -1    0    0    0    0  0.00000000000E+00  0.00000000000E+00  0.45593999997E+02  0.45594000000E+02  0.51100000000E-03 0. -1.
         11   -1    0    0    0    0 -0.00000000000E+00 -0.00000000000E+00 -0.45593999997E+02  0.45594000000E+02  0.51100000000E-03 0.  1.
    9900012    2    1    2    0    0 -0.15262485131E+02  0.10648756700E+02 -0.20832066300E+01  0.72461568907E+02  0.69999998192E+02 0.  0.
         12    1    1    2    0    0  0.15262485131E+02 -0.10648756700E+02  0.20832066300E+01  0.18726431093E+02  0.00000000000E+00 0. -1.
         11    1    3    3    0    0  0.66742594074E+01  0.11939307641E+02  0.46210511610E+01  0.14437690940E+02  0.51100000000E-03 0. -1.
        -11    1    3    3    0    0  0.16981704150E+02 -0.62612334868E+01 -0.48862804916E+01  0.18747188000E+02  0.51100000000E-03 0.  1.
         12    1    3    3    0    0 -0.38918448688E+02  0.49706825457E+01 -0.18179772994E+01  0.39276689967E+02  0.00000000000E+00 0. -1.
</event>
<event>
 7    1  0.3597718E-013  0.7246149E+02  0.7816164E-02  0.1226708E+00
        -11   -1    0    0    0    0  0.00000000000E+00  0.00000000000E+00  0.45593999997E+02  0.45594000000E+02  0.51100000000E-03 0. -1.
         11   -1    0    0    0    0 -0.00000000000E+00 -0.00000000000E+00 -0.45593999997E+02  0.45594000000E+02  0.51100000000E-03 0.  1.
    9900012    2    1    2    0    0  0.69319889263E+01  0.15532881011E+02 -0.78332148326E+01  0.72461491580E+02  0.69999897461E+02 0.  0.
         12    1    1    2    0    0 -0.69319889263E+01 -0.15532881011E+02  0.78332148326E+01  0.18726508420E+02  0.00000000000E+00 0. -1.
         11    1    3    3    0    0  0.28292720734E+02  0.15875241758E+00 -0.11842797871E+02  0.30671731456E+02  0.51100000000E-03 0. -1.
        -11    1    3    3    0    0 -0.39351177203E+01  0.89380042015E+01 -0.13231691672E+02  0.16445386446E+02  0.51100000000E-03 0.  1.
         12    1    3    3    0    0 -0.17425614087E+02  0.64361243917E+01  0.17241274711E+02  0.25344373678E+02  0.00000000000E+00 0. -1.
</event>
<event>
 7    1  0.3597718E-013  0.7246147E+02  0.7816164E-02  0.1226708E+00
        -11   -1    0    0    0    0  0.00000000000E+00  0.00000000000E+00  0.45593999997E+02  0.45594000000E+02  0.51100000000E-03 0.  1.
         11   -1    0    0    0    0 -0.00000000000E+00 -0.00000000000E+00 -0.45593999997E+02  0.45594000000E+02  0.51100000000E-03 0. -1.
    9900012    2    1    2    0    0  0.13826984571E+02  0.12626686697E+02  0.25317888923E+00  0.72461472857E+02  0.69999873070E+02 0.  0.
         12    1    1    2    0    0 -0.13826984571E+02 -0.12626686697E+02 -0.25317888923E+00  0.18726527143E+02  0.00000000000E+00 0. -1.
         11    1    3    3    0    0 -0.39804892706E+01 -0.11733716365E+02  0.52972759097E+01  0.13475367412E+02  0.51100000000E-03 0. -1.
        -11    1    3    3    0    0 -0.96097891463E+01  0.18854881799E+02  0.13800403440E+02  0.25264713544E+02  0.51100000000E-03 0.  1.
         12    1    3    3    0    0  0.27417262988E+02  0.55055212633E+01 -0.18844500460E+02  0.33721391901E+02  0.00000000000E+00 0. -1.
</event>
<event>
 7    1  0.3597718E-013  0.7246174E+02  0.7816164E-02  0.1226708E+00
        -11   -1    0    0    0    0  0.00000000000E+00  0.00000000000E+00  0.45593999997E+02  0.45594000000E+02  0.51100000000E-03 0. -1.
         11   -1    0    0    0    0 -0.00000000000E+00 -0.00000000000E+00 -0.45593999997E+02  0.45594000000E+02  0.51100000000E-03 0.  1.
    9900012    2    1    2    0    0  0.94062149625E+01 -0.16091729756E+02  0.18033570290E+01  0.72461741884E+02  0.70000223527E+02 0.  0.
         12    1    1    2    0    0 -0.94062149625E+01  0.16091729756E+02 -0.18033570290E+01  0.18726258116E+02  0.00000000000E+00 0. -1.
         11    1    3    3    0    0  0.19613941856E+02 -0.24742699112E+02  0.13920680817E+02  0.34506423013E+02  0.51100000000E-03 0. -1.
        -11    1    3    3    0    0 -0.59071094015E+01 -0.11093821509E+02  0.27523123541E+01  0.12866314185E+02  0.51100000000E-03 0.  1.
        -12    1    3    3    0    0 -0.43006174921E+01  0.19744790865E+02 -0.14869636142E+02  0.25089004686E+02  0.00000000000E+00 0.  1.
</event>
<event>
 7    1  0.3597718E-013  0.7246161E+02  0.7816164E-02  0.1226708E+00
        -11   -1    0    0    0    0  0.00000000000E+00  0.00000000000E+00  0.45593999997E+02  0.45594000000E+02  0.51100000000E-03 0.  1.
         11   -1    0    0    0    0 -0.00000000000E+00 -0.00000000000E+00 -0.45593999997E+02  0.45594000000E+02  0.51100000000E-03 0. -1.
    9900012    2    1    2    0    0  0.15646742129E+02  0.34241856894E+01  0.97021757529E+01  0.72461606828E+02  0.70000047592E+02 0.  0.
         12    1    1    2    0    0 -0.15646742129E+02 -0.34241856894E+01 -0.97021757529E+01  0.18726393172E+02  0.00000000000E+00 0. -1.
         11    1    3    3    0    0  0.20615021271E+01  0.21118076983E+02 -0.13597536487E+02  0.25201507202E+02  0.51100000000E-03 0. -1.
        -11    1    3    3    0    0  0.18567503186E+02  0.95742893955E+00  0.20629016220E+02  0.27770940842E+02  0.51100000000E-03 0.  1.
        -12    1    3    3    0    0 -0.49822631845E+01 -0.18651320234E+02  0.26706960191E+01  0.19489158784E+02  0.00000000000E+00 0.  1.
</event>
<event>
 7    1  0.3597718E-013  0.7246155E+02  0.7816164E-02  0.1226708E+00
        -11   -1    0    0    0    0  0.00000000000E+00  0.00000000000E+00  0.45593999997E+02  0.45594000000E+02  0.51100000000E-03 0.  1.
         11   -1    0    0    0    0 -0.00000000000E+00 -0.00000000000E+00 -0.45593999997E+02  0.45594000000E+02  0.51100000000E-03 0. -1.
    9900012    2    1    2    0    0 -0.16061627746E+02 -0.49930663890E+01  0.82324647110E+01  0.72461546171E+02  0.69999968575E+02 0.  0.
         12    1    1    2    0    0  0.16061627746E+02  0.49930663890E+01 -0.82324647110E+01  0.18726453829E+02  0.00000000000E+00 0. -1.
         11    1    3    3    0    0 -0.29160406280E+01 -0.30330750373E+01 -0.13173165685E+02  0.13828779105E+02  0.51100000000E-03 0. -1.
        -11    1    3    3    0    0 -0.37142494319E+01 -0.78105487342E+01 -0.16774160769E+02  0.18872540638E+02  0.51100000000E-03 0.  1.
        -12    1    3    3    0    0 -0.94313376857E+01  0.58505573825E+01  0.38179791164E+02  0.39760226428E+02  0.00000000000E+00 0.  1.
</event>
<event>
 7    1  0.3597718E-013  0.7246176E+02  0.7816164E-02  0.1226707E+00
        -11   -1    0    0    0    0  0.00000000000E+00  0.00000000000E+00  0.45593999997E+02  0.45594000000E+02  0.51100000000E-03 0. -1.
         11   -1    0    0    0    0 -0.00000000000E+00 -0.00000000000E+00 -0.45593999997E+02  0.45594000000E+02  0.51100000000E-03 0.  1.
    9900012    2    1    2    0    0 -0.27232302847E+01  0.77570301018E+01 -0.16825111727E+02  0.72461764826E+02  0.70000253413E+02 0.  0.
         12    1    1    2    0    0  0.27232302847E+01 -0.77570301018E+01  0.16825111727E+02  0.18726235174E+02  0.00000000000E+00 0. -1.
         11    1    3    3    0    0  0.15162547220E+02 -0.19595297120E+02 -0.58016598403E+01  0.25446763342E+02  0.51100000000E-03 0. -1.
        -11    1    3    3    0    0  0.21849354702E+01 -0.53379878235E+01  0.25742815877E+01  0.63162475385E+01  0.51100000000E-03 0.  1.
         12    1    3    3    0    0 -0.20070712975E+02  0.32690315045E+02 -0.13597733474E+02  0.40698753945E+02  0.00000000000E+00 0. -1.
</event>
<event>
 7    1  0.3597718E-013  0.7246153E+02  0.7816164E-02  0.1226708E+00
        -11   -1    0    0    0    0  0.00000000000E+00  0.00000000000E+00  0.45593999997E+02  0.45594000000E+02  0.51100000000E-03 0.  1.
         11   -1    0    0    0    0 -0.00000000000E+00 -0.00000000000E+00 -0.45593999997E+02  0.45594000000E+02  0.51100000000E-03 0. -1.
    9900012    2    1    2    0    0  0.95341097226E+01 -0.28032611851E+01  0.15872087997E+02  0.72461529461E+02  0.69999946807E+02 0.  0.
         12    1    1    2    0    0 -0.95341097226E+01  0.28032611851E+01 -0.15872087997E+02  0.18726470539E+02  0.00000000000E+00 0. -1.
         11    1    3    3    0    0 -0.17703956890E+02  0.15080143222E+02  0.11210919808E+01  0.23282990715E+02  0.51100000000E-03 0. -1.
        -11    1    3    3    0    0 -0.61639260088E+01  0.36052084796E+01  0.13948379018E+01  0.72757875901E+01  0.51100000000E-03 0.  1.
        -12    1    3    3    0    0  0.33401992621E+02 -0.21488612887E+02  0.13356158114E+02  0.41902751156E+02  0.00000000000E+00 0.  1.
</event>
<event>
 7    1  0.3597718E-013  0.7246158E+02  0.7816164E-02  0.1226708E+00
        -11   -1    0    0    0    0  0.00000000000E+00  0.00000000000E+00  0.45593999997E+02  0.45594000000E+02  0.51100000000E-03 0.  1.
         11   -1    0    0    0    0 -0.00000000000E+00 -0.00000000000E+00 -0.45593999997E+02  0.45594000000E+02  0.51100000000E-03 0. -1.
    9900012    2    1    2    0    0  0.13139908295E+02 -0.13341211365E+02 -0.18375394110E+00  0.72461578126E+02  0.70000010202E+02 0.  0.
         12    1    1    2    0    0 -0.13139908295E+02  0.13341211365E+02  0.18375394110E+00  0.18726421874E+02  0.00000000000E+00 0. -1.
         11    1    3    3    0    0 -0.65514865237E+01  0.20692931994E+02  0.82883111906E+01  0.23233930207E+02  0.51100000000E-03 0. -1.
        -11    1    3    3    0    0 -0.40391240191E+01  0.26272559244E+01 -0.10140027307E+01  0.49239413413E+01  0.51100000000E-03 0.  1.
        -12    1    3    3    0    0  0.23730518838E+02 -0.36661399284E+02 -0.74580624010E+01  0.44303706578E+02  0.00000000000E+00 0.  1.
</event>
<event>
 7    1  0.3597718E-013  0.7246158E+02  0.7816164E-02  0.1226708E+00
        -11   -1    0    0    0    0  0.00000000000E+00  0.00000000000E+00  0.45593999997E+02  0.45594000000E+02  0.51100000000E-03 0.  1.
         11   -1    0    0    0    0 -0.00000000000E+00 -0.00000000000E+00 -0.45593999997E+02  0.45594000000E+02  0.51100000000E-03 0. -1.
    9900012    2    1    2    0    0  0.13650781994E+02 -0.12814896409E+02 -0.33686856459E+00  0.72461577505E+02  0.70000009393E+02 0.  0.
         12    1    1    2    0    0 -0.13650781994E+02  0.12814896409E+02  0.33686856459E+00  0.18726422495E+02  0.00000000000E+00 0. -1.
         11    1    3    3    0    0 -0.92086497925E-01 -0.21190027449E+02  0.20110641642E+01  0.21285443913E+02  0.51100000000E-03 0. -1.
        -11    1    3    3    0    0 -0.32980158737E-02 -0.16853797019E+02  0.10335291333E+02  0.19770400401E+02  0.51100000000E-03 0.  1.
        -12    1    3    3    0    0  0.13746166508E+02  0.25228928059E+02 -0.12683224062E+02  0.31405733191E+02  0.00000000000E+00 0.  1.
</event>
<event>
 7    1  0.3597718E-013  0.7246158E+02  0.7816164E-02  0.1226708E+00
        -11   -1    0    0    0    0  0.00000000000E+00  0.00000000000E+00  0.45593999997E+02  0.45594000000E+02  0.51100000000E-03 0. -1.
         11   -1    0    0    0    0 -0.00000000000E+00 -0.00000000000E+00 -0.45593999997E+02  0.45594000000E+02  0.51100000000E-03 0.  1.
    9900012    2    1    2    0    0  0.53063549341E+01 -0.32553733377E+01 -0.17661372209E+02  0.72461576781E+02  0.70000008450E+02 0.  0.
         12    1    1    2    0    0 -0.53063549341E+01  0.32553733377E+01  0.17661372209E+02  0.18726423219E+02  0.00000000000E+00 0. -1.
         11    1    3    3    0    0 -0.70658609230E+01  0.23653394938E+01 -0.12659509552E+01  0.75580323885E+01  0.51100000000E-03 0. -1.
        -11    1    3    3    0    0 -0.16722129931E+02  0.61225513059E+01 -0.26512430686E+02  0.31937818414E+02  0.51100000000E-03 0.  1.
        -12    1    3    3    0    0  0.29094345788E+02 -0.11743264137E+02  0.10117009432E+02  0.32965725979E+02  0.00000000000E+00 0.  1.
</event>
<event>
 7    1  0.3597718E-013  0.7246160E+02  0.7816164E-02  0.1226708E+00
        -11   -1    0    0    0    0  0.00000000000E+00  0.00000000000E+00  0.45593999997E+02  0.45594000000E+02  0.51100000000E-03 0.  1.
         11   -1    0    0    0    0 -0.00000000000E+00 -0.00000000000E+00 -0.45593999997E+02  0.45594000000E+02  0.51100000000E-03 0. -1.
    9900012    2    1    2    0    0 -0.11127856338E+02 -0.53867110521E+01  0.14065282406E+02  0.72461601206E+02  0.70000040269E+02 0.  0.
         12    1    1    2    0    0  0.11127856338E+02  0.53867110521E+01 -0.14065282406E+02  0.18726398794E+02  0.00000000000E+00 0. -1.
         11    1    3    3    0    0  0.26096302571E+01  0.19404472315E+02  0.81765155364E+01  0.21217896278E+02  0.51100000000E-03 0. -1.
        -11    1    3    3    0    0 -0.25553808960E+02 -0.43406063125E+01  0.89625893801E+01  0.27425645374E+02  0.51100000000E-03 0.  1.
         12    1    3    3    0    0  0.11816322365E+02 -0.20450577054E+02 -0.30738225109E+01  0.23818059554E+02  0.00000000000E+00 0. -1.
</event>
<event>
 7    1  0.3597718E-013  0.7246157E+02  0.7816164E-02  0.1226708E+00
        -11   -1    0    0    0    0  0.00000000000E+00  0.00000000000E+00  0.45593999997E+02  0.45594000000E+02  0.51100000000E-03 0. -1.
         11   -1    0    0    0    0 -0.00000000000E+00 -0.00000000000E+00 -0.45593999997E+02  0.45594000000E+02  0.51100000000E-03 0.  1.
    9900012    2    1    2    0    0  0.57724227072E+00 -0.41618597120E+01 -0.18248972083E+02  0.72461567692E+02  0.69999996610E+02 0.  0.
         12    1    1    2    0    0 -0.57724227072E+00  0.41618597120E+01  0.18248972083E+02  0.18726432308E+02  0.00000000000E+00 0. -1.
         11    1    3    3    0    0 -0.21936097419E+02 -0.17951651228E+02  0.59944747469E+01  0.28972191487E+02  0.51100000000E-03 0. -1.
        -11    1    3    3    0    0 -0.11393079274E+01 -0.13898308923E+01  0.35399126576E+01  0.39699665424E+01  0.51100000000E-03 0.  1.
        -12    1    3    3    0    0  0.23652647617E+02  0.15179622408E+02 -0.27783359487E+02  0.39519409663E+02  0.00000000000E+00 0.  1.
</event>
<event>
 7    1  0.3597718E-013  0.7246160E+02  0.7816164E-02  0.1226708E+00
        -11   -1    0    0    0    0  0.00000000000E+00  0.00000000000E+00  0.45593999997E+02  0.45594000000E+02  0.51100000000E-03 0.  1.
         11   -1    0    0    0    0 -0.00000000000E+00 -0.00000000000E+00 -0.45593999997E+02  0.45594000000E+02  0.51100000000E-03 0. -1.
    9900012    2    1    2    0    0 -0.17109080102E+00  0.74289852707E+01  0.17188923732E+02  0.72461596360E+02  0.70000033956E+02 0.  0.
         12    1    1    2    0    0  0.17109080102E+00 -0.74289852707E+01 -0.17188923732E+02  0.18726403640E+02  0.00000000000E+00 0. -1.
         11    1    3    3    0    0  0.15396684567E+02  0.12666757974E+02  0.79995130388E+01  0.21482478031E+02  0.51100000000E-03 0. -1.
        -11    1    3    3    0    0  0.86966474449E+01  0.51761997963E+01  0.20025294317E+02  0.22437404793E+02  0.51100000000E-03 0.  1.
         12    1    3    3    0    0 -0.24264422813E+02 -0.10413972500E+02 -0.10835883624E+02  0.28541713536E+02  0.00000000000E+00 0. -1.
</event>
<event>
 7    1  0.3597718E-013  0.7246160E+02  0.7816164E-02  0.1226708E+00
        -11   -1    0    0    0    0  0.00000000000E+00  0.00000000000E+00  0.45593999997E+02  0.45594000000E+02  0.51100000000E-03 0. -1.
         11   -1    0    0    0    0 -0.00000000000E+00 -0.00000000000E+00 -0.45593999997E+02  0.45594000000E+02  0.51100000000E-03 0.  1.
    9900012    2    1    2    0    0 -0.72875954628E+01  0.17247223406E+02 -0.31959798414E+00  0.72461604039E+02  0.70000043958E+02 0.  0.
         12    1    1    2    0    0  0.72875954628E+01 -0.17247223406E+02  0.31959798414E+00  0.18726395961E+02  0.00000000000E+00 0. -1.
         11    1    3    3    0    0 -0.47202871209E+01 -0.14002073341E+02 -0.17425205841E+02  0.22846815253E+02  0.51100000000E-03 0. -1.
        -11    1    3    3    0    0 -0.14708822097E+01  0.15652144701E+02 -0.97787747024E+01  0.18514252974E+02  0.51100000000E-03 0.  1.
         12    1    3    3    0    0 -0.10964261322E+01  0.15597152045E+02  0.26884382560E+02  0.31100535812E+02  0.00000000000E+00 0. -1.
</event>
<event>
 7    1  0.3597718E-013  0.7246158E+02  0.7816164E-02  0.1226708E+00
        -11   -1    0    0    0    0  0.00000000000E+00  0.00000000000E+00  0.45593999997E+02  0.45594000000E+02  0.51100000000E-03 0.  1.
         11   -1    0    0    0    0 -0.00000000000E+00 -0.00000000000E+00 -0.45593999997E+02  0.45594000000E+02  0.51100000000E-03 0. -1.
    9900012    2    1    2    0    0 -0.21800110913E+01 -0.78983482166E+01  0.16838718820E+02  0.72461580043E+02  0.70000012699E+02 0.  0.
         12    1    1    2    0    0  0.21800110913E+01  0.78983482166E+01 -0.16838718820E+02  0.18726419957E+02  0.00000000000E+00 0. -1.
         11    1    3    3    0    0  0.25775702116E+02  0.76953209116E+00  0.22403986797E+02  0.34160175993E+02  0.51100000000E-03 0.  1.
        -11    1    3    3    0    0 -0.98349294666E+01 -0.15591799949E+02 -0.16181454421E+01  0.18505362958E+02  0.51100000000E-03 0. -1.
        -12    1    3    3    0    0 -0.18120783741E+02  0.69239196414E+01 -0.39471225351E+01  0.19796041091E+02  0.00000000000E+00 0.  1.
</event>
<event>
 7    1  0.3597718E-013  0.7246158E+02  0.7816164E-02  0.1226708E+00
        -11   -1    0    0    0    0  0.00000000000E+00  0.00000000000E+00  0.45593999997E+02  0.45594000000E+02  0.51100000000E-03 0.  1.
         11   -1    0    0    0    0 -0.00000000000E+00 -0.00000000000E+00 -0.45593999997E+02  0.45594000000E+02  0.51100000000E-03 0. -1.
    9900012    2    1    2    0    0 -0.70475874914E+01  0.27438528037E+01  0.17131302218E+02  0.72461581940E+02  0.70000015171E+02 0.  0.
         12    1    1    2    0    0  0.70475874914E+01 -0.27438528037E+01 -0.17131302218E+02  0.18726418060E+02  0.00000000000E+00 0. -1.
         11    1    3    3    0    0 -0.91067706286E+01  0.27620766772E+00 -0.15941746667E+02  0.18361613464E+02  0.51100000000E-03 0. -1.
        -11    1    3    3    0    0 -0.18057032115E+01 -0.38954804313E+01 -0.97400234120E+01  0.10644406428E+02  0.51100000000E-03 0.  1.
        -12    1    3    3    0    0  0.38648863487E+01  0.63631255673E+01  0.42813072297E+02  0.43455562048E+02  0.00000000000E+00 0.  1.
</event>
<event>
 7    1  0.3597718E-013  0.7246158E+02  0.7816164E-02  0.1226708E+00
        -11   -1    0    0    0    0  0.00000000000E+00  0.00000000000E+00  0.45593999997E+02  0.45594000000E+02  0.51100000000E-03 0.  1.
         11   -1    0    0    0    0 -0.00000000000E+00 -0.00000000000E+00 -0.45593999997E+02  0.45594000000E+02  0.51100000000E-03 0. -1.
    9900012    2    1    2    0    0 -0.79362642762E+01 -0.13307389462E+02  0.10517031606E+02  0.72461578592E+02  0.70000010809E+02 0.  0.
         12    1    1    2    0    0  0.79362642762E+01  0.13307389462E+02 -0.10517031606E+02  0.18726421408E+02  0.00000000000E+00 0. -1.
         11    1    3    3    0    0  0.11245244470E+02  0.14934185385E+01  0.86868370126E+01  0.14288000549E+02  0.51100000000E-03 0. -1.
        -11    1    3    3    0    0 -0.75154227796E+01  0.96758934135E+01  0.21451834791E+02  0.24703961404E+02  0.51100000000E-03 0.  1.
         12    1    3    3    0    0 -0.11666085967E+02 -0.24476701414E+02 -0.19621640198E+02  0.33469616639E+02  0.00000000000E+00 0. -1.
</event>
<event>
 7    1  0.3597718E-013  0.7246157E+02  0.7816164E-02  0.1226708E+00
        -11   -1    0    0    0    0  0.00000000000E+00  0.00000000000E+00  0.45593999997E+02  0.45594000000E+02  0.51100000000E-03 0.  1.
         11   -1    0    0    0    0 -0.00000000000E+00 -0.00000000000E+00 -0.45593999997E+02  0.45594000000E+02  0.51100000000E-03 0. -1.
    9900012    2    1    2    0    0 -0.16996008334E+02  0.69278503152E+01 -0.37174732291E+01  0.72461574380E+02  0.70000005323E+02 0.  0.
         12    1    1    2    0    0  0.16996008334E+02 -0.69278503152E+01  0.37174732291E+01  0.18726425620E+02  0.00000000000E+00 0. -1.
         11    1    3    3    0    0 -0.92916168399E+01  0.10263745607E+02 -0.11447816628E+02  0.17964718846E+02  0.51100000000E-03 0. -1.
        -11    1    3    3    0    0 -0.12580681041E+02  0.22850628008E+02  0.95981719698E+01  0.27794777229E+02  0.51100000000E-03 0.  1.
        -12    1    3    3    0    0  0.48762895468E+01 -0.26186523300E+02 -0.18678285705E+01  0.26702078306E+02  0.00000000000E+00 0.  1.
</event>
<event>
 7    1  0.3597718E-013  0.7246158E+02  0.7816164E-02  0.1226708E+00
        -11   -1    0    0    0    0  0.00000000000E+00  0.00000000000E+00  0.45593999997E+02  0.45594000000E+02  0.51100000000E-03 0. -1.
         11   -1    0    0    0    0 -0.00000000000E+00 -0.00000000000E+00 -0.45593999997E+02  0.45594000000E+02  0.51100000000E-03 0.  1.
    9900012    2    1    2    0    0 -0.11095656770E+01 -0.17531823482E+02 -0.64871361832E+01  0.72461577318E+02  0.70000009150E+02 0.  0.
         12    1    1    2    0    0  0.11095656770E+01  0.17531823482E+02  0.64871361832E+01  0.18726422682E+02  0.00000000000E+00 0. -1.
         11    1    3    3    0    0  0.41814941519E+01  0.45726494603E+01 -0.17008104670E+02  0.18101647471E+02  0.51100000000E-03 0. -1.
        -11    1    3    3    0    0 -0.10459340952E+02 -0.16612334050E+01 -0.16793018543E+02  0.19853538264E+02  0.51100000000E-03 0.  1.
         12    1    3    3    0    0  0.51682811233E+01 -0.20443239538E+02  0.27313987030E+02  0.34506391582E+02  0.00000000000E+00 0. -1.
</event>
<event>
 7    1  0.3597718E-013  0.7246151E+02  0.7816164E-02  0.1226708E+00
        -11   -1    0    0    0    0  0.00000000000E+00  0.00000000000E+00  0.45593999997E+02  0.45594000000E+02  0.51100000000E-03 0.  1.
         11   -1    0    0    0    0 -0.00000000000E+00 -0.00000000000E+00 -0.45593999997E+02  0.45594000000E+02  0.51100000000E-03 0. -1.
    9900012    2    1    2    0    0  0.17270041040E+02  0.24763550694E+00 -0.72364273661E+01  0.72461507486E+02  0.69999918180E+02 0.  0.
         12    1    1    2    0    0 -0.17270041040E+02 -0.24763550694E+00  0.72364273661E+01  0.18726492514E+02  0.00000000000E+00 0. -1.
         11    1    3    3    0    0  0.20439901698E+02 -0.66159110340E+01 -0.29479326693E+02  0.36477260900E+02  0.51100000000E-03 0. -1.
        -11    1    3    3    0    0  0.33601811773E+01 -0.94163077691E+01  0.42732458667E+01  0.10872823922E+02  0.51100000000E-03 0.  1.
        -12    1    3    3    0    0 -0.65300418351E+01  0.16279854310E+02  0.17969653460E+02  0.25111422664E+02  0.00000000000E+00 0.  1.
</event>
<event>
 7    1  0.3597718E-013  0.7246160E+02  0.7816164E-02  0.1226708E+00
        -11   -1    0    0    0    0  0.00000000000E+00  0.00000000000E+00  0.45593999997E+02  0.45594000000E+02  0.51100000000E-03 0. -1.
         11   -1    0    0    0    0 -0.00000000000E+00 -0.00000000000E+00 -0.45593999997E+02  0.45594000000E+02  0.51100000000E-03 0.  1.
    9900012    2    1    2    0    0 -0.14505912695E+02  0.11493461109E+02  0.28560561317E+01  0.72461595967E+02  0.70000033443E+02 0.  0.
         12    1    1    2    0    0  0.14505912695E+02 -0.11493461109E+02 -0.28560561317E+01  0.18726404033E+02  0.00000000000E+00 0. -1.
         11    1    3    3    0    0 -0.64479102767E+01 -0.98147067534E+01 -0.13741162865E+02  0.18075496473E+02  0.51100000000E-03 0. -1.
        -11    1    3    3    0    0 -0.26669757428E+02  0.68138406065E+01  0.45566055305E+01  0.27901022191E+02  0.51100000000E-03 0.  1.
         12    1    3    3    0    0  0.18611755009E+02  0.14494327256E+02  0.12040613466E+02  0.26485077303E+02  0.00000000000E+00 0. -1.
</event>
<event>
 7    1  0.3597718E-013  0.7246159E+02  0.7816164E-02  0.1226708E+00
        -11   -1    0    0    0    0  0.00000000000E+00  0.00000000000E+00  0.45593999997E+02  0.45594000000E+02  0.51100000000E-03 0.  1.
         11   -1    0    0    0    0 -0.00000000000E+00 -0.00000000000E+00 -0.45593999997E+02  0.45594000000E+02  0.51100000000E-03 0. -1.
    9900012    2    1    2    0    0  0.24068760829E+01  0.41801588402E+01  0.18094515900E+02  0.72461593882E+02  0.70000030728E+02 0.  0.
         12    1    1    2    0    0 -0.24068760829E+01 -0.41801588402E+01 -0.18094515900E+02  0.18726406118E+02  0.00000000000E+00 0. -1.
         11    1    3    3    0    0 -0.11085003734E+02  0.69326740944E+01  0.13184116722E+02  0.18567719619E+02  0.51100000000E-03 0. -1.
        -11    1    3    3    0    0 -0.16396980791E+02  0.61954829372E+01  0.12809297578E+02  0.21709976799E+02  0.51100000000E-03 0.  1.
         12    1    3    3    0    0  0.29888860608E+02 -0.89479981914E+01 -0.78988983991E+01  0.32183897464E+02  0.00000000000E+00 0. -1.
</event>
<event>
 7    1  0.3597718E-013  0.7246156E+02  0.7816164E-02  0.1226708E+00
        -11   -1    0    0    0    0  0.00000000000E+00  0.00000000000E+00  0.45593999997E+02  0.45594000000E+02  0.51100000000E-03 0. -1.
         11   -1    0    0    0    0 -0.00000000000E+00 -0.00000000000E+00 -0.45593999997E+02  0.45594000000E+02  0.51100000000E-03 0.  1.
    9900012    2    1    2    0    0 -0.12184347566E+02 -0.90509404159E+01  0.10968221644E+02  0.72461555221E+02  0.69999980364E+02 0.  0.
         12    1    1    2    0    0  0.12184347566E+02  0.90509404159E+01 -0.10968221644E+02  0.18726444779E+02  0.00000000000E+00 0. -1.
         11    1    3    3    0    0 -0.16553297641E+01  0.50287628637E-01  0.15883069470E+01  0.22946382487E+01  0.51100000000E-03 0. -1.
        -11    1    3    3    0    0 -0.36338149171E+02 -0.27268797172E+01 -0.93816781102E+01  0.37628617335E+02  0.51100000000E-03 0.  1.
        -12    1    3    3    0    0  0.25809131368E+02 -0.63743483274E+01  0.18761592807E+02  0.32538299637E+02  0.00000000000E+00 0.  1.
</event>
<event>
 7    1  0.3597718E-013  0.7246154E+02  0.7816164E-02  0.1226708E+00
        -11   -1    0    0    0    0  0.00000000000E+00  0.00000000000E+00  0.45593999997E+02  0.45594000000E+02  0.51100000000E-03 0.  1.
         11   -1    0    0    0    0 -0.00000000000E+00 -0.00000000000E+00 -0.45593999997E+02  0.45594000000E+02  0.51100000000E-03 0. -1.
    9900012    2    1    2    0    0  0.10783816936E+02  0.12472662873E+02 -0.88781883490E+01  0.72461541306E+02  0.69999962238E+02 0.  0.
         12    1    1    2    0    0 -0.10783816936E+02 -0.12472662873E+02  0.88781883490E+01  0.18726458694E+02  0.00000000000E+00 0. -1.
         11    1    3    3    0    0  0.12495697036E+01 -0.55858775900E+01  0.37662583470E+01  0.68518723786E+01  0.51100000000E-03 0. -1.
        -11    1    3    3    0    0 -0.49577620680E+01  0.24782978096E+02  0.18015086716E+02  0.31037376784E+02  0.51100000000E-03 0.  1.
         12    1    3    3    0    0  0.14492009300E+02 -0.67244376326E+01 -0.30659533412E+02  0.34572292144E+02  0.00000000000E+00 0. -1.
</event>
<event>
 7    1  0.3597718E-013  0.7246151E+02  0.7816164E-02  0.1226708E+00
        -11   -1    0    0    0    0  0.00000000000E+00  0.00000000000E+00  0.45593999997E+02  0.45594000000E+02  0.51100000000E-03 0.  1.
         11   -1    0    0    0    0 -0.00000000000E+00 -0.00000000000E+00 -0.45593999997E+02  0.45594000000E+02  0.51100000000E-03 0. -1.
    9900012    2    1    2    0    0 -0.11974496964E+02  0.34891306738E+01  0.13968495609E+02  0.72461508605E+02  0.69999919638E+02 0.  0.
         12    1    1    2    0    0  0.11974496964E+02 -0.34891306738E+01 -0.13968495609E+02  0.18726491395E+02  0.00000000000E+00 0. -1.
         11    1    3    3    0    0 -0.72079056964E+01  0.57650566040E+01 -0.12603729238E+02  0.15621900433E+02  0.51100000000E-03 0. -1.
        -11    1    3    3    0    0 -0.60688600714E+01 -0.14699387349E+02 -0.95968297796E+01  0.18574234657E+02  0.51100000000E-03 0.  1.
        -12    1    3    3    0    0  0.13022688039E+01  0.12423461419E+02  0.36169054626E+02  0.38265373515E+02  0.00000000000E+00 0.  1.
</event>
<event>
 7    1  0.3597718E-013  0.7246163E+02  0.7816164E-02  0.1226708E+00
        -11   -1    0    0    0    0  0.00000000000E+00  0.00000000000E+00  0.45593999997E+02  0.45594000000E+02  0.51100000000E-03 0.  1.
         11   -1    0    0    0    0 -0.00000000000E+00 -0.00000000000E+00 -0.45593999997E+02  0.45594000000E+02  0.51100000000E-03 0. -1.
    9900012    2    1    2    0    0  0.11374104076E+02  0.14245451015E+02 -0.42864589774E+01  0.72461632261E+02  0.70000080722E+02 0.  0.
         12    1    1    2    0    0 -0.11374104076E+02 -0.14245451015E+02  0.42864589774E+01  0.18726367739E+02  0.00000000000E+00 0. -1.
         11    1    3    3    0    0  0.10387475929E+02 -0.54818612295E+01  0.86997983535E+01  0.14616324790E+02  0.51100000000E-03 0. -1.
        -11    1    3    3    0    0  0.52775213336E+01 -0.13500711814E+02  0.96476145981E+01  0.17412579321E+02  0.51100000000E-03 0.  1.
         12    1    3    3    0    0 -0.42908931859E+01  0.33228024058E+02 -0.22633871929E+02  0.40432728150E+02  0.00000000000E+00 0. -1.
</event>
<event>
 7    1  0.3597718E-013  0.7246170E+02  0.7816164E-02  0.1226708E+00
        -11   -1    0    0    0    0  0.00000000000E+00  0.00000000000E+00  0.45593999997E+02  0.45594000000E+02  0.51100000000E-03 0.  1.
         11   -1    0    0    0    0 -0.00000000000E+00 -0.00000000000E+00 -0.45593999997E+02  0.45594000000E+02  0.51100000000E-03 0. -1.
    9900012    2    1    2    0    0 -0.12204232507E+01  0.10358162603E+02  0.15552924006E+02  0.72461697360E+02  0.70000165526E+02 0.  0.
         12    1    1    2    0    0  0.12204232507E+01 -0.10358162603E+02 -0.15552924006E+02  0.18726302640E+02  0.00000000000E+00 0. -1.
         11    1    3    3    0    0 -0.22683352636E+02  0.31451472036E+01  0.11262863407E+02  0.25520159289E+02  0.51100000000E-03 0. -1.
        -11    1    3    3    0    0  0.58036490909E-01  0.11639904216E+02 -0.14165387493E+02  0.18334365042E+02  0.51100000000E-03 0.  1.
        -12    1    3    3    0    0  0.21404892895E+02 -0.44268888162E+01  0.18455448093E+02  0.28607173029E+02  0.00000000000E+00 0.  1.
</event>
<event>
 7    1  0.3597718E-013  0.7246160E+02  0.7816164E-02  0.1226708E+00
        -11   -1    0    0    0    0  0.00000000000E+00  0.00000000000E+00  0.45593999997E+02  0.45594000000E+02  0.51100000000E-03 0.  1.
         11   -1    0    0    0    0 -0.00000000000E+00 -0.00000000000E+00 -0.45593999997E+02  0.45594000000E+02  0.51100000000E-03 0. -1.
    9900012    2    1    2    0    0 -0.54674909444E+01  0.14333962059E+02  0.10738817111E+02  0.72461598358E+02  0.70000036558E+02 0.  0.
         12    1    1    2    0    0  0.54674909444E+01 -0.14333962059E+02 -0.10738817111E+02  0.18726401642E+02  0.00000000000E+00 0. -1.
         11    1    3    3    0    0  0.49840307138E+01 -0.12252826700E+02 -0.12029218905E+02  0.17879441603E+02  0.51100000000E-03 0. -1.
        -11    1    3    3    0    0 -0.34990687021E+01 -0.44896817769E+01  0.22003987480E+02  0.22728312509E+02  0.51100000000E-03 0.  1.
         12    1    3    3    0    0 -0.69524529561E+01  0.31076470536E+02  0.76404853645E+00  0.31853844246E+02  0.00000000000E+00 0. -1.
</event>
<event>
 7    1  0.3597718E-013  0.7246160E+02  0.7816164E-02  0.1226708E+00
        -11   -1    0    0    0    0  0.00000000000E+00  0.00000000000E+00  0.45593999997E+02  0.45594000000E+02  0.51100000000E-03 0.  1.
         11   -1    0    0    0    0 -0.00000000000E+00 -0.00000000000E+00 -0.45593999997E+02  0.45594000000E+02  0.51100000000E-03 0. -1.
    9900012    2    1    2    0    0  0.67986034420E+01 -0.44674227906E+01  0.16867106669E+02  0.72461597181E+02  0.70000035025E+02 0.  0.
         12    1    1    2    0    0 -0.67986034420E+01  0.44674227906E+01 -0.16867106669E+02  0.18726402819E+02  0.00000000000E+00 0. -1.
         11    1    3    3    0    0  0.84064124634E+01 -0.20435680494E+02  0.15191029696E+02  0.26815148540E+02  0.51100000000E-03 0. -1.
        -11    1    3    3    0    0  0.17389202973E+00 -0.14727223520E+02 -0.11299214084E+01  0.14771529159E+02  0.51100000000E-03 0.  1.
         12    1    3    3    0    0 -0.17817010511E+01  0.30695481222E+02  0.28059983817E+01  0.30874919482E+02  0.00000000000E+00 0. -1.
</event>
<event>
 7    1  0.3597718E-013  0.7246149E+02  0.7816164E-02  0.1226708E+00
        -11   -1    0    0    0    0  0.00000000000E+00  0.00000000000E+00  0.45593999997E+02  0.45594000000E+02  0.51100000000E-03 0.  1.
         11   -1    0    0    0    0 -0.00000000000E+00 -0.00000000000E+00 -0.45593999997E+02  0.45594000000E+02  0.51100000000E-03 0. -1.
    9900012    2    1    2    0    0  0.14547674874E+02 -0.28574317185E+01 -0.11440389172E+02  0.72461487654E+02  0.69999892345E+02 0.  0.
         12    1    1    2    0    0 -0.14547674874E+02  0.28574317185E+01  0.11440389172E+02  0.18726512346E+02  0.00000000000E+00 0. -1.
         11    1    3    3    0    0  0.57396917300E+01  0.33399480107E+01  0.12082388398E+02  0.13787074509E+02  0.51100000000E-03 0. -1.
        -11    1    3    3    0    0  0.75832149029E+01 -0.21929542837E+02  0.70656846058E+01  0.24255595159E+02  0.51100000000E-03 0.  1.
         12    1    3    3    0    0  0.12247682406E+01  0.15732163108E+02 -0.30588462175E+02  0.34418817986E+02  0.00000000000E+00 0. -1.
</event>
<event>
 7    1  0.3597718E-013  0.7246151E+02  0.7816164E-02  0.1226708E+00
        -11   -1    0    0    0    0  0.00000000000E+00  0.00000000000E+00  0.45593999997E+02  0.45594000000E+02  0.51100000000E-03 0. -1.
         11   -1    0    0    0    0 -0.00000000000E+00 -0.00000000000E+00 -0.45593999997E+02  0.45594000000E+02  0.51100000000E-03 0.  1.
    9900012    2    1    2    0    0  0.17994796929E+02 -0.45375501392E+01 -0.25058575787E+01  0.72461510741E+02  0.69999922420E+02 0.  0.
         12    1    1    2    0    0 -0.17994796929E+02  0.45375501392E+01  0.25058575787E+01  0.18726489259E+02  0.00000000000E+00 0. -1.
         11    1    3    3    0    0 -0.59572688214E+01  0.13329747033E+02 -0.21207061121E+02  0.25747051276E+02  0.51100000000E-03 0. -1.
        -11    1    3    3    0    0  0.74905899804E+01  0.73615084922E+01 -0.12587808475E+01  0.10577583610E+02  0.51100000000E-03 0.  1.
        -12    1    3    3    0    0  0.16461475770E+02 -0.25228805664E+02  0.19959984389E+02  0.36136875855E+02  0.00000000000E+00 0.  1.
</event>
<event>
 7    1  0.3597718E-013  0.7246158E+02  0.7816164E-02  0.1226708E+00
        -11   -1    0    0    0    0  0.00000000000E+00  0.00000000000E+00  0.45593999997E+02  0.45594000000E+02  0.51100000000E-03 0. -1.
         11   -1    0    0    0    0 -0.00000000000E+00 -0.00000000000E+00 -0.45593999997E+02  0.45594000000E+02  0.51100000000E-03 0.  1.
    9900012    2    1    2    0    0 -0.28056632513E+01 -0.53593506933E+01 -0.17722426438E+02  0.72461580561E+02  0.70000013374E+02 0.  0.
         12    1    1    2    0    0  0.28056632513E+01  0.53593506933E+01  0.17722426438E+02  0.18726419439E+02  0.00000000000E+00 0. -1.
         11    1    3    3    0    0 -0.17636427384E+02  0.11196572462E+02  0.42637678553E+00  0.20894702755E+02  0.51100000000E-03 0. -1.
        -11    1    3    3    0    0  0.16887142714E+02  0.94387250186E+01 -0.16520941650E+02  0.25440256137E+02  0.51100000000E-03 0.  1.
         12    1    3    3    0    0 -0.20563785810E+01 -0.25994648174E+02 -0.16278615736E+01  0.26126621670E+02  0.00000000000E+00 0. -1.
</event>
<event>
 7    1  0.3597718E-013  0.7246153E+02  0.7816164E-02  0.1226708E+00
        -11   -1    0    0    0    0  0.00000000000E+00  0.00000000000E+00  0.45593999997E+02  0.45594000000E+02  0.51100000000E-03 0. -1.
         11   -1    0    0    0    0 -0.00000000000E+00 -0.00000000000E+00 -0.45593999997E+02  0.45594000000E+02  0.51100000000E-03 0.  1.
    9900012    2    1    2    0    0 -0.37392540277E+01  0.14106805679E+02 -0.11734424627E+02  0.72461529204E+02  0.69999946472E+02 0.  0.
         12    1    1    2    0    0  0.37392540277E+01 -0.14106805679E+02  0.11734424627E+02  0.18726470796E+02  0.00000000000E+00 0. -1.
         11    1    3    3    0    0 -0.11201190220E+02  0.10413328964E+02  0.25423455018E+02  0.29669111004E+02  0.51100000000E-03 0. -1.
        -11    1    3    3    0    0  0.68098080590E+01 -0.70888699858E+01 -0.12735847760E+02  0.16088113062E+02  0.51100000000E-03 0.  1.
        -12    1    3    3    0    0  0.65212813368E+00  0.10782346701E+02 -0.24422031885E+02  0.26704305138E+02  0.00000000000E+00 0.  1.
</event>
<event>
 7    1  0.3597718E-013  0.7246165E+02  0.7816164E-02  0.1226708E+00
        -11   -1    0    0    0    0  0.00000000000E+00  0.00000000000E+00  0.45593999997E+02  0.45594000000E+02  0.51100000000E-03 0. -1.
         11   -1    0    0    0    0 -0.00000000000E+00 -0.00000000000E+00 -0.45593999997E+02  0.45594000000E+02  0.51100000000E-03 0.  1.
    9900012    2    1    2    0    0  0.52656298206E+01  0.16950300244E+01 -0.17890668918E+02  0.72461654427E+02  0.70000109598E+02 0.  0.
         12    1    1    2    0    0 -0.52656298206E+01 -0.16950300244E+01  0.17890668918E+02  0.18726345573E+02  0.00000000000E+00 0. -1.
         11    1    3    3    0    0  0.24309227426E+02  0.10920665075E+02 -0.30091225601E+01  0.26818916507E+02  0.51100000000E-03 0. -1.
        -11    1    3    3    0    0  0.10795963583E+02  0.19715542010E+01 -0.15011824440E+01  0.11076705496E+02  0.51100000000E-03 0.  1.
        -12    1    3    3    0    0 -0.29839561189E+02 -0.11197189252E+02 -0.13380363914E+02  0.34566032424E+02  0.00000000000E+00 0.  1.
</event>
<event>
 7    1  0.3597718E-013  0.7246153E+02  0.7816164E-02  0.1226708E+00
        -11   -1    0    0    0    0  0.00000000000E+00  0.00000000000E+00  0.45593999997E+02  0.45594000000E+02  0.51100000000E-03 0.  1.
         11   -1    0    0    0    0 -0.00000000000E+00 -0.00000000000E+00 -0.45593999997E+02  0.45594000000E+02  0.51100000000E-03 0. -1.
    9900012    2    1    2    0    0  0.35651319399E+01  0.52989057730E+01  0.17603748796E+02  0.72461533707E+02  0.69999952339E+02 0.  0.
         12    1    1    2    0    0 -0.35651319399E+01 -0.52989057730E+01 -0.17603748796E+02  0.18726466293E+02  0.00000000000E+00 0. -1.
         11    1    3    3    0    0  0.30350268236E+02 -0.83870823869E+01 -0.66946763825E+01  0.32191623523E+02  0.51100000000E-03 0. -1.
        -11    1    3    3    0    0 -0.30226529002E+01 -0.19029015854E+01  0.16743036769E+01  0.39447126717E+01  0.51100000000E-03 0.  1.
        -12    1    3    3    0    0 -0.23762483395E+02  0.15588889745E+02  0.22624121501E+02  0.36325197512E+02  0.00000000000E+00 0.  1.
</event>
<event>
 7    1  0.3597718E-013  0.7246155E+02  0.7816164E-02  0.1226708E+00
        -11   -1    0    0    0    0  0.00000000000E+00  0.00000000000E+00  0.45593999997E+02  0.45594000000E+02  0.51100000000E-03 0.  1.
         11   -1    0    0    0    0 -0.00000000000E+00 -0.00000000000E+00 -0.45593999997E+02  0.45594000000E+02  0.51100000000E-03 0. -1.
    9900012    2    1    2    0    0 -0.59388086864E+01  0.16938495584E+02  0.53383212062E+01  0.72461554674E+02  0.69999979652E+02 0.  0.
         12    1    1    2    0    0  0.59388086864E+01 -0.16938495584E+02 -0.53383212062E+01  0.18726445326E+02  0.00000000000E+00 0. -1.
         11    1    3    3    0    0  0.17739781161E+01 -0.71844876349E+01  0.10201118210E+02  0.12602645513E+02  0.51100000000E-03 0. -1.
        -11    1    3    3    0    0  0.10889312120E+02 -0.77006596454E+01  0.13239145446E+02  0.18792345512E+02  0.51100000000E-03 0.  1.
        -12    1    3    3    0    0 -0.18602098923E+02  0.31823642864E+02 -0.18101942450E+02  0.41066563649E+02  0.00000000000E+00 0.  1.
</event>
<event>
 7    1  0.3597718E-013  0.7246156E+02  0.7816164E-02  0.1226708E+00
        -11   -1    0    0    0    0  0.00000000000E+00  0.00000000000E+00  0.45593999997E+02  0.45594000000E+02  0.51100000000E-03 0.  1.
         11   -1    0    0    0    0 -0.00000000000E+00 -0.00000000000E+00 -0.45593999997E+02  0.45594000000E+02  0.51100000000E-03 0. -1.
    9900012    2    1    2    0    0  0.11839285965E+02 -0.85063847972E+01  0.11753816568E+02  0.72461562048E+02  0.69999989257E+02 0.  0.
         12    1    1    2    0    0 -0.11839285965E+02  0.85063847972E+01 -0.11753816568E+02  0.18726437952E+02  0.00000000000E+00 0. -1.
         11    1    3    3    0    0  0.12383175619E+01 -0.13116185401E+02  0.41250440503E+01  0.13805206935E+02  0.51100000000E-03 0. -1.
        -11    1    3    3    0    0  0.12141660436E+02 -0.14030394845E+02  0.26327477782E+02  0.32208818424E+02  0.51100000000E-03 0.  1.
         12    1    3    3    0    0 -0.15406920329E+01  0.18640195448E+02 -0.18698705265E+02  0.26447536688E+02  0.00000000000E+00 0. -1.
</event>
<event>
 7    1  0.3597718E-013  0.7246158E+02  0.7816164E-02  0.1226708E+00
        -11   -1    0    0    0    0  0.00000000000E+00  0.00000000000E+00  0.45593999997E+02  0.45594000000E+02  0.51100000000E-03 0. -1.
         11   -1    0    0    0    0 -0.00000000000E+00 -0.00000000000E+00 -0.45593999997E+02  0.45594000000E+02  0.51100000000E-03 0.  1.
    9900012    2    1    2    0    0  0.55842930860E+01  0.17358529689E+02 -0.42633408848E+01  0.72461575949E+02  0.70000007367E+02 0.  0.
         12    1    1    2    0    0 -0.55842930860E+01 -0.17358529689E+02  0.42633408848E+01  0.18726424051E+02  0.00000000000E+00 0. -1.
         11    1    3    3    0    0 -0.24511701903E+02  0.21485045771E+01 -0.73141696350E+01  0.25669761974E+02  0.51100000000E-03 0. -1.
        -11    1    3    3    0    0 -0.66708021240E+00 -0.43539009414E+01  0.88413544149E+01  0.98778032765E+01  0.51100000000E-03 0.  1.
        -12    1    3    3    0    0  0.30763075201E+02  0.19563926053E+02 -0.57905256647E+01  0.36914010699E+02  0.00000000000E+00 0.  1.
</event>
<event>
 7    1  0.3597718E-013  0.7246156E+02  0.7816164E-02  0.1226708E+00
        -11   -1    0    0    0    0  0.00000000000E+00  0.00000000000E+00  0.45593999997E+02  0.45594000000E+02  0.51100000000E-03 0.  1.
         11   -1    0    0    0    0 -0.00000000000E+00 -0.00000000000E+00 -0.45593999997E+02  0.45594000000E+02  0.51100000000E-03 0. -1.
    9900012    2    1    2    0    0 -0.26515885125E+00 -0.14543898653E+02  0.11793392562E+02  0.72461563997E+02  0.69999991797E+02 0.  0.
         12    1    1    2    0    0  0.26515885125E+00  0.14543898653E+02 -0.11793392562E+02  0.18726436003E+02  0.00000000000E+00 0. -1.
         11    1    3    3    0    0 -0.42202886975E+01  0.23434673773E+01  0.40423406305E+01  0.62962841480E+01  0.51100000000E-03 0. -1.
        -11    1    3    3    0    0 -0.21895889096E+02 -0.22488539126E+02 -0.11524474510E+02  0.33436175982E+02  0.51100000000E-03 0.  1.
         12    1    3    3    0    0  0.25851018942E+02  0.56011730949E+01  0.19275526441E+02  0.32729103867E+02  0.00000000000E+00 0. -1.
</event>
<event>
 7    1  0.3597718E-013  0.7246157E+02  0.7816164E-02  0.1226708E+00
        -11   -1    0    0    0    0  0.00000000000E+00  0.00000000000E+00  0.45593999997E+02  0.45594000000E+02  0.51100000000E-03 0. -1.
         11   -1    0    0    0    0 -0.00000000000E+00 -0.00000000000E+00 -0.45593999997E+02  0.45594000000E+02  0.51100000000E-03 0.  1.
    9900012    2    1    2    0    0 -0.17722851671E+02 -0.55300485938E+01 -0.24491366357E+01  0.72461570040E+02  0.69999999668E+02 0.  0.
         12    1    1    2    0    0  0.17722851671E+02  0.55300485938E+01  0.24491366357E+01  0.18726429960E+02  0.00000000000E+00 0. -1.
         11    1    3    3    0    0  0.42503670742E+01 -0.25202992989E+02  0.10527607330E+02  0.27642123512E+02  0.51100000000E-03 0. -1.
        -11    1    3    3    0    0 -0.61785694284E+01 -0.68782177199E+01 -0.10252341390E+02  0.13805618546E+02  0.51100000000E-03 0.  1.
        -12    1    3    3    0    0 -0.15794649317E+02  0.26551162115E+02 -0.27244025755E+01  0.31013827982E+02  0.00000000000E+00 0.  1.
</event>
<event>
 7    1  0.3597718E-013  0.7246158E+02  0.7816164E-02  0.1226708E+00
        -11   -1    0    0    0    0  0.00000000000E+00  0.00000000000E+00  0.45593999997E+02  0.45594000000E+02  0.51100000000E-03 0.  1.
         11   -1    0    0    0    0 -0.00000000000E+00 -0.00000000000E+00 -0.45593999997E+02  0.45594000000E+02  0.51100000000E-03 0. -1.
    9900012    2    1    2    0    0 -0.10097215658E+02 -0.95255568246E+01 -0.12569360081E+02  0.72461579902E+02  0.70000012515E+02 0.  0.
         12    1    1    2    0    0  0.10097215658E+02  0.95255568246E+01  0.12569360081E+02  0.18726420098E+02  0.00000000000E+00 0. -1.
         11    1    3    3    0    0  0.12048671214E+01 -0.31032494750E+00 -0.31559437158E+01  0.33923424579E+01  0.51100000000E-03 0. -1.
        -11    1    3    3    0    0  0.13954499597E+02  0.22877614331E+02  0.13623802151E+01  0.26832245091E+02  0.51100000000E-03 0.  1.
         12    1    3    3    0    0 -0.25256582376E+02 -0.32092846209E+02 -0.10775796580E+02  0.42236992353E+02  0.00000000000E+00 0. -1.
</event>
<event>
 7    1  0.4212617E-013  0.7246155E+02  0.7816164E-02  0.1226708E+00
        -11   -1    0    0    0    0  0.00000000000E+00  0.00000000000E+00  0.45593999997E+02  0.45594000000E+02  0.51100000000E-03 0.  1.
         11   -1    0    0    0    0 -0.00000000000E+00 -0.00000000000E+00 -0.45593999997E+02  0.45594000000E+02  0.51100000000E-03 0. -1.
    9900012    2    1    2    0    0 -0.11678917920E+02 -0.13253230043E+02  0.62156881315E+01  0.72461547873E+02  0.69999970791E+02 0.  0.
         12    1    1    2    0    0  0.11678917920E+02  0.13253230043E+02 -0.62156881315E+01  0.18726452127E+02  0.00000000000E+00 0. -1.
         11    1    3    3    0    0  0.10272214854E+02  0.10456445927E+02  0.52280382171E+01  0.15562391953E+02  0.51100000000E-03 0.  1.
        -11    1    3    3    0    0 -0.53335241920E+01 -0.33895725718E+02  0.95400670731E+01  0.35614317097E+02  0.51100000000E-03 0. -1.
         12    1    3    3    0    0 -0.16617608581E+02  0.10186049749E+02 -0.85524171587E+01  0.21284838823E+02  0.00000000000E+00 0. -1.
</event>
<event>
 7    1  0.3597718E-013  0.7246168E+02  0.7816164E-02  0.1226708E+00
        -11   -1    0    0    0    0  0.00000000000E+00  0.00000000000E+00  0.45593999997E+02  0.45594000000E+02  0.51100000000E-03 0.  1.
         11   -1    0    0    0    0 -0.00000000000E+00 -0.00000000000E+00 -0.45593999997E+02  0.45594000000E+02  0.51100000000E-03 0. -1.
    9900012    2    1    2    0    0  0.49314378627E+01 -0.14108729293E+02  0.11282726092E+02  0.72461675489E+02  0.70000137035E+02 0.  0.
         12    1    1    2    0    0 -0.49314378627E+01  0.14108729293E+02 -0.11282726092E+02  0.18726324511E+02  0.00000000000E+00 0. -1.
         11    1    3    3    0    0 -0.20389856503E+01  0.65680837460E+01 -0.79169037927E+01  0.10486875250E+02  0.51100000000E-03 0. -1.
        -11    1    3    3    0    0  0.17822869775E+01  0.12173648533E+02  0.25327162706E+02  0.28157404647E+02  0.51100000000E-03 0.  1.
        -12    1    3    3    0    0  0.51881365355E+01 -0.32850461571E+02 -0.61275328211E+01  0.33817395592E+02  0.00000000000E+00 0.  1.
</event>
<event>
 7    1  0.3597718E-013  0.7246155E+02  0.7816164E-02  0.1226708E+00
        -11   -1    0    0    0    0  0.00000000000E+00  0.00000000000E+00  0.45593999997E+02  0.45594000000E+02  0.51100000000E-03 0. -1.
         11   -1    0    0    0    0 -0.00000000000E+00 -0.00000000000E+00 -0.45593999997E+02  0.45594000000E+02  0.51100000000E-03 0.  1.
    9900012    2    1    2    0    0  0.83287542704E+01  0.16763456098E+02  0.54624348296E+00  0.72461548388E+02  0.69999971462E+02 0.  0.
         12    1    1    2    0    0 -0.83287542704E+01 -0.16763456098E+02 -0.54624348296E+00  0.18726451612E+02  0.00000000000E+00 0. -1.
         11    1    3    3    0    0  0.67702722244E+01  0.16421853773E+02  0.54189142238E+01  0.18570904635E+02  0.51100000000E-03 0. -1.
        -11    1    3    3    0    0  0.19408712291E+01 -0.16250603076E+02  0.18834333793E+02  0.24951577328E+02  0.51100000000E-03 0.  1.
         12    1    3    3    0    0 -0.38238918314E+00  0.16592205401E+02 -0.23707004534E+02  0.28939066424E+02  0.00000000000E+00 0. -1.
</event>
<event>
 7    1  0.3597718E-013  0.7246159E+02  0.7816164E-02  0.1226708E+00
        -11   -1    0    0    0    0  0.00000000000E+00  0.00000000000E+00  0.45593999997E+02  0.45594000000E+02  0.51100000000E-03 0.  1.
         11   -1    0    0    0    0 -0.00000000000E+00 -0.00000000000E+00 -0.45593999997E+02  0.45594000000E+02  0.51100000000E-03 0. -1.
    9900012    2    1    2    0    0  0.44141470932E+01 -0.17083195739E+02 -0.62736194244E+01  0.72461586251E+02  0.70000020786E+02 0.  0.
         12    1    1    2    0    0 -0.44141470932E+01  0.17083195739E+02  0.62736194244E+01  0.18726413749E+02  0.00000000000E+00 0. -1.
         11    1    3    3    0    0 -0.48132618726E+01 -0.14216646360E+02 -0.18050850611E+01  0.15117501643E+02  0.51100000000E-03 0. -1.
        -11    1    3    3    0    0  0.15732388542E+02 -0.26252511134E+02 -0.10456601151E+02  0.32342586446E+02  0.51100000000E-03 0.  1.
         12    1    3    3    0    0 -0.65049795765E+01  0.23385961755E+02  0.59880667880E+01  0.25001498162E+02  0.00000000000E+00 0. -1.
</event>
<event>
 7    1  0.3597718E-013  0.7246158E+02  0.7816164E-02  0.1226708E+00
        -11   -1    0    0    0    0  0.00000000000E+00  0.00000000000E+00  0.45593999997E+02  0.45594000000E+02  0.51100000000E-03 0.  1.
         11   -1    0    0    0    0 -0.00000000000E+00 -0.00000000000E+00 -0.45593999997E+02  0.45594000000E+02  0.51100000000E-03 0. -1.
    9900012    2    1    2    0    0  0.16527647744E+01 -0.11580283708E+02  0.14623415921E+02  0.72461577615E+02  0.70000009536E+02 0.  0.
         12    1    1    2    0    0 -0.16527647744E+01  0.11580283708E+02 -0.14623415921E+02  0.18726422385E+02  0.00000000000E+00 0. -1.
         11    1    3    3    0    0 -0.11275703976E+02  0.17929421307E+02 -0.15927425779E+02  0.26500727174E+02  0.51100000000E-03 0. -1.
        -11    1    3    3    0    0  0.22037958238E+01 -0.11914854972E+02  0.49289628908E+01  0.13081099361E+02  0.51100000000E-03 0.  1.
        -12    1    3    3    0    0  0.10724672926E+02 -0.17594850043E+02  0.25621878808E+02  0.32879751080E+02  0.00000000000E+00 0.  1.
</event>
<event>
 7    1  0.3597718E-013  0.7246150E+02  0.7816164E-02  0.1226708E+00
        -11   -1    0    0    0    0  0.00000000000E+00  0.00000000000E+00  0.45593999997E+02  0.45594000000E+02  0.51100000000E-03 0. -1.
         11   -1    0    0    0    0 -0.00000000000E+00 -0.00000000000E+00 -0.45593999997E+02  0.45594000000E+02  0.51100000000E-03 0.  1.
    9900012    2    1    2    0    0  0.14106434805E+01 -0.18665699961E+02 -0.53240108774E+00  0.72461502170E+02  0.69999911255E+02 0.  0.
         12    1    1    2    0    0 -0.14106434805E+01  0.18665699961E+02  0.53240108774E+00  0.18726497830E+02  0.00000000000E+00 0. -1.
         11    1    3    3    0    0 -0.13310954516E+02  0.87993035443E+01  0.20695180186E+02  0.26132350376E+02  0.51100000000E-03 0. -1.
        -11    1    3    3    0    0  0.86082576650E+01  0.11201257030E+01  0.20991645209E+01  0.89310286957E+01  0.51100000000E-03 0.  1.
        -12    1    3    3    0    0  0.61133403316E+01 -0.28585129208E+02 -0.23326745795E+02  0.37398123098E+02  0.00000000000E+00 0.  1.
</event>
<event>
 7    1  0.3597718E-013  0.7246158E+02  0.7816164E-02  0.1226708E+00
        -11   -1    0    0    0    0  0.00000000000E+00  0.00000000000E+00  0.45593999997E+02  0.45594000000E+02  0.51100000000E-03 0.  1.
         11   -1    0    0    0    0 -0.00000000000E+00 -0.00000000000E+00 -0.45593999997E+02  0.45594000000E+02  0.51100000000E-03 0. -1.
    9900012    2    1    2    0    0 -0.54040449348E+01  0.15717662953E+02  0.86272820809E+01  0.72461584794E+02  0.70000018888E+02 0.  0.
         12    1    1    2    0    0  0.54040449348E+01 -0.15717662953E+02 -0.86272820809E+01  0.18726415206E+02  0.00000000000E+00 0. -1.
         11    1    3    3    0    0 -0.12923090916E+02 -0.41724874338E+01 -0.85014821231E+01  0.16021583217E+02  0.51100000000E-03 0. -1.
        -11    1    3    3    0    0 -0.13572204382E+02  0.37721159969E+00  0.23378316252E+02  0.27035027120E+02  0.51100000000E-03 0.  1.
         12    1    3    3    0    0  0.21091250363E+02  0.19512938787E+02 -0.62495520479E+01  0.29404974457E+02  0.00000000000E+00 0. -1.
</event>
<event>
 7    1  0.3597718E-013  0.7246156E+02  0.7816164E-02  0.1226708E+00
        -11   -1    0    0    0    0  0.00000000000E+00  0.00000000000E+00  0.45593999997E+02  0.45594000000E+02  0.51100000000E-03 0.  1.
         11   -1    0    0    0    0 -0.00000000000E+00 -0.00000000000E+00 -0.45593999997E+02  0.45594000000E+02  0.51100000000E-03 0. -1.
    9900012    2    1    2    0    0  0.16539793303E+02 -0.71870252930E+01  0.50459424270E+01  0.72461557998E+02  0.69999983982E+02 0.  0.
         12    1    1    2    0    0 -0.16539793303E+02  0.71870252930E+01 -0.50459424270E+01  0.18726442002E+02  0.00000000000E+00 0. -1.
         11    1    3    3    0    0  0.34167139608E+02 -0.22247349787E+02 -0.12240860778E+02  0.42569668479E+02  0.51100000000E-03 0. -1.
        -11    1    3    3    0    0 -0.25267434752E+00 -0.24306567910E+00  0.22661311164E+01  0.22930930526E+01  0.51100000000E-03 0.  1.
        -12    1    3    3    0    0 -0.17374671958E+02  0.15303390173E+02  0.15020672089E+02  0.27598796467E+02  0.00000000000E+00 0.  1.
</event>
<event>
 7    1  0.3597718E-013  0.7246160E+02  0.7816164E-02  0.1226708E+00
        -11   -1    0    0    0    0  0.00000000000E+00  0.00000000000E+00  0.45593999997E+02  0.45594000000E+02  0.51100000000E-03 0.  1.
         11   -1    0    0    0    0 -0.00000000000E+00 -0.00000000000E+00 -0.45593999997E+02  0.45594000000E+02  0.51100000000E-03 0. -1.
    9900012    2    1    2    0    0  0.15131112466E+02  0.83766641114E+01  0.71804496025E+01  0.72461603587E+02  0.70000043370E+02 0.  0.
         12    1    1    2    0    0 -0.15131112466E+02 -0.83766641114E+01 -0.71804496025E+01  0.18726396413E+02  0.00000000000E+00 0. -1.
         11    1    3    3    0    0 -0.39975865976E+01  0.84628773292E+01 -0.12038165418E+00  0.93603142735E+01  0.51100000000E-03 0. -1.
        -11    1    3    3    0    0  0.20379910926E+02 -0.34757056117E+01 -0.23951902311E+02  0.31640400178E+02  0.51100000000E-03 0.  1.
         12    1    3    3    0    0 -0.12512118620E+01  0.33894923939E+01  0.31252733567E+02  0.31460889136E+02  0.00000000000E+00 0. -1.
</event>
<event>
 7    1  0.3597718E-013  0.7246119E+02  0.7816164E-02  0.1226709E+00
        -11   -1    0    0    0    0  0.00000000000E+00  0.00000000000E+00  0.45593999997E+02  0.45594000000E+02  0.51100000000E-03 0.  1.
         11   -1    0    0    0    0 -0.00000000000E+00 -0.00000000000E+00 -0.45593999997E+02  0.45594000000E+02  0.51100000000E-03 0. -1.
    9900012    2    1    2    0    0  0.15259838768E+01  0.42935336661E+01  0.18163985006E+02  0.72461190089E+02  0.69999504710E+02 0.  0.
         12    1    1    2    0    0 -0.15259838768E+01 -0.42935336661E+01 -0.18163985006E+02  0.18726809911E+02  0.00000000000E+00 0. -1.
         11    1    3    3    0    0 -0.18397186855E+02 -0.13441426230E+02  0.14526244040E+02  0.27021106370E+02  0.51100000000E-03 0. -1.
        -11    1    3    3    0    0  0.37518324131E+01 -0.10500413524E+02  0.62750431383E+01  0.12794963747E+02  0.51100000000E-03 0.  1.
         12    1    3    3    0    0  0.16171338319E+02  0.28235373420E+02 -0.26373021724E+01  0.32645119972E+02  0.00000000000E+00 0. -1.
</event>
<event>
 7    1  0.3597718E-013  0.7246162E+02  0.7816164E-02  0.1226708E+00
        -11   -1    0    0    0    0  0.00000000000E+00  0.00000000000E+00  0.45593999997E+02  0.45594000000E+02  0.51100000000E-03 0.  1.
         11   -1    0    0    0    0 -0.00000000000E+00 -0.00000000000E+00 -0.45593999997E+02  0.45594000000E+02  0.51100000000E-03 0. -1.
    9900012    2    1    2    0    0  0.67600464070E+01 -0.55320234723E+01  0.16564288768E+02  0.72461623588E+02  0.70000069425E+02 0.  0.
         12    1    1    2    0    0 -0.67600464070E+01  0.55320234723E+01 -0.16564288768E+02  0.18726376412E+02  0.00000000000E+00 0. -1.
         11    1    3    3    0    0  0.99507241114E+01  0.52163397925E+01 -0.28031317825E+00  0.11238580289E+02  0.51100000000E-03 0. -1.
        -11    1    3    3    0    0  0.47466681775E+01 -0.26153793263E+02 -0.10721648810E+02  0.28661917492E+02  0.51100000000E-03 0.  1.
         12    1    3    3    0    0 -0.79373458819E+01  0.15405429998E+02  0.27566250756E+02  0.32561125807E+02  0.00000000000E+00 0. -1.
</event>
<event>
 7    1  0.3597718E-013  0.7246159E+02  0.7816164E-02  0.1226708E+00
        -11   -1    0    0    0    0  0.00000000000E+00  0.00000000000E+00  0.45593999997E+02  0.45594000000E+02  0.51100000000E-03 0. -1.
         11   -1    0    0    0    0 -0.00000000000E+00 -0.00000000000E+00 -0.45593999997E+02  0.45594000000E+02  0.51100000000E-03 0.  1.
    9900012    2    1    2    0    0  0.17397242149E+02  0.69277040005E+01  0.14563510490E+00  0.72461592798E+02  0.70000029315E+02 0.  0.
         12    1    1    2    0    0 -0.17397242149E+02 -0.69277040005E+01 -0.14563510490E+00  0.18726407202E+02  0.00000000000E+00 0. -1.
         11    1    3    3    0    0  0.84440639563E+01 -0.85287107610E+01  0.10129227379E+02  0.15704851827E+02  0.51100000000E-03 0. -1.
        -11    1    3    3    0    0  0.15650542916E+01  0.18535687574E+01  0.21519567209E+02  0.21655874150E+02  0.51100000000E-03 0.  1.
        -12    1    3    3    0    0  0.73881239014E+01  0.13602846004E+02 -0.31503159483E+02  0.35100866821E+02  0.00000000000E+00 0.  1.
</event>
<event>
 7    1  0.3597718E-013  0.7246159E+02  0.7816164E-02  0.1226708E+00
        -11   -1    0    0    0    0  0.00000000000E+00  0.00000000000E+00  0.45593999997E+02  0.45594000000E+02  0.51100000000E-03 0. -1.
         11   -1    0    0    0    0 -0.00000000000E+00 -0.00000000000E+00 -0.45593999997E+02  0.45594000000E+02  0.51100000000E-03 0.  1.
    9900012    2    1    2    0    0 -0.17576100779E+02 -0.16682321888E+01 -0.62430747046E+01  0.72461593538E+02  0.70000030279E+02 0.  0.
         12    1    1    2    0    0  0.17576100779E+02  0.16682321888E+01  0.62430747046E+01  0.18726406462E+02  0.00000000000E+00 0. -1.
         11    1    3    3    0    0 -0.13758793627E+02 -0.46230882625E+01  0.19932739546E+02  0.24657482703E+02  0.51100000000E-03 0. -1.
        -11    1    3    3    0    0 -0.29536409225E+01 -0.62207971703E+01  0.90616336164E+01  0.11381367062E+02  0.51100000000E-03 0.  1.
         12    1    3    3    0    0 -0.86366622900E+00  0.91756532440E+01 -0.35237447867E+02  0.36422743774E+02  0.00000000000E+00 0. -1.
</event>
<event>
 7    1  0.3597718E-013  0.7246150E+02  0.7816164E-02  0.1226708E+00
        -11   -1    0    0    0    0  0.00000000000E+00  0.00000000000E+00  0.45593999997E+02  0.45594000000E+02  0.51100000000E-03 0. -1.
         11   -1    0    0    0    0 -0.00000000000E+00 -0.00000000000E+00 -0.45593999997E+02  0.45594000000E+02  0.51100000000E-03 0.  1.
    9900012    2    1    2    0    0 -0.93681449182E+01 -0.11608905827E+02 -0.11320469430E+02  0.72461498409E+02  0.69999906356E+02 0.  0.
         12    1    1    2    0    0  0.93681449182E+01  0.11608905827E+02  0.11320469430E+02  0.18726501591E+02  0.00000000000E+00 0. -1.
         11    1    3    3    0    0 -0.25732591401E+01 -0.92409934881E+01 -0.40632281685E+01  0.10417650727E+02  0.51100000000E-03 0.  1.
        -11    1    3    3    0    0  0.17957303306E+02 -0.24038747160E+01 -0.25510269977E+02  0.31289251034E+02  0.51100000000E-03 0. -1.
        -12    1    3    3    0    0 -0.24752189084E+02  0.35962376861E-01  0.18253028716E+02  0.30754596649E+02  0.00000000000E+00 0.  1.
</event>
<event>
 7    1  0.3597718E-013  0.7246168E+02  0.7816164E-02  0.1226708E+00
        -11   -1    0    0    0    0  0.00000000000E+00  0.00000000000E+00  0.45593999997E+02  0.45594000000E+02  0.51100000000E-03 0.  1.
         11   -1    0    0    0    0 -0.00000000000E+00 -0.00000000000E+00 -0.45593999997E+02  0.45594000000E+02  0.51100000000E-03 0. -1.
    9900012    2    1    2    0    0 -0.34433208339E+01 -0.18296908424E+02 -0.20104547371E+01  0.72461675093E+02  0.70000136520E+02 0.  0.
         12    1    1    2    0    0  0.34433208339E+01  0.18296908424E+02  0.20104547371E+01  0.18726324907E+02  0.00000000000E+00 0. -1.
         11    1    3    3    0    0 -0.59609971468E+01 -0.17145639304E+02 -0.15218985429E+02  0.23688055046E+02  0.51100000000E-03 0. -1.
        -11    1    3    3    0    0  0.14046445398E+02 -0.20246301731E+02  0.72452996923E+01  0.25684815164E+02  0.51100000000E-03 0.  1.
         12    1    3    3    0    0 -0.11528769085E+02  0.19095032611E+02  0.59632309992E+01  0.23088804884E+02  0.00000000000E+00 0. -1.
</event>
<event>
 7    1  0.3597718E-013  0.7246154E+02  0.7816164E-02  0.1226708E+00
        -11   -1    0    0    0    0  0.00000000000E+00  0.00000000000E+00  0.45593999997E+02  0.45594000000E+02  0.51100000000E-03 0.  1.
         11   -1    0    0    0    0 -0.00000000000E+00 -0.00000000000E+00 -0.45593999997E+02  0.45594000000E+02  0.51100000000E-03 0. -1.
    9900012    2    1    2    0    0  0.70149609146E+01 -0.16733428339E+02  0.46328008562E+01  0.72461544265E+02  0.69999966092E+02 0.  0.
         12    1    1    2    0    0 -0.70149609146E+01  0.16733428339E+02 -0.46328008562E+01  0.18726455735E+02  0.00000000000E+00 0. -1.
         11    1    3    3    0    0 -0.32033045191E+01  0.13414139354E+02 -0.10262659412E+02  0.17190767083E+02  0.51100000000E-03 0. -1.
        -11    1    3    3    0    0  0.20826941398E+02 -0.12147176280E+01  0.12592983345E+02  0.24368427457E+02  0.51100000000E-03 0.  1.
         12    1    3    3    0    0 -0.10608675964E+02 -0.28932850065E+02  0.23024769229E+01  0.30902349726E+02  0.00000000000E+00 0. -1.
</event>
<event>
 7    1  0.3597718E-013  0.7246159E+02  0.7816164E-02  0.1226708E+00
        -11   -1    0    0    0    0  0.00000000000E+00  0.00000000000E+00  0.45593999997E+02  0.45594000000E+02  0.51100000000E-03 0.  1.
         11   -1    0    0    0    0 -0.00000000000E+00 -0.00000000000E+00 -0.45593999997E+02  0.45594000000E+02  0.51100000000E-03 0. -1.
    9900012    2    1    2    0    0 -0.17634979384E+02  0.43080116552E+01 -0.45964100077E+01  0.72461589580E+02  0.70000025123E+02 0.  0.
         12    1    1    2    0    0  0.17634979384E+02 -0.43080116552E+01  0.45964100077E+01  0.18726410420E+02  0.00000000000E+00 0. -1.
         11    1    3    3    0    0  0.61495442968E+01  0.45893620388E+01  0.33236740762E+01  0.83621736772E+01  0.51100000000E-03 0. -1.
        -11    1    3    3    0    0 -0.72794947072E+01 -0.24665481364E+02  0.12172306600E+02  0.28452452659E+02  0.51100000000E-03 0.  1.
         12    1    3    3    0    0 -0.16505028973E+02  0.24384130980E+02 -0.20092390684E+02  0.35646963243E+02  0.00000000000E+00 0. -1.
</event>
<event>
 7    1  0.3597718E-013  0.7246136E+02  0.7816164E-02  0.1226709E+00
        -11   -1    0    0    0    0  0.00000000000E+00  0.00000000000E+00  0.45593999997E+02  0.45594000000E+02  0.51100000000E-03 0. -1.
         11   -1    0    0    0    0 -0.00000000000E+00 -0.00000000000E+00 -0.45593999997E+02  0.45594000000E+02  0.51100000000E-03 0.  1.
    9900012    2    1    2    0    0  0.17857975187E+02  0.55741912399E+01  0.84157466472E+00  0.72461357651E+02  0.69999722992E+02 0.  0.
         12    1    1    2    0    0 -0.17857975187E+02 -0.55741912399E+01 -0.84157466472E+00  0.18726642349E+02  0.00000000000E+00 0. -1.
         11    1    3    3    0    0 -0.84692270052E+01 -0.13600866169E+02  0.51230285967E+01  0.16821319475E+02  0.51100000000E-03 0. -1.
        -11    1    3    3    0    0 -0.86718237464E+01  0.18238081354E+02 -0.42074345023E+01  0.20628394118E+02  0.51100000000E-03 0.  1.
        -12    1    3    3    0    0  0.34999025938E+02  0.93697605501E+00 -0.74019429702E-01  0.35011644058E+02  0.00000000000E+00 0.  1.
</event>
<event>
 7    1  0.3597718E-013  0.7246159E+02  0.7816164E-02  0.1226708E+00
        -11   -1    0    0    0    0  0.00000000000E+00  0.00000000000E+00  0.45593999997E+02  0.45594000000E+02  0.51100000000E-03 0. -1.
         11   -1    0    0    0    0 -0.00000000000E+00 -0.00000000000E+00 -0.45593999997E+02  0.45594000000E+02  0.51100000000E-03 0.  1.
    9900012    2    1    2    0    0  0.10290248008E+02 -0.10675415193E+02 -0.11437865854E+02  0.72461589000E+02  0.70000024368E+02 0.  0.
         12    1    1    2    0    0 -0.10290248008E+02  0.10675415193E+02  0.11437865854E+02  0.18726411000E+02  0.00000000000E+00 0. -1.
         11    1    3    3    0    0 -0.11524296254E+02  0.16800639523E+01  0.34503965242E+01  0.12146491488E+02  0.51100000000E-03 0. -1.
        -11    1    3    3    0    0  0.12494377885E+02  0.15507552582E+02 -0.22417055957E+02  0.29985297462E+02  0.51100000000E-03 0.  1.
         12    1    3    3    0    0  0.93201663774E+01 -0.27863031728E+02  0.75287935787E+01  0.30329800051E+02  0.00000000000E+00 0. -1.
</event>
<event>
 7    1  0.3597718E-013  0.7246158E+02  0.7816164E-02  0.1226708E+00
        -11   -1    0    0    0    0  0.00000000000E+00  0.00000000000E+00  0.45593999997E+02  0.45594000000E+02  0.51100000000E-03 0. -1.
         11   -1    0    0    0    0 -0.00000000000E+00 -0.00000000000E+00 -0.45593999997E+02  0.45594000000E+02  0.51100000000E-03 0.  1.
    9900012    2    1    2    0    0 -0.15743097537E+02 -0.91490246045E+01 -0.43736665268E+01  0.72461582026E+02  0.70000015282E+02 0.  0.
         12    1    1    2    0    0  0.15743097537E+02  0.91490246045E+01  0.43736665268E+01  0.18726417974E+02  0.00000000000E+00 0. -1.
         11    1    3    3    0    0 -0.44870478508E+01 -0.76332438750E+01  0.83012423319E+01  0.12137159263E+02  0.51100000000E-03 0. -1.
        -11    1    3    3    0    0  0.35531894124E+00 -0.15642142513E+02  0.18471168855E+02  0.24207167391E+02  0.51100000000E-03 0.  1.
        -12    1    3    3    0    0 -0.11611368627E+02  0.14126361783E+02 -0.31146077714E+02  0.36117255372E+02  0.00000000000E+00 0.  1.
</event>
<event>
 7    1  0.3597718E-013  0.7246162E+02  0.7816164E-02  0.1226708E+00
        -11   -1    0    0    0    0  0.00000000000E+00  0.00000000000E+00  0.45593999997E+02  0.45594000000E+02  0.51100000000E-03 0. -1.
         11   -1    0    0    0    0 -0.00000000000E+00 -0.00000000000E+00 -0.45593999997E+02  0.45594000000E+02  0.51100000000E-03 0.  1.
    9900012    2    1    2    0    0  0.65877916878E+00  0.12905449562E+02 -0.13553325655E+02  0.72461621421E+02  0.70000066601E+02 0.  0.
         12    1    1    2    0    0 -0.65877916878E+00 -0.12905449562E+02  0.13553325655E+02  0.18726378579E+02  0.00000000000E+00 0. -1.
         11    1    3    3    0    0  0.61423945960E+01  0.31963670193E+01 -0.17668606519E+01  0.71461577312E+01  0.51100000000E-03 0. -1.
        -11    1    3    3    0    0  0.15373729143E+02  0.85758344975E+01  0.20399816063E+02  0.26945296078E+02  0.51100000000E-03 0.  1.
         12    1    3    3    0    0 -0.20857344570E+02  0.11332480455E+01 -0.32186281066E+02  0.38370167611E+02  0.00000000000E+00 0. -1.
</event>
<event>
 7    1  0.3597718E-013  0.7246161E+02  0.7816164E-02  0.1226708E+00
        -11   -1    0    0    0    0  0.00000000000E+00  0.00000000000E+00  0.45593999997E+02  0.45594000000E+02  0.51100000000E-03 0. -1.
         11   -1    0    0    0    0 -0.00000000000E+00 -0.00000000000E+00 -0.45593999997E+02  0.45594000000E+02  0.51100000000E-03 0.  1.
    9900012    2    1    2    0    0  0.42347571010E+01  0.18234915077E+02 -0.48205704872E+00  0.72461610210E+02  0.70000051998E+02 0.  0.
         12    1    1    2    0    0 -0.42347571010E+01 -0.18234915077E+02  0.48205704872E+00  0.18726389790E+02  0.00000000000E+00 0. -1.
         11    1    3    3    0    0  0.64669172600E+01 -0.40750444683E+01  0.16515224541E+01  0.78201363763E+01  0.51100000000E-03 0. -1.
        -11    1    3    3    0    0 -0.25887246913E+02 -0.59336765611E+01 -0.70382021785E+01  0.27475340952E+02  0.51100000000E-03 0.  1.
         12    1    3    3    0    0  0.23655086754E+02  0.28243636106E+02  0.49046226756E+01  0.37166132882E+02  0.00000000000E+00 0. -1.
</event>
<event>
 7    1  0.3597718E-013  0.7246220E+02  0.7816164E-02  0.1226706E+00
        -11   -1    0    0    0    0  0.00000000000E+00  0.00000000000E+00  0.45593999997E+02  0.45594000000E+02  0.51100000000E-03 0. -1.
         11   -1    0    0    0    0 -0.00000000000E+00 -0.00000000000E+00 -0.45593999997E+02  0.45594000000E+02  0.51100000000E-03 0.  1.
    9900012    2    1    2    0    0 -0.12277886355E+02 -0.49393454543E+01 -0.13248098342E+02  0.72462195971E+02  0.70000815055E+02 0.  0.
         12    1    1    2    0    0  0.12277886355E+02  0.49393454543E+01  0.13248098342E+02  0.18725804029E+02  0.00000000000E+00 0. -1.
         11    1    3    3    0    0 -0.11042952731E+02 -0.28721627112E+02 -0.24331838753E+02  0.39229033207E+02  0.51100000000E-03 0.  1.
        -11    1    3    3    0    0 -0.33391558934E+01  0.14837781092E+02 -0.38594342856E+01  0.15690919128E+02  0.51100000000E-03 0. -1.
        -12    1    3    3    0    0  0.21042222693E+01  0.89445005663E+01  0.14943174697E+02  0.17542243636E+02  0.00000000000E+00 0.  1.
</event>
<event>
 7    1  0.3597718E-013  0.7246154E+02  0.7816164E-02  0.1226708E+00
        -11   -1    0    0    0    0  0.00000000000E+00  0.00000000000E+00  0.45593999997E+02  0.45594000000E+02  0.51100000000E-03 0. -1.
         11   -1    0    0    0    0 -0.00000000000E+00 -0.00000000000E+00 -0.45593999997E+02  0.45594000000E+02  0.51100000000E-03 0.  1.
    9900012    2    1    2    0    0 -0.12057290114E+02  0.14099554317E+02 -0.25504303141E+01  0.72461538199E+02  0.69999958189E+02 0.  0.
         12    1    1    2    0    0  0.12057290114E+02 -0.14099554317E+02  0.25504303141E+01  0.18726461801E+02  0.00000000000E+00 0. -1.
         11    1    3    3    0    0 -0.12669208156E+02 -0.16638110619E+01  0.20609242208E+02  0.24249081780E+02  0.51100000000E-03 0. -1.
        -11    1    3    3    0    0  0.99353315089E+01  0.42300461907E+00  0.76555047052E+01  0.12549760860E+02  0.51100000000E-03 0.  1.
        -12    1    3    3    0    0 -0.93234134669E+01  0.15340360759E+02 -0.30815177227E+02  0.35662695558E+02  0.00000000000E+00 0.  1.
</event>
<event>
 7    1  0.3597718E-013  0.7246192E+02  0.7816164E-02  0.1226707E+00
        -11   -1    0    0    0    0  0.00000000000E+00  0.00000000000E+00  0.45593999997E+02  0.45594000000E+02  0.51100000000E-03 0.  1.
         11   -1    0    0    0    0 -0.00000000000E+00 -0.00000000000E+00 -0.45593999997E+02  0.45594000000E+02  0.51100000000E-03 0. -1.
    9900012    2    1    2    0    0 -0.17848393422E+02 -0.16025059635E+01  0.54344126548E+01  0.72461921553E+02  0.70000457578E+02 0.  0.
         12    1    1    2    0    0  0.17848393422E+02  0.16025059635E+01 -0.54344126548E+01  0.18726078447E+02  0.00000000000E+00 0. -1.
         11    1    3    3    0    0 -0.17509765953E+02 -0.17432308076E+02 -0.19856265237E+02  0.31697768659E+02  0.51100000000E-03 0. -1.
        -11    1    3    3    0    0  0.73095781688E+01 -0.56024616048E+01  0.69752130817E+01  0.11552969611E+02  0.51100000000E-03 0.  1.
        -12    1    3    3    0    0 -0.76482056383E+01  0.21432263717E+02  0.18315464810E+02  0.29211183282E+02  0.00000000000E+00 0.  1.
</event>
<event>
 7    1  0.3597718E-013  0.7246158E+02  0.7816164E-02  0.1226708E+00
        -11   -1    0    0    0    0  0.00000000000E+00  0.00000000000E+00  0.45593999997E+02  0.45594000000E+02  0.51100000000E-03 0.  1.
         11   -1    0    0    0    0 -0.00000000000E+00 -0.00000000000E+00 -0.45593999997E+02  0.45594000000E+02  0.51100000000E-03 0. -1.
    9900012    2    1    2    0    0  0.18927870550E+01  0.51848585907E+01  0.17894508256E+02  0.72461579436E+02  0.70000011908E+02 0.  0.
         12    1    1    2    0    0 -0.18927870550E+01 -0.51848585907E+01 -0.17894508256E+02  0.18726420564E+02  0.00000000000E+00 0. -1.
         11    1    3    3    0    0 -0.24144730959E+02  0.99192051224E+01  0.36106680537E+01  0.26351386821E+02  0.51100000000E-03 0. -1.
        -11    1    3    3    0    0  0.53257095614E+01 -0.15562672680E+02  0.15642587424E+02  0.22699130046E+02  0.51100000000E-03 0.  1.
        -12    1    3    3    0    0  0.20711808453E+02  0.10828326149E+02 -0.13587472218E+01  0.23411062568E+02  0.00000000000E+00 0.  1.
</event>
<event>
 7    1  0.3634602E-013  0.7246137E+02  0.7816164E-02  0.1226709E+00
        -11   -1    0    0    0    0  0.00000000000E+00  0.00000000000E+00  0.45593999997E+02  0.45594000000E+02  0.51100000000E-03 0. -1.
         11   -1    0    0    0    0 -0.00000000000E+00 -0.00000000000E+00 -0.45593999997E+02  0.45594000000E+02  0.51100000000E-03 0.  1.
    9900012    2    1    2    0    0 -0.98754861735E+01 -0.83923849918E+01 -0.13517740112E+02  0.72461370545E+02  0.69999739788E+02 0.  0.
         12    1    1    2    0    0  0.98754861735E+01  0.83923849918E+01  0.13517740112E+02  0.18726629455E+02  0.00000000000E+00 0. -1.
         11    1    3    3    0    0 -0.10938092024E+02 -0.13695084270E+02 -0.99499856530E+01  0.20154389226E+02  0.51100000000E-03 0. -1.
        -11    1    3    3    0    0 -0.21272448987E+02  0.96955590648E+01 -0.14019444214E+02  0.27259232708E+02  0.51100000000E-03 0.  1.
         12    1    3    3    0    0  0.22335054838E+02 -0.43928597862E+01  0.10451689755E+02  0.25047748611E+02  0.00000000000E+00 0. -1.
</event>
<event>
 7    1  0.3597718E-013  0.7246167E+02  0.7816164E-02  0.1226708E+00
        -11   -1    0    0    0    0  0.00000000000E+00  0.00000000000E+00  0.45593999997E+02  0.45594000000E+02  0.51100000000E-03 0. -1.
         11   -1    0    0    0    0 -0.00000000000E+00 -0.00000000000E+00 -0.45593999997E+02  0.45594000000E+02  0.51100000000E-03 0.  1.
    9900012    2    1    2    0    0  0.67387403333E+01 -0.18546639421E+01 -0.17373114831E+02  0.72461667776E+02  0.70000126988E+02 0.  0.
         12    1    1    2    0    0 -0.67387403333E+01  0.18546639421E+01  0.17373114831E+02  0.18726332224E+02  0.00000000000E+00 0. -1.
         11    1    3    3    0    0 -0.20164507952E+02  0.21528160375E+02 -0.11379388500E+02  0.31615811756E+02  0.51100000000E-03 0. -1.
        -11    1    3    3    0    0 -0.90365160118E+00 -0.89260462600E+01 -0.19683951874E+00  0.89738305149E+01  0.51100000000E-03 0.  1.
        -12    1    3    3    0    0  0.27806899886E+02 -0.14456778057E+02 -0.57968868127E+01  0.31872025505E+02  0.00000000000E+00 0.  1.
</event>
<event>
 7    1  0.3597718E-013  0.7246151E+02  0.7816164E-02  0.1226708E+00
        -11   -1    0    0    0    0  0.00000000000E+00  0.00000000000E+00  0.45593999997E+02  0.45594000000E+02  0.51100000000E-03 0.  1.
         11   -1    0    0    0    0 -0.00000000000E+00 -0.00000000000E+00 -0.45593999997E+02  0.45594000000E+02  0.51100000000E-03 0. -1.
    9900012    2    1    2    0    0 -0.18448557550E+02  0.31352571850E+01  0.70867593989E+00  0.72461512479E+02  0.69999924684E+02 0.  0.
         12    1    1    2    0    0  0.18448557550E+02 -0.31352571850E+01 -0.70867593989E+00  0.18726487521E+02  0.00000000000E+00 0. -1.
         11    1    3    3    0    0  0.24855910649E+01 -0.36423133246E+01  0.19611075565E+02  0.20100718753E+02  0.51100000000E-03 0. -1.
        -11    1    3    3    0    0 -0.18367107101E+02 -0.19481105186E+01  0.10732220034E+02  0.21361795453E+02  0.51100000000E-03 0.  1.
         12    1    3    3    0    0 -0.25670415142E+01  0.87256810282E+01 -0.29634619660E+02  0.30998998273E+02  0.00000000000E+00 0. -1.
</event>
<event>
 7    1  0.3597718E-013  0.7246167E+02  0.7816164E-02  0.1226708E+00
        -11   -1    0    0    0    0  0.00000000000E+00  0.00000000000E+00  0.45593999997E+02  0.45594000000E+02  0.51100000000E-03 0. -1.
         11   -1    0    0    0    0 -0.00000000000E+00 -0.00000000000E+00 -0.45593999997E+02  0.45594000000E+02  0.51100000000E-03 0.  1.
    9900012    2    1    2    0    0 -0.77123435189E-01  0.13088706132E+01 -0.18680377352E+02  0.72461665913E+02  0.70000124561E+02 0.  0.
         12    1    1    2    0    0  0.77123435189E-01 -0.13088706132E+01  0.18680377352E+02  0.18726334087E+02  0.00000000000E+00 0. -1.
         11    1    3    3    0    0 -0.16924578617E+02 -0.17734646110E+01  0.10451472871E+02  0.19970473794E+02  0.51100000000E-03 0. -1.
        -11    1    3    3    0    0  0.63462139461E+01 -0.18040798329E+02 -0.18529248033E+02  0.26628516082E+02  0.51100000000E-03 0.  1.
         12    1    3    3    0    0  0.10501241236E+02  0.21123133553E+02 -0.10602602190E+02  0.25862676037E+02  0.00000000000E+00 0. -1.
</event>
<event>
 7    1  0.3597718E-013  0.7246156E+02  0.7816164E-02  0.1226708E+00
        -11   -1    0    0    0    0  0.00000000000E+00  0.00000000000E+00  0.45593999997E+02  0.45594000000E+02  0.51100000000E-03 0. -1.
         11   -1    0    0    0    0 -0.00000000000E+00 -0.00000000000E+00 -0.45593999997E+02  0.45594000000E+02  0.51100000000E-03 0.  1.
    9900012    2    1    2    0    0  0.90824413420E+01 -0.16362239694E+02 -0.68269017285E+00  0.72461556280E+02  0.69999981743E+02 0.  0.
         12    1    1    2    0    0 -0.90824413420E+01  0.16362239694E+02  0.68269017285E+00  0.18726443720E+02  0.00000000000E+00 0. -1.
         11    1    3    3    0    0 -0.16413870090E+00 -0.29475741398E+01 -0.87133115977E+01  0.91998333725E+01  0.51100000000E-03 0. -1.
        -11    1    3    3    0    0  0.20788188397E+02  0.43359144005E+01 -0.19295654102E+02  0.28692702870E+02  0.51100000000E-03 0.  1.
         12    1    3    3    0    0 -0.11541608355E+02 -0.17750579955E+02  0.27326275527E+02  0.34569020037E+02  0.00000000000E+00 0. -1.
</event>
<event>
 7    1  0.3597718E-013  0.7246147E+02  0.7816164E-02  0.1226708E+00
        -11   -1    0    0    0    0  0.00000000000E+00  0.00000000000E+00  0.45593999997E+02  0.45594000000E+02  0.51100000000E-03 0. -1.
         11   -1    0    0    0    0 -0.00000000000E+00 -0.00000000000E+00 -0.45593999997E+02  0.45594000000E+02  0.51100000000E-03 0.  1.
    9900012    2    1    2    0    0  0.17396786133E+02 -0.68564794611E+01 -0.10117200825E+01  0.72461466528E+02  0.69999864825E+02 0.  0.
         12    1    1    2    0    0 -0.17396786133E+02  0.68564794611E+01  0.10117200825E+01  0.18726533472E+02  0.00000000000E+00 0. -1.
         11    1    3    3    0    0 -0.21096507393E+00 -0.46019521998E+01  0.61755302008E+01  0.77045209996E+01  0.51100000000E-03 0. -1.
        -11    1    3    3    0    0  0.63138052427E+01  0.25219900852E-01 -0.34521237230E+02  0.35093882555E+02  0.51100000000E-03 0.  1.
         12    1    3    3    0    0  0.11293945964E+02 -0.22797471621E+01  0.27333986946E+02  0.29663062973E+02  0.00000000000E+00 0. -1.
</event>
<event>
 7    1  0.3597718E-013  0.7246155E+02  0.7816164E-02  0.1226708E+00
        -11   -1    0    0    0    0  0.00000000000E+00  0.00000000000E+00  0.45593999997E+02  0.45594000000E+02  0.51100000000E-03 0.  1.
         11   -1    0    0    0    0 -0.00000000000E+00 -0.00000000000E+00 -0.45593999997E+02  0.45594000000E+02  0.51100000000E-03 0. -1.
    9900012    2    1    2    0    0 -0.16707478604E+02 -0.12653599086E+01  0.83629468818E+01  0.72461551924E+02  0.69999976069E+02 0.  0.
         12    1    1    2    0    0  0.16707478604E+02  0.12653599086E+01 -0.83629468818E+01  0.18726448076E+02  0.00000000000E+00 0. -1.
         11    1    3    3    0    0  0.76078691224E+01 -0.39015735254E+01 -0.30344900625E+01  0.90724902181E+01  0.51100000000E-03 0. -1.
        -11    1    3    3    0    0  0.16394415847E+02 -0.98535139644E+01  0.77926442967E+01  0.20654150038E+02  0.51100000000E-03 0.  1.
         12    1    3    3    0    0 -0.40709763573E+02  0.12489727581E+02  0.36047926476E+01  0.42734911668E+02  0.00000000000E+00 0. -1.
</event>
<event>
 7    1  0.3597718E-013  0.7246158E+02  0.7816164E-02  0.1226708E+00
        -11   -1    0    0    0    0  0.00000000000E+00  0.00000000000E+00  0.45593999997E+02  0.45594000000E+02  0.51100000000E-03 0.  1.
         11   -1    0    0    0    0 -0.00000000000E+00 -0.00000000000E+00 -0.45593999997E+02  0.45594000000E+02  0.51100000000E-03 0. -1.
    9900012    2    1    2    0    0  0.97898283098E+01  0.86736926775E+01  0.13401689751E+02  0.72461575590E+02  0.70000006898E+02 0.  0.
         12    1    1    2    0    0 -0.97898283098E+01 -0.86736926775E+01 -0.13401689751E+02  0.18726424410E+02  0.00000000000E+00 0. -1.
         11    1    3    3    0    0 -0.12365099870E+02  0.81996358824E+01  0.32006534728E+01  0.15178073208E+02  0.51100000000E-03 0. -1.
        -11    1    3    3    0    0 -0.84376657655E+01  0.18385096757E+02  0.80384389958E+01  0.21767463980E+02  0.51100000000E-03 0.  1.
        -12    1    3    3    0    0  0.30592593945E+02 -0.17911039962E+02  0.21625972827E+01  0.35516038403E+02  0.00000000000E+00 0.  1.
</event>
<event>
 7    1  0.3597718E-013  0.7246157E+02  0.7816164E-02  0.1226708E+00
        -11   -1    0    0    0    0  0.00000000000E+00  0.00000000000E+00  0.45593999997E+02  0.45594000000E+02  0.51100000000E-03 0.  1.
         11   -1    0    0    0    0 -0.00000000000E+00 -0.00000000000E+00 -0.45593999997E+02  0.45594000000E+02  0.51100000000E-03 0. -1.
    9900012    2    1    2    0    0 -0.41600854298E+01  0.65796394915E+01  0.17031773208E+02  0.72461567739E+02  0.69999996672E+02 0.  0.
         12    1    1    2    0    0  0.41600854298E+01 -0.65796394915E+01 -0.17031773208E+02  0.18726432261E+02  0.00000000000E+00 0. -1.
         11    1    3    3    0    0 -0.12320396056E+02  0.89353171164E+01  0.60159934253E+01  0.16365336174E+02  0.51100000000E-03 0. -1.
        -11    1    3    3    0    0  0.84566828513E+00 -0.29343227978E+01  0.32886244950E+02  0.33027723389E+02  0.51100000000E-03 0.  1.
         12    1    3    3    0    0  0.73146423407E+01  0.57864517283E+00 -0.21870465167E+02  0.23068508176E+02  0.00000000000E+00 0. -1.
</event>
<event>
 7    1  0.3597718E-013  0.7246159E+02  0.7816164E-02  0.1226708E+00
        -11   -1    0    0    0    0  0.00000000000E+00  0.00000000000E+00  0.45593999997E+02  0.45594000000E+02  0.51100000000E-03 0.  1.
         11   -1    0    0    0    0 -0.00000000000E+00 -0.00000000000E+00 -0.45593999997E+02  0.45594000000E+02  0.51100000000E-03 0. -1.
    9900012    2    1    2    0    0  0.14962967764E+02 -0.84184491236E+01 -0.74778046920E+01  0.72461594766E+02  0.70000031879E+02 0.  0.
         12    1    1    2    0    0 -0.14962967764E+02  0.84184491236E+01  0.74778046920E+01  0.18726405234E+02  0.00000000000E+00 0. -1.
         11    1    3    3    0    0  0.16516094252E+02  0.22156117551E+02 -0.66473242379E+01  0.28422910372E+02  0.51100000000E-03 0. -1.
        -11    1    3    3    0    0 -0.26746668840E+01  0.61892158672E+01  0.23022040345E+01  0.71246318970E+01  0.51100000000E-03 0.  1.
        -12    1    3    3    0    0  0.11215403968E+01 -0.36763782542E+02 -0.31326844886E+01  0.36914052497E+02  0.00000000000E+00 0.  1.
</event>
<event>
 7    1  0.3597718E-013  0.7246153E+02  0.7816164E-02  0.1226708E+00
        -11   -1    0    0    0    0  0.00000000000E+00  0.00000000000E+00  0.45593999997E+02  0.45594000000E+02  0.51100000000E-03 0. -1.
         11   -1    0    0    0    0 -0.00000000000E+00 -0.00000000000E+00 -0.45593999997E+02  0.45594000000E+02  0.51100000000E-03 0.  1.
    9900012    2    1    2    0    0 -0.17138343845E+02 -0.51677511818E+01 -0.55002103059E+01  0.72461526882E+02  0.69999943447E+02 0.  0.
         12    1    1    2    0    0  0.17138343845E+02  0.51677511818E+01  0.55002103059E+01  0.18726473118E+02  0.00000000000E+00 0. -1.
         11    1    3    3    0    0 -0.11078434815E+02 -0.62666983176E+01  0.16515197921E+02  0.20850779083E+02  0.51100000000E-03 0. -1.
        -11    1    3    3    0    0 -0.25803872396E+02  0.48872018311E+01 -0.94931737158E+01  0.27925703569E+02  0.51100000000E-03 0.  1.
         12    1    3    3    0    0  0.19743963365E+02 -0.37882546953E+01 -0.12522234511E+02  0.23685044230E+02  0.00000000000E+00 0. -1.
</event>
<event>
 7    1  0.3597718E-013  0.7246156E+02  0.7816164E-02  0.1226708E+00
        -11   -1    0    0    0    0  0.00000000000E+00  0.00000000000E+00  0.45593999997E+02  0.45594000000E+02  0.51100000000E-03 0.  1.
         11   -1    0    0    0    0 -0.00000000000E+00 -0.00000000000E+00 -0.45593999997E+02  0.45594000000E+02  0.51100000000E-03 0. -1.
    9900012    2    1    2    0    0  0.27055006328E+01 -0.13899884210E+02  0.12253697175E+02  0.72461558555E+02  0.69999984707E+02 0.  0.
         12    1    1    2    0    0 -0.27055006328E+01  0.13899884210E+02 -0.12253697175E+02  0.18726441445E+02  0.00000000000E+00 0. -1.
         11    1    3    3    0    0 -0.62234763990E+01 -0.13680176276E+02  0.22222989205E+02  0.26827972918E+02  0.51100000000E-03 0. -1.
        -11    1    3    3    0    0  0.95947530505E+01  0.20266654048E+02  0.88353061857E+00  0.22440525373E+02  0.51100000000E-03 0.  1.
         12    1    3    3    0    0 -0.66577601864E+00 -0.20486361982E+02 -0.10852822648E+02  0.23193060264E+02  0.00000000000E+00 0. -1.
</event>
<event>
 7    1  0.3597718E-013  0.7246157E+02  0.7816164E-02  0.1226708E+00
        -11   -1    0    0    0    0  0.00000000000E+00  0.00000000000E+00  0.45593999997E+02  0.45594000000E+02  0.51100000000E-03 0.  1.
         11   -1    0    0    0    0 -0.00000000000E+00 -0.00000000000E+00 -0.45593999997E+02  0.45594000000E+02  0.51100000000E-03 0. -1.
    9900012    2    1    2    0    0  0.14700385877E+02 -0.93355130744E+01  0.68866463302E+01  0.72461573567E+02  0.70000004263E+02 0.  0.
         12    1    1    2    0    0 -0.14700385877E+02  0.93355130744E+01 -0.68866463302E+01  0.18726426433E+02  0.00000000000E+00 0. -1.
         11    1    3    3    0    0  0.18508685455E+02 -0.39123814515E+00 -0.11411534266E+02  0.21747358900E+02  0.51100000000E-03 0. -1.
        -11    1    3    3    0    0  0.17148045228E+02 -0.84439337918E+01 -0.46102570136E+01  0.19662399218E+02  0.51100000000E-03 0.  1.
        -12    1    3    3    0    0 -0.20956344807E+02 -0.50034113743E+00  0.22908437610E+02  0.31051815448E+02  0.00000000000E+00 0.  1.
</event>
<event>
 7    1  0.3597718E-013  0.7246156E+02  0.7816164E-02  0.1226708E+00
        -11   -1    0    0    0    0  0.00000000000E+00  0.00000000000E+00  0.45593999997E+02  0.45594000000E+02  0.51100000000E-03 0.  1.
         11   -1    0    0    0    0 -0.00000000000E+00 -0.00000000000E+00 -0.45593999997E+02  0.45594000000E+02  0.51100000000E-03 0. -1.
    9900012    2    1    2    0    0  0.15175136862E+02  0.10907725195E+02 -0.11900245646E+01  0.72461563975E+02  0.69999991768E+02 0.  0.
         12    1    1    2    0    0 -0.15175136862E+02 -0.10907725195E+02  0.11900245646E+01  0.18726436025E+02  0.00000000000E+00 0. -1.
         11    1    3    3    0    0  0.16580286948E+02 -0.25305632512E+01  0.68112694178E+00  0.16786113303E+02  0.51100000000E-03 0. -1.
        -11    1    3    3    0    0 -0.85858440696E+00 -0.20827064257E+02  0.30061551647E+01  0.21060406973E+02  0.51100000000E-03 0.  1.
         12    1    3    3    0    0 -0.54656567852E+00  0.34265352704E+02 -0.48773066711E+01  0.34615043699E+02  0.00000000000E+00 0. -1.
</event>
<event>
 7    1  0.3597718E-013  0.7246155E+02  0.7816164E-02  0.1226708E+00
        -11   -1    0    0    0    0  0.00000000000E+00  0.00000000000E+00  0.45593999997E+02  0.45594000000E+02  0.51100000000E-03 0.  1.
         11   -1    0    0    0    0 -0.00000000000E+00 -0.00000000000E+00 -0.45593999997E+02  0.45594000000E+02  0.51100000000E-03 0. -1.
    9900012    2    1    2    0    0  0.12996807050E+02  0.25204274045E+00  0.13479595812E+02  0.72461547526E+02  0.69999970340E+02 0.  0.
         12    1    1    2    0    0 -0.12996807050E+02 -0.25204274045E+00 -0.13479595812E+02  0.18726452474E+02  0.00000000000E+00 0. -1.
         11    1    3    3    0    0  0.13450146392E+01 -0.11225279769E+01  0.20878111212E+02  0.20951483515E+02  0.51100000000E-03 0. -1.
        -11    1    3    3    0    0 -0.79412555886E+01  0.19710760226E+02  0.51814717476E+01  0.21872934388E+02  0.51100000000E-03 0.  1.
         12    1    3    3    0    0  0.19593047999E+02 -0.18336189509E+02 -0.12579987148E+02  0.29637129622E+02  0.00000000000E+00 0. -1.
</event>
<event>
 7    1  0.3597718E-013  0.7246156E+02  0.7816164E-02  0.1226708E+00
        -11   -1    0    0    0    0  0.00000000000E+00  0.00000000000E+00  0.45593999997E+02  0.45594000000E+02  0.51100000000E-03 0.  1.
         11   -1    0    0    0    0 -0.00000000000E+00 -0.00000000000E+00 -0.45593999997E+02  0.45594000000E+02  0.51100000000E-03 0. -1.
    9900012    2    1    2    0    0 -0.14942814406E+02 -0.33845731556E+01  0.10767375945E+02  0.72461563539E+02  0.69999991199E+02 0.  0.
         12    1    1    2    0    0  0.14942814406E+02  0.33845731556E+01 -0.10767375945E+02  0.18726436461E+02  0.00000000000E+00 0. -1.
         11    1    3    3    0    0  0.17895725340E+02  0.17158538378E+02 -0.12515344354E+01  0.24824156852E+02  0.51100000000E-03 0. -1.
        -11    1    3    3    0    0 -0.57122707247E+01 -0.10780843398E+02  0.14204830356E+02  0.18725219009E+02  0.51100000000E-03 0.  1.
        -12    1    3    3    0    0 -0.27126269021E+02 -0.97622681353E+01 -0.21859199760E+01  0.28912187678E+02  0.00000000000E+00 0.  1.
</event>
<event>
 7    1  0.3597718E-013  0.7246160E+02  0.7816164E-02  0.1226708E+00
        -11   -1    0    0    0    0  0.00000000000E+00  0.00000000000E+00  0.45593999997E+02  0.45594000000E+02  0.51100000000E-03 0. -1.
         11   -1    0    0    0    0 -0.00000000000E+00 -0.00000000000E+00 -0.45593999997E+02  0.45594000000E+02  0.51100000000E-03 0.  1.
    9900012    2    1    2    0    0  0.18749112492E+01 -0.34208563412E+01 -0.18315576522E+02  0.72461604361E+02  0.70000044378E+02 0.  0.
         12    1    1    2    0    0 -0.18749112492E+01  0.34208563412E+01  0.18315576522E+02  0.18726395639E+02  0.00000000000E+00 0. -1.
         11    1    3    3    0    0 -0.13496317245E+02  0.13534252660E+02  0.16918190490E+02  0.25525511630E+02  0.51100000000E-03 0. -1.
        -11    1    3    3    0    0  0.12985255739E+02 -0.74078126061E+01 -0.60319906045E+01  0.16120715404E+02  0.51100000000E-03 0.  1.
        -12    1    3    3    0    0  0.23859727557E+01 -0.95472963952E+01 -0.29201776408E+02  0.30815377327E+02  0.00000000000E+00 0.  1.
</event>
<event>
 7    1  0.3597718E-013  0.7246156E+02  0.7816164E-02  0.1226708E+00
        -11   -1    0    0    0    0  0.00000000000E+00  0.00000000000E+00  0.45593999997E+02  0.45594000000E+02  0.51100000000E-03 0.  1.
         11   -1    0    0    0    0 -0.00000000000E+00 -0.00000000000E+00 -0.45593999997E+02  0.45594000000E+02  0.51100000000E-03 0. -1.
    9900012    2    1    2    0    0 -0.51446036755E+01  0.17888104936E+02 -0.20562735218E+01  0.72461561311E+02  0.69999988298E+02 0.  0.
         12    1    1    2    0    0  0.51446036755E+01 -0.17888104936E+02  0.20562735218E+01  0.18726438689E+02  0.00000000000E+00 0. -1.
         11    1    3    3    0    0 -0.28411947715E+01  0.31249459441E+02 -0.25905845091E+02  0.40690464648E+02  0.51100000000E-03 0. -1.
        -11    1    3    3    0    0  0.44193152218E+01  0.14321503069E+01  0.41012180691E+01  0.61968856245E+01  0.51100000000E-03 0.  1.
        -12    1    3    3    0    0 -0.67227241258E+01 -0.14793504812E+02  0.19748353500E+02  0.25574211039E+02  0.00000000000E+00 0.  1.
</event>
<event>
 7    1  0.3597718E-013  0.7246154E+02  0.7816164E-02  0.1226708E+00
        -11   -1    0    0    0    0  0.00000000000E+00  0.00000000000E+00  0.45593999997E+02  0.45594000000E+02  0.51100000000E-03 0. -1.
         11   -1    0    0    0    0 -0.00000000000E+00 -0.00000000000E+00 -0.45593999997E+02  0.45594000000E+02  0.51100000000E-03 0.  1.
    9900012    2    1    2    0    0 -0.14199840382E+02 -0.89995016935E+01  0.82494740123E+01  0.72461539600E+02  0.69999960015E+02 0.  0.
         12    1    1    2    0    0  0.14199840382E+02  0.89995016935E+01 -0.82494740123E+01  0.18726460400E+02  0.00000000000E+00 0. -1.
         11    1    3    3    0    0  0.19112135867E+02 -0.43092695098E+01  0.23548890975E+02  0.30633214123E+02  0.51100000000E-03 0. -1.
        -11    1    3    3    0    0 -0.72857436499E+01  0.64710961524E+01 -0.22426820164E+00  0.97471761261E+01  0.51100000000E-03 0.  1.
        -12    1    3    3    0    0 -0.26026232599E+02 -0.11161328336E+02 -0.15075148761E+02  0.32081149351E+02  0.00000000000E+00 0.  1.
</event>
<event>
 7    1  0.3597718E-013  0.7246158E+02  0.7816164E-02  0.1226708E+00
        -11   -1    0    0    0    0  0.00000000000E+00  0.00000000000E+00  0.45593999997E+02  0.45594000000E+02  0.51100000000E-03 0. -1.
         11   -1    0    0    0    0 -0.00000000000E+00 -0.00000000000E+00 -0.45593999997E+02  0.45594000000E+02  0.51100000000E-03 0.  1.
    9900012    2    1    2    0    0  0.29076030685E+01  0.18279342968E+02 -0.28443474873E+01  0.72461578890E+02  0.70000011197E+02 0.  0.
         12    1    1    2    0    0 -0.29076030685E+01 -0.18279342968E+02  0.28443474873E+01  0.18726421110E+02  0.00000000000E+00 0. -1.
         11    1    3    3    0    0 -0.25973100450E+01 -0.12077285417E+01 -0.63977099520E+01  0.70096590924E+01  0.51100000000E-03 0. -1.
        -11    1    3    3    0    0  0.21089808238E+02  0.35875211218E+02 -0.35002480428E+01  0.41761974667E+02  0.51100000000E-03 0.  1.
         12    1    3    3    0    0 -0.15584895124E+02 -0.16388139708E+02  0.70536105075E+01  0.23689945131E+02  0.00000000000E+00 0. -1.
</event>
<event>
 7    1  0.3597718E-013  0.7246154E+02  0.7816164E-02  0.1226708E+00
        -11   -1    0    0    0    0  0.00000000000E+00  0.00000000000E+00  0.45593999997E+02  0.45594000000E+02  0.51100000000E-03 0.  1.
         11   -1    0    0    0    0 -0.00000000000E+00 -0.00000000000E+00 -0.45593999997E+02  0.45594000000E+02  0.51100000000E-03 0. -1.
    9900012    2    1    2    0    0 -0.11033570427E+02 -0.76220945761E+01  0.13070742608E+02  0.72461539725E+02  0.69999960178E+02 0.  0.
         12    1    1    2    0    0  0.11033570427E+02  0.76220945761E+01 -0.13070742608E+02  0.18726460275E+02  0.00000000000E+00 0. -1.
         11    1    3    3    0    0 -0.43860734515E+01 -0.12509862657E+02 -0.71595994217E+01  0.15066325636E+02  0.51100000000E-03 0. -1.
        -11    1    3    3    0    0 -0.68266489887E+01 -0.21084642794E+02 -0.32288064555E+01  0.22396215965E+02  0.51100000000E-03 0.  1.
        -12    1    3    3    0    0  0.17915201337E+00  0.25972410875E+02  0.23459148485E+02  0.34998998125E+02  0.00000000000E+00 0.  1.
</event>
<event>
 7    1  0.3597718E-013  0.7246152E+02  0.7816164E-02  0.1226708E+00
        -11   -1    0    0    0    0  0.00000000000E+00  0.00000000000E+00  0.45593999997E+02  0.45594000000E+02  0.51100000000E-03 0. -1.
         11   -1    0    0    0    0 -0.00000000000E+00 -0.00000000000E+00 -0.45593999997E+02  0.45594000000E+02  0.51100000000E-03 0.  1.
    9900012    2    1    2    0    0 -0.10566796987E+02 -0.69818355641E+01 -0.13794116725E+02  0.72461524554E+02  0.69999940415E+02 0.  0.
         12    1    1    2    0    0  0.10566796987E+02  0.69818355641E+01  0.13794116725E+02  0.18726475446E+02  0.00000000000E+00 0. -1.
         11    1    3    3    0    0  0.13145489586E+02 -0.31261864460E+01  0.25579590111E+01  0.13752094121E+02  0.51100000000E-03 0. -1.
        -11    1    3    3    0    0  0.13070428214E+02  0.60421546330E+01 -0.14707418485E+02  0.20582805568E+02  0.51100000000E-03 0.  1.
        -12    1    3    3    0    0 -0.36782714787E+02 -0.98978037511E+01 -0.16446572511E+01  0.38126624866E+02  0.00000000000E+00 0.  1.
</event>
<event>
 7    1  0.3597718E-013  0.7246159E+02  0.7816164E-02  0.1226708E+00
        -11   -1    0    0    0    0  0.00000000000E+00  0.00000000000E+00  0.45593999997E+02  0.45594000000E+02  0.51100000000E-03 0.  1.
         11   -1    0    0    0    0 -0.00000000000E+00 -0.00000000000E+00 -0.45593999997E+02  0.45594000000E+02  0.51100000000E-03 0. -1.
    9900012    2    1    2    0    0  0.13690956289E+02  0.88172581190E+00  0.12745934827E+02  0.72461586058E+02  0.70000020535E+02 0.  0.
         12    1    1    2    0    0 -0.13690956289E+02 -0.88172581190E+00 -0.12745934827E+02  0.18726413942E+02  0.00000000000E+00 0. -1.
         11    1    3    3    0    0 -0.61072314469E+01 -0.22236772321E+02 -0.93384222226E+01  0.24879277503E+02  0.51100000000E-03 0. -1.
        -11    1    3    3    0    0 -0.54859290821E+01  0.16651832667E+01  0.11372503489E+02  0.12735858395E+02  0.51100000000E-03 0.  1.
        -12    1    3    3    0    0  0.25284116818E+02  0.21453314866E+02  0.10711853561E+02  0.34846450160E+02  0.00000000000E+00 0.  1.
</event>
<event>
 7    1  0.3597718E-013  0.7246151E+02  0.7816164E-02  0.1226708E+00
        -11   -1    0    0    0    0  0.00000000000E+00  0.00000000000E+00  0.45593999997E+02  0.45594000000E+02  0.51100000000E-03 0. -1.
         11   -1    0    0    0    0 -0.00000000000E+00 -0.00000000000E+00 -0.45593999997E+02  0.45594000000E+02  0.51100000000E-03 0.  1.
    9900012    2    1    2    0    0  0.15222015346E+02 -0.57151335248E+01 -0.92902675963E+01  0.72461506083E+02  0.69999916353E+02 0.  0.
         12    1    1    2    0    0 -0.15222015346E+02  0.57151335248E+01  0.92902675963E+01  0.18726493917E+02  0.00000000000E+00 0. -1.
         11    1    3    3    0    0 -0.37791033727E+01 -0.87498381900E+01  0.17717696402E+02  0.20118599770E+02  0.51100000000E-03 0. -1.
        -11    1    3    3    0    0  0.71746127769E+01  0.16575645348E+02  0.20450037866E+01  0.18177159513E+02  0.51100000000E-03 0.  1.
        -12    1    3    3    0    0  0.11826505942E+02 -0.13540940683E+02 -0.29052967785E+02  0.34165746801E+02  0.00000000000E+00 0.  1.
</event>
<event>
 7    1  0.3597718E-013  0.7246145E+02  0.7816164E-02  0.1226708E+00
        -11   -1    0    0    0    0  0.00000000000E+00  0.00000000000E+00  0.45593999997E+02  0.45594000000E+02  0.51100000000E-03 0.  1.
         11   -1    0    0    0    0 -0.00000000000E+00 -0.00000000000E+00 -0.45593999997E+02  0.45594000000E+02  0.51100000000E-03 0. -1.
    9900012    2    1    2    0    0  0.59235984332E+00  0.14833929153E+02  0.11414346828E+02  0.72461450457E+02  0.69999843889E+02 0.  0.
         12    1    1    2    0    0 -0.59235984332E+00 -0.14833929153E+02 -0.11414346828E+02  0.18726549543E+02  0.00000000000E+00 0. -1.
         11    1    3    3    0    0 -0.82429796546E+01 -0.24462684516E+01 -0.25451284256E+02  0.26864452600E+02  0.51100000000E-03 0. -1.
        -11    1    3    3    0    0 -0.20336815351E+01  0.13207994354E+02  0.11227931358E+02  0.17454323771E+02  0.51100000000E-03 0.  1.
        -12    1    3    3    0    0  0.10869021033E+02  0.40722032498E+01  0.25637699726E+02  0.28142674087E+02  0.00000000000E+00 0.  1.
</event>
<event>
 7    1  0.3597718E-013  0.7246159E+02  0.7816164E-02  0.1226708E+00
        -11   -1    0    0    0    0  0.00000000000E+00  0.00000000000E+00  0.45593999997E+02  0.45594000000E+02  0.51100000000E-03 0.  1.
         11   -1    0    0    0    0 -0.00000000000E+00 -0.00000000000E+00 -0.45593999997E+02  0.45594000000E+02  0.51100000000E-03 0. -1.
    9900012    2    1    2    0    0 -0.13444474067E+02 -0.57758713441E+01  0.11686052355E+02  0.72461591044E+02  0.70000027030E+02 0.  0.
         12    1    1    2    0    0  0.13444474067E+02  0.57758713441E+01 -0.11686052355E+02  0.18726408956E+02  0.00000000000E+00 0. -1.
         11    1    3    3    0    0 -0.93829214681E+01 -0.36908308349E+01 -0.41392647201E+01  0.10899310080E+02  0.51100000000E-03 0. -1.
        -11    1    3    3    0    0 -0.22891366076E+02  0.16330911766E+02  0.20517525218E+02  0.34809225232E+02  0.51100000000E-03 0.  1.
         12    1    3    3    0    0  0.18829813477E+02 -0.18415952275E+02 -0.46922081423E+01  0.26753055732E+02  0.00000000000E+00 0. -1.
</event>
<event>
 7    1  0.3597718E-013  0.7246155E+02  0.7816164E-02  0.1226708E+00
        -11   -1    0    0    0    0  0.00000000000E+00  0.00000000000E+00  0.45593999997E+02  0.45594000000E+02  0.51100000000E-03 0. -1.
         11   -1    0    0    0    0 -0.00000000000E+00 -0.00000000000E+00 -0.45593999997E+02  0.45594000000E+02  0.51100000000E-03 0.  1.
    9900012    2    1    2    0    0  0.23334619186E+01 -0.15246047238E+02 -0.10620401883E+02  0.72461549801E+02  0.69999973303E+02 0.  0.
         12    1    1    2    0    0 -0.23334619186E+01  0.15246047238E+02  0.10620401883E+02  0.18726450199E+02  0.00000000000E+00 0. -1.
         11    1    3    3    0    0  0.84129491450E+01  0.26353423010E+01  0.96212705124E+01  0.13049581943E+02  0.51100000000E-03 0. -1.
        -11    1    3    3    0    0 -0.26264731527E+02 -0.33017288589E+01  0.12767165948E+01  0.26502217665E+02  0.51100000000E-03 0.  1.
         12    1    3    3    0    0  0.20185244300E+02 -0.14579660680E+02 -0.21518388990E+02  0.32909750193E+02  0.00000000000E+00 0. -1.
</event>
<event>
 7    1  0.3597718E-013  0.7246161E+02  0.7816164E-02  0.1226708E+00
        -11   -1    0    0    0    0  0.00000000000E+00  0.00000000000E+00  0.45593999997E+02  0.45594000000E+02  0.51100000000E-03 0.  1.
         11   -1    0    0    0    0 -0.00000000000E+00 -0.00000000000E+00 -0.45593999997E+02  0.45594000000E+02  0.51100000000E-03 0. -1.
    9900012    2    1    2    0    0  0.15189415270E-02 -0.17236578725E+02  0.73196913378E+01  0.72461614077E+02  0.70000057035E+02 0.  0.
         12    1    1    2    0    0 -0.15189415270E-02  0.17236578725E+02 -0.73196913378E+01  0.18726385923E+02  0.00000000000E+00 0. -1.
         11    1    3    3    0    0  0.72175556791E+01 -0.81733707535E+01  0.86393906636E+01  0.13911727813E+02  0.51100000000E-03 0. -1.
        -11    1    3    3    0    0  0.26694027366E+01 -0.31965923434E+02  0.58250328008E+01  0.32601794112E+02  0.51100000000E-03 0.  1.
         12    1    3    3    0    0 -0.98854394742E+01  0.22902715462E+02 -0.71447321266E+01  0.25948092151E+02  0.00000000000E+00 0. -1.
</event>
<event>
 7    1  0.3597718E-013  0.7246154E+02  0.7816164E-02  0.1226708E+00
        -11   -1    0    0    0    0  0.00000000000E+00  0.00000000000E+00  0.45593999997E+02  0.45594000000E+02  0.51100000000E-03 0.  1.
         11   -1    0    0    0    0 -0.00000000000E+00 -0.00000000000E+00 -0.45593999997E+02  0.45594000000E+02  0.51100000000E-03 0. -1.
    9900012    2    1    2    0    0  0.16270187642E+02  0.58992421977E+01  0.71526276110E+01  0.72461544218E+02  0.69999966031E+02 0.  0.
         12    1    1    2    0    0 -0.16270187642E+02 -0.58992421977E+01 -0.71526276110E+01  0.18726455782E+02  0.00000000000E+00 0. -1.
         11    1    3    3    0    0 -0.11066190494E+02 -0.25910810036E+01  0.23354947817E+02  0.25973599301E+02  0.51100000000E-03 0. -1.
        -11    1    3    3    0    0  0.15726082507E+02  0.19745217539E+02 -0.26342780153E+01  0.25379572644E+02  0.51100000000E-03 0.  1.
         12    1    3    3    0    0  0.11610295628E+02 -0.11254894338E+02 -0.13568042191E+02  0.21108372274E+02  0.00000000000E+00 0. -1.
</event>
<event>
 7    1  0.3597718E-013  0.7246156E+02  0.7816164E-02  0.1226708E+00
        -11   -1    0    0    0    0  0.00000000000E+00  0.00000000000E+00  0.45593999997E+02  0.45594000000E+02  0.51100000000E-03 0.  1.
         11   -1    0    0    0    0 -0.00000000000E+00 -0.00000000000E+00 -0.45593999997E+02  0.45594000000E+02  0.51100000000E-03 0. -1.
    9900012    2    1    2    0    0  0.24688057996E+01  0.10021538675E+02  0.15625406694E+02  0.72461559499E+02  0.69999985937E+02 0.  0.
         12    1    1    2    0    0 -0.24688057996E+01 -0.10021538675E+02 -0.15625406694E+02  0.18726440501E+02  0.00000000000E+00 0. -1.
         11    1    3    3    0    0 -0.11116503436E+02 -0.23345440625E+02  0.54791445536E+01  0.26431179920E+02  0.51100000000E-03 0. -1.
        -11    1    3    3    0    0  0.87986708637E+01  0.46194908612E+01  0.13425387878E+02  0.16703213605E+02  0.51100000000E-03 0.  1.
        -12    1    3    3    0    0  0.47866383720E+01  0.28747488440E+02 -0.32791257377E+01  0.29327165974E+02  0.00000000000E+00 0.  1.
</event>
<event>
 7    1  0.3597718E-013  0.7246098E+02  0.7816164E-02  0.1226710E+00
        -11   -1    0    0    0    0  0.00000000000E+00  0.00000000000E+00  0.45593999997E+02  0.45594000000E+02  0.51100000000E-03 0. -1.
         11   -1    0    0    0    0 -0.00000000000E+00 -0.00000000000E+00 -0.45593999997E+02  0.45594000000E+02  0.51100000000E-03 0.  1.
    9900012    2    1    2    0    0 -0.13375628590E+02 -0.52668743300E+01 -0.12002244273E+02  0.72460980136E+02  0.69999231205E+02 0.  0.
         12    1    1    2    0    0  0.13375628590E+02  0.52668743300E+01  0.12002244273E+02  0.18727019864E+02  0.00000000000E+00 0. -1.
         11    1    3    3    0    0 -0.25736236421E+02  0.22400767987E+02 -0.10376984562E+02  0.35662726766E+02  0.51100000000E-03 0. -1.
        -11    1    3    3    0    0 -0.40691878079E+01 -0.22000625453E+01  0.38278205776E+01  0.60042297803E+01  0.51100000000E-03 0.  1.
        -12    1    3    3    0    0  0.16429795639E+02 -0.25467579772E+02 -0.54530802891E+01  0.30794023589E+02  0.00000000000E+00 0.  1.
</event>
<event>
 7    1  0.3597718E-013  0.7246180E+02  0.7816164E-02  0.1226707E+00
        -11   -1    0    0    0    0  0.00000000000E+00  0.00000000000E+00  0.45593999997E+02  0.45594000000E+02  0.51100000000E-03 0.  1.
         11   -1    0    0    0    0 -0.00000000000E+00 -0.00000000000E+00 -0.45593999997E+02  0.45594000000E+02  0.51100000000E-03 0. -1.
    9900012    2    1    2    0    0 -0.28059085833E+01 -0.16729097860E+02 -0.79331411106E+01  0.72461800010E+02  0.70000299247E+02 0.  0.
         12    1    1    2    0    0  0.28059085833E+01  0.16729097860E+02  0.79331411106E+01  0.18726199990E+02  0.00000000000E+00 0. -1.
         11    1    3    3    0    0 -0.14272153938E+02  0.80356895219E+01  0.17865806375E+02  0.24237444623E+02  0.51100000000E-03 0. -1.
        -11    1    3    3    0    0 -0.75445251914E+01 -0.13310843639E+02 -0.20189029107E+02  0.25331705732E+02  0.51100000000E-03 0.  1.
        -12    1    3    3    0    0  0.19010770546E+02 -0.11453943742E+02 -0.56099183790E+01  0.22892649655E+02  0.00000000000E+00 0.  1.
</event>
<event>
 7    1  0.3597718E-013  0.7246158E+02  0.7816164E-02  0.1226708E+00
        -11   -1    0    0    0    0  0.00000000000E+00  0.00000000000E+00  0.45593999997E+02  0.45594000000E+02  0.51100000000E-03 0. -1.
         11   -1    0    0    0    0 -0.00000000000E+00 -0.00000000000E+00 -0.45593999997E+02  0.45594000000E+02  0.51100000000E-03 0.  1.
    9900012    2    1    2    0    0  0.44720747874E+01 -0.16357470292E+02 -0.79443356526E+01  0.72461581330E+02  0.70000014376E+02 0.  0.
         12    1    1    2    0    0 -0.44720747874E+01  0.16357470292E+02  0.79443356526E+01  0.18726418670E+02  0.00000000000E+00 0. -1.
         11    1    3    3    0    0 -0.64130608022E+01  0.73512453271E+00  0.63888296386E+01  0.90821198706E+01  0.51100000000E-03 0. -1.
        -11    1    3    3    0    0  0.29889441639E+02  0.31515415079E+01  0.36831516449E+01  0.30279969315E+02  0.51100000000E-03 0.  1.
         12    1    3    3    0    0 -0.19004306050E+02 -0.20244136333E+02 -0.18016316936E+02  0.33099492145E+02  0.00000000000E+00 0. -1.
</event>
<event>
 7    1  0.3597718E-013  0.7246158E+02  0.7816164E-02  0.1226708E+00
        -11   -1    0    0    0    0  0.00000000000E+00  0.00000000000E+00  0.45593999997E+02  0.45594000000E+02  0.51100000000E-03 0.  1.
         11   -1    0    0    0    0 -0.00000000000E+00 -0.00000000000E+00 -0.45593999997E+02  0.45594000000E+02  0.51100000000E-03 0. -1.
    9900012    2    1    2    0    0  0.34104033442E+01 -0.12727073683E+02 -0.13306745455E+02  0.72461582027E+02  0.70000015284E+02 0.  0.
         12    1    1    2    0    0 -0.34104033442E+01  0.12727073683E+02  0.13306745455E+02  0.18726417973E+02  0.00000000000E+00 0. -1.
         11    1    3    3    0    0  0.40123529022E+01  0.67873738915E+01 -0.31143651830E+02  0.32126227132E+02  0.51100000000E-03 0. -1.
        -11    1    3    3    0    0  0.84849593730E+01 -0.20839480898E+02  0.27426295885E+01  0.22667168261E+02  0.51100000000E-03 0.  1.
        -12    1    3    3    0    0 -0.90869089310E+01  0.13250333228E+01  0.15094276787E+02  0.17668186634E+02  0.00000000000E+00 0.  1.
</event>
<event>
 7    1  0.3597718E-013  0.7246152E+02  0.7816164E-02  0.1226708E+00
        -11   -1    0    0    0    0  0.00000000000E+00  0.00000000000E+00  0.45593999997E+02  0.45594000000E+02  0.51100000000E-03 0.  1.
         11   -1    0    0    0    0 -0.00000000000E+00 -0.00000000000E+00 -0.45593999997E+02  0.45594000000E+02  0.51100000000E-03 0. -1.
    9900012    2    1    2    0    0 -0.17340296106E+02 -0.34586329788E+01 -0.61670789798E+01  0.72461524777E+02  0.69999940705E+02 0.  0.
         12    1    1    2    0    0  0.17340296106E+02  0.34586329788E+01  0.61670789798E+01  0.18726475223E+02  0.00000000000E+00 0. -1.
         11    1    3    3    0    0  0.17159716705E+02 -0.70599259768E+01 -0.22850340014E+02  0.29435292953E+02  0.51100000000E-03 0. -1.
        -11    1    3    3    0    0 -0.26138911996E+01 -0.51045214518E+01  0.59746036422E+01  0.82815732442E+01  0.51100000000E-03 0.  1.
        -12    1    3    3    0    0 -0.31886121612E+02  0.87058144498E+01  0.10708657392E+02  0.34744658580E+02  0.00000000000E+00 0.  1.
</event>
<event>
 7    1  0.3597718E-013  0.7246160E+02  0.7816164E-02  0.1226708E+00
        -11   -1    0    0    0    0  0.00000000000E+00  0.00000000000E+00  0.45593999997E+02  0.45594000000E+02  0.51100000000E-03 0.  1.
         11   -1    0    0    0    0 -0.00000000000E+00 -0.00000000000E+00 -0.45593999997E+02  0.45594000000E+02  0.51100000000E-03 0. -1.
    9900012    2    1    2    0    0 -0.30675976868E+01  0.17100982239E+02  0.69874377190E+01  0.72461600586E+02  0.70000039461E+02 0.  0.
         12    1    1    2    0    0  0.30675976868E+01 -0.17100982239E+02 -0.69874377190E+01  0.18726399414E+02  0.00000000000E+00 0. -1.
         11    1    3    3    0    0 -0.10732014424E+02  0.10953996114E+02 -0.14378873499E+02  0.21021849772E+02  0.51100000000E-03 0. -1.
        -11    1    3    3    0    0  0.23973056283E+02 -0.14760117722E+01  0.69521490009E+00  0.24028511446E+02  0.51100000000E-03 0.  1.
         12    1    3    3    0    0 -0.16308639545E+02  0.76229978975E+01  0.20671096318E+02  0.27411239369E+02  0.00000000000E+00 0. -1.
</event>
<event>
 7    1  0.3597718E-013  0.7246154E+02  0.7816164E-02  0.1226708E+00
        -11   -1    0    0    0    0  0.00000000000E+00  0.00000000000E+00  0.45593999997E+02  0.45594000000E+02  0.51100000000E-03 0. -1.
         11   -1    0    0    0    0 -0.00000000000E+00 -0.00000000000E+00 -0.45593999997E+02  0.45594000000E+02  0.51100000000E-03 0.  1.
    9900012    2    1    2    0    0 -0.28665072312E+01  0.91714503626E+01 -0.16073210719E+02  0.72461535617E+02  0.69999954826E+02 0.  0.
         12    1    1    2    0    0  0.28665072312E+01 -0.91714503626E+01  0.16073210719E+02  0.18726464383E+02  0.00000000000E+00 0. -1.
         11    1    3    3    0    0  0.91079985011E+01  0.10675638985E+02 -0.16311079063E+02  0.21516881858E+02  0.51100000000E-03 0. -1.
        -11    1    3    3    0    0  0.86645547742E+01  0.69853427801E+01 -0.18642896873E+02  0.21712372677E+02  0.51100000000E-03 0.  1.
         12    1    3    3    0    0 -0.20639060506E+02 -0.84895314026E+01  0.18880765217E+02  0.29232281081E+02  0.00000000000E+00 0. -1.
</event>
<event>
 7    1  0.3597718E-013  0.7246155E+02  0.7816164E-02  0.1226708E+00
        -11   -1    0    0    0    0  0.00000000000E+00  0.00000000000E+00  0.45593999997E+02  0.45594000000E+02  0.51100000000E-03 0. -1.
         11   -1    0    0    0    0 -0.00000000000E+00 -0.00000000000E+00 -0.45593999997E+02  0.45594000000E+02  0.51100000000E-03 0.  1.
    9900012    2    1    2    0    0 -0.12624738713E+02 -0.65437232941E+01  0.12185052387E+02  0.72461552291E+02  0.69999976547E+02 0.  0.
         12    1    1    2    0    0  0.12624738713E+02  0.65437232941E+01 -0.12185052387E+02  0.18726447709E+02  0.00000000000E+00 0. -1.
         11    1    3    3    0    0  0.19428153142E+02 -0.11416055667E+02  0.16363956894E+02  0.27848851807E+02  0.51100000000E-03 0. -1.
        -11    1    3    3    0    0 -0.19609082770E+01  0.15758498105E+01  0.10622189346E+02  0.10916014412E+02  0.51100000000E-03 0.  1.
        -12    1    3    3    0    0 -0.30091983578E+02  0.32964825627E+01 -0.14801093852E+02  0.33696686071E+02  0.00000000000E+00 0.  1.
</event>
<event>
 7    1  0.3597718E-013  0.7246165E+02  0.7816164E-02  0.1226708E+00
        -11   -1    0    0    0    0  0.00000000000E+00  0.00000000000E+00  0.45593999997E+02  0.45594000000E+02  0.51100000000E-03 0.  1.
         11   -1    0    0    0    0 -0.00000000000E+00 -0.00000000000E+00 -0.45593999997E+02  0.45594000000E+02  0.51100000000E-03 0. -1.
    9900012    2    1    2    0    0  0.13197767695E+02 -0.12833811605E+02 -0.34334284424E+01  0.72461648959E+02  0.70000102475E+02 0.  0.
         12    1    1    2    0    0 -0.13197767695E+02  0.12833811605E+02  0.34334284424E+01  0.18726351041E+02  0.00000000000E+00 0. -1.
         11    1    3    3    0    0  0.22275788152E+02 -0.11980613149E+02 -0.21792076382E+02  0.33386231032E+02  0.51100000000E-03 0. -1.
        -11    1    3    3    0    0  0.86771116162E+01  0.67920569309E+01  0.16244090741E+02  0.19628927317E+02  0.51100000000E-03 0.  1.
        -12    1    3    3    0    0 -0.17755132074E+02 -0.76452553871E+01  0.21145571988E+01  0.19446490610E+02  0.00000000000E+00 0.  1.
</event>
<event>
 7    1  0.3597718E-013  0.7246159E+02  0.7816164E-02  0.1226708E+00
        -11   -1    0    0    0    0  0.00000000000E+00  0.00000000000E+00  0.45593999997E+02  0.45594000000E+02  0.51100000000E-03 0.  1.
         11   -1    0    0    0    0 -0.00000000000E+00 -0.00000000000E+00 -0.45593999997E+02  0.45594000000E+02  0.51100000000E-03 0. -1.
    9900012    2    1    2    0    0  0.16788485938E+02 -0.24502432321E+01 -0.79260096871E+01  0.72461585993E+02  0.70000020451E+02 0.  0.
         12    1    1    2    0    0 -0.16788485938E+02  0.24502432321E+01  0.79260096871E+01  0.18726414007E+02  0.00000000000E+00 0. -1.
         11    1    3    3    0    0  0.18150662448E+02 -0.53753617210E+01 -0.23264158678E+02  0.29992701449E+02  0.51100000000E-03 0. -1.
        -11    1    3    3    0    0  0.14077107946E+02  0.14567047599E+02  0.74133611159E+01  0.21571318160E+02  0.51100000000E-03 0.  1.
        -12    1    3    3    0    0 -0.15439284456E+02 -0.11641929110E+02  0.79247878748E+01  0.20897566384E+02  0.00000000000E+00 0.  1.
</event>
<event>
 7    1  0.3597718E-013  0.7246152E+02  0.7816164E-02  0.1226708E+00
        -11   -1    0    0    0    0  0.00000000000E+00  0.00000000000E+00  0.45593999997E+02  0.45594000000E+02  0.51100000000E-03 0.  1.
         11   -1    0    0    0    0 -0.00000000000E+00 -0.00000000000E+00 -0.45593999997E+02  0.45594000000E+02  0.51100000000E-03 0. -1.
    9900012    2    1    2    0    0 -0.79018237470E+01  0.16824089991E+02 -0.22786611495E+01  0.72461518238E+02  0.69999932187E+02 0.  0.
         12    1    1    2    0    0  0.79018237470E+01 -0.16824089991E+02  0.22786611495E+01  0.18726481762E+02  0.00000000000E+00 0. -1.
         11    1    3    3    0    0  0.31899184192E+01  0.10337611320E+02 -0.21318285857E+02  0.23906298322E+02  0.51100000000E-03 0. -1.
        -11    1    3    3    0    0 -0.10626546431E+01 -0.13341525389E+01 -0.13505829008E+02  0.13613104545E+02  0.51100000000E-03 0.  1.
        -12    1    3    3    0    0 -0.10029087523E+02  0.78206312093E+01  0.32545453716E+02  0.34942115371E+02  0.00000000000E+00 0.  1.
</event>
<event>
 7    1  0.3597718E-013  0.7246156E+02  0.7816164E-02  0.1226708E+00
        -11   -1    0    0    0    0  0.00000000000E+00  0.00000000000E+00  0.45593999997E+02  0.45594000000E+02  0.51100000000E-03 0.  1.
         11   -1    0    0    0    0 -0.00000000000E+00 -0.00000000000E+00 -0.45593999997E+02  0.45594000000E+02  0.51100000000E-03 0. -1.
    9900012    2    1    2    0    0 -0.67969557517E+01 -0.11528278317E+01  0.17411262040E+02  0.72461557056E+02  0.69999982755E+02 0.  0.
         12    1    1    2    0    0  0.67969557517E+01  0.11528278317E+01 -0.17411262040E+02  0.18726442944E+02  0.00000000000E+00 0. -1.
         11    1    3    3    0    0 -0.75926650358E+01  0.23868639701E+01 -0.18516107238E+02  0.20154203270E+02  0.51100000000E-03 0. -1.
        -11    1    3    3    0    0  0.74031189248E+01  0.28863360140E+01 -0.56312075467E+01  0.97389734621E+01  0.51100000000E-03 0.  1.
        -12    1    3    3    0    0 -0.66074096407E+01 -0.64260278158E+01  0.41558576825E+02  0.42568380323E+02  0.00000000000E+00 0.  1.
</event>
<event>
 7    1  0.3597718E-013  0.7246154E+02  0.7816164E-02  0.1226708E+00
        -11   -1    0    0    0    0  0.00000000000E+00  0.00000000000E+00  0.45593999997E+02  0.45594000000E+02  0.51100000000E-03 0. -1.
         11   -1    0    0    0    0 -0.00000000000E+00 -0.00000000000E+00 -0.45593999997E+02  0.45594000000E+02  0.51100000000E-03 0.  1.
    9900012    2    1    2    0    0 -0.14716278585E+02  0.10026375526E+02 -0.57951085599E+01  0.72461538914E+02  0.69999959122E+02 0.  0.
         12    1    1    2    0    0  0.14716278585E+02 -0.10026375526E+02  0.57951085599E+01  0.18726461086E+02  0.00000000000E+00 0. -1.
         11    1    3    3    0    0 -0.16902600569E+01  0.93164297501E+01 -0.85573205048E+01  0.12762467506E+02  0.51100000000E-03 0. -1.
        -11    1    3    3    0    0  0.14205607591E+02  0.64947544528E+01 -0.18831753476E+02  0.24466631597E+02  0.51100000000E-03 0.  1.
         12    1    3    3    0    0 -0.27231626119E+02 -0.57848086768E+01  0.21593965421E+02  0.35232439812E+02  0.00000000000E+00 0. -1.
</event>
<event>
 7    1  0.3597718E-013  0.7246147E+02  0.7816164E-02  0.1226708E+00
        -11   -1    0    0    0    0  0.00000000000E+00  0.00000000000E+00  0.45593999997E+02  0.45594000000E+02  0.51100000000E-03 0.  1.
         11   -1    0    0    0    0 -0.00000000000E+00 -0.00000000000E+00 -0.45593999997E+02  0.45594000000E+02  0.51100000000E-03 0. -1.
    9900012    2    1    2    0    0  0.12951139967E+02 -0.12439553676E+02 -0.53111711025E+01  0.72461466402E+02  0.69999864661E+02 0.  0.
         12    1    1    2    0    0 -0.12951139967E+02  0.12439553676E+02  0.53111711025E+01  0.18726533598E+02  0.00000000000E+00 0. -1.
         11    1    3    3    0    0  0.33919393571E+01  0.82246473436E+01 -0.22230379741E+02  0.23944516287E+02  0.51100000000E-03 0. -1.
        -11    1    3    3    0    0 -0.85700875495E+01  0.48593666501E+01 -0.42449038495E+01  0.10727490564E+02  0.51100000000E-03 0.  1.
        -12    1    3    3    0    0  0.18129288159E+02 -0.25523567670E+02  0.21164112488E+02  0.37789459551E+02  0.00000000000E+00 0.  1.
</event>
<event>
 7    1  0.3597718E-013  0.7246155E+02  0.7816164E-02  0.1226708E+00
        -11   -1    0    0    0    0  0.00000000000E+00  0.00000000000E+00  0.45593999997E+02  0.45594000000E+02  0.51100000000E-03 0.  1.
         11   -1    0    0    0    0 -0.00000000000E+00 -0.00000000000E+00 -0.45593999997E+02  0.45594000000E+02  0.51100000000E-03 0. -1.
    9900012    2    1    2    0    0  0.66350208633E+01 -0.16565753129E+02  0.56773577760E+01  0.72461546254E+02  0.69999968683E+02 0.  0.
         12    1    1    2    0    0 -0.66350208633E+01  0.16565753129E+02 -0.56773577760E+01  0.18726453746E+02  0.00000000000E+00 0. -1.
         11    1    3    3    0    0 -0.39264483809E+00 -0.23583462127E+01 -0.17932785296E+02  0.18091455319E+02  0.51100000000E-03 0. -1.
        -11    1    3    3    0    0  0.25266928732E+01 -0.92466267286E+01 -0.13557367940E+02  0.16603810058E+02  0.51100000000E-03 0.  1.
        -12    1    3    3    0    0  0.45009728282E+01 -0.49607801874E+01  0.37167511012E+02  0.37766280877E+02  0.00000000000E+00 0.  1.
</event>
<event>
 7    1  0.3597718E-013  0.7246155E+02  0.7816164E-02  0.1226708E+00
        -11   -1    0    0    0    0  0.00000000000E+00  0.00000000000E+00  0.45593999997E+02  0.45594000000E+02  0.51100000000E-03 0.  1.
         11   -1    0    0    0    0 -0.00000000000E+00 -0.00000000000E+00 -0.45593999997E+02  0.45594000000E+02  0.51100000000E-03 0. -1.
    9900012    2    1    2    0    0 -0.15844122347E+02  0.63580819691E+01  0.76953464022E+01  0.72461554114E+02  0.69999978922E+02 0.  0.
         12    1    1    2    0    0  0.15844122347E+02 -0.63580819691E+01 -0.76953464022E+01  0.18726445886E+02  0.00000000000E+00 0. -1.
         11    1    3    3    0    0 -0.19985745623E+02  0.22814202977E+02  0.21818081748E+02  0.37362368460E+02  0.51100000000E-03 0. -1.
        -11    1    3    3    0    0 -0.38705871041E+01  0.19387023102E+01  0.55238165390E+01  0.70180168563E+01  0.51100000000E-03 0.  1.
        -12    1    3    3    0    0  0.80122103797E+01 -0.18394823318E+02 -0.19646551884E+02  0.28081168797E+02  0.00000000000E+00 0.  1.
</event>
<event>
 7    1  0.3597718E-013  0.7246156E+02  0.7816164E-02  0.1226708E+00
        -11   -1    0    0    0    0  0.00000000000E+00  0.00000000000E+00  0.45593999997E+02  0.45594000000E+02  0.51100000000E-03 0.  1.
         11   -1    0    0    0    0 -0.00000000000E+00 -0.00000000000E+00 -0.45593999997E+02  0.45594000000E+02  0.51100000000E-03 0. -1.
    9900012    2    1    2    0    0 -0.10065806390E+02 -0.15647595923E+02 -0.21240741676E+01  0.72461563940E+02  0.69999991722E+02 0.  0.
         12    1    1    2    0    0  0.10065806390E+02  0.15647595923E+02  0.21240741676E+01  0.18726436060E+02  0.00000000000E+00 0. -1.
         11    1    3    3    0    0 -0.14922618407E+02 -0.26238027872E+01 -0.11475313876E+01  0.15194923814E+02  0.51100000000E-03 0. -1.
        -11    1    3    3    0    0 -0.17232847179E+02  0.10816851928E+02  0.10376509542E+02  0.22839598466E+02  0.51100000000E-03 0.  1.
         12    1    3    3    0    0  0.22089659195E+02 -0.23840645064E+02 -0.11353052322E+02  0.34427041660E+02  0.00000000000E+00 0. -1.
</event>
<event>
 7    1  0.3597718E-013  0.7246154E+02  0.7816164E-02  0.1226708E+00
        -11   -1    0    0    0    0  0.00000000000E+00  0.00000000000E+00  0.45593999997E+02  0.45594000000E+02  0.51100000000E-03 0.  1.
         11   -1    0    0    0    0 -0.00000000000E+00 -0.00000000000E+00 -0.45593999997E+02  0.45594000000E+02  0.51100000000E-03 0. -1.
    9900012    2    1    2    0    0 -0.17439766552E+02  0.66213985426E+01  0.16406894801E+01  0.72461541765E+02  0.69999962835E+02 0.  0.
         12    1    1    2    0    0  0.17439766552E+02 -0.66213985426E+01 -0.16406894801E+01  0.18726458235E+02  0.00000000000E+00 0. -1.
         11    1    3    3    0    0 -0.82775858304E+01  0.88984498082E+01  0.82042802338E+00  0.12180884146E+02  0.51100000000E-03 0. -1.
        -11    1    3    3    0    0  0.82821233572E+01  0.13094519733E+02  0.23272902050E+02  0.27958683525E+02  0.51100000000E-03 0.  1.
         12    1    3    3    0    0 -0.17444304079E+02 -0.15371570999E+02 -0.22452640593E+02  0.32321974095E+02  0.00000000000E+00 0. -1.
</event>
<event>
 7    1  0.3597718E-013  0.7246158E+02  0.7816164E-02  0.1226708E+00
        -11   -1    0    0    0    0  0.00000000000E+00  0.00000000000E+00  0.45593999997E+02  0.45594000000E+02  0.51100000000E-03 0.  1.
         11   -1    0    0    0    0 -0.00000000000E+00 -0.00000000000E+00 -0.45593999997E+02  0.45594000000E+02  0.51100000000E-03 0. -1.
    9900012    2    1    2    0    0 -0.10752510851E+02 -0.52008364143E+01  0.14422679521E+02  0.72461578197E+02  0.70000010294E+02 0.  0.
         12    1    1    2    0    0  0.10752510851E+02  0.52008364143E+01 -0.14422679521E+02  0.18726421803E+02  0.00000000000E+00 0. -1.
         11    1    3    3    0    0  0.14741088349E+00  0.25304050952E+02 -0.16805959542E+00  0.25305038408E+02  0.51100000000E-03 0. -1.
        -11    1    3    3    0    0  0.75069248913E+01  0.17296253116E+01  0.30316822415E+01  0.82786848302E+01  0.51100000000E-03 0.  1.
        -12    1    3    3    0    0 -0.18406846626E+02 -0.32234512678E+02  0.11559056875E+02  0.38877854958E+02  0.00000000000E+00 0.  1.
</event>
<event>
 7    1  0.3597718E-013  0.7246144E+02  0.7816164E-02  0.1226708E+00
        -11   -1    0    0    0    0  0.00000000000E+00  0.00000000000E+00  0.45593999997E+02  0.45594000000E+02  0.51100000000E-03 0.  1.
         11   -1    0    0    0    0 -0.00000000000E+00 -0.00000000000E+00 -0.45593999997E+02  0.45594000000E+02  0.51100000000E-03 0. -1.
    9900012    2    1    2    0    0  0.17810990389E+02 -0.49147544713E+01  0.30492607420E+01  0.72461436481E+02  0.69999825683E+02 0.  0.
         12    1    1    2    0    0 -0.17810990389E+02  0.49147544713E+01 -0.30492607420E+01  0.18726563519E+02  0.00000000000E+00 0. -1.
         11    1    3    3    0    0  0.18996192481E+02  0.69976345794E+01 -0.19795289650E+02  0.28313878418E+02  0.51100000000E-03 0. -1.
        -11    1    3    3    0    0  0.10974661473E+02  0.40788058304E+01 -0.23321640372E+01  0.11938125515E+02  0.51100000000E-03 0.  1.
        -12    1    3    3    0    0 -0.12159863565E+02 -0.15991194881E+02  0.25176714429E+02  0.32209432548E+02  0.00000000000E+00 0.  1.
</event>
<event>
 7    1  0.3597718E-013  0.7246155E+02  0.7816164E-02  0.1226708E+00
        -11   -1    0    0    0    0  0.00000000000E+00  0.00000000000E+00  0.45593999997E+02  0.45594000000E+02  0.51100000000E-03 0.  1.
         11   -1    0    0    0    0 -0.00000000000E+00 -0.00000000000E+00 -0.45593999997E+02  0.45594000000E+02  0.51100000000E-03 0. -1.
    9900012    2    1    2    0    0  0.73295599221E+01  0.15608625292E+02  0.73026180140E+01  0.72461551804E+02  0.69999975913E+02 0.  0.
         12    1    1    2    0    0 -0.73295599221E+01 -0.15608625292E+02 -0.73026180140E+01  0.18726448196E+02  0.00000000000E+00 0. -1.
         11    1    3    3    0    0  0.10380844467E+02  0.95375684650E+01  0.58629229037E+00  0.14109248137E+02  0.51100000000E-03 0. -1.
        -11    1    3    3    0    0  0.20631610199E+02 -0.73707399353E+01 -0.12312058076E+02  0.25131214076E+02  0.51100000000E-03 0.  1.
         12    1    3    3    0    0 -0.23682894744E+02  0.13441796762E+02  0.19028383800E+02  0.33221089592E+02  0.00000000000E+00 0. -1.
</event>
<event>
 7    1  0.3597718E-013  0.7246151E+02  0.7816164E-02  0.1226708E+00
        -11   -1    0    0    0    0  0.00000000000E+00  0.00000000000E+00  0.45593999997E+02  0.45594000000E+02  0.51100000000E-03 0.  1.
         11   -1    0    0    0    0 -0.00000000000E+00 -0.00000000000E+00 -0.45593999997E+02  0.45594000000E+02  0.51100000000E-03 0. -1.
    9900012    2    1    2    0    0  0.17742427526E+02  0.14762205298E+01  0.58058943967E+01  0.72461511506E+02  0.69999923417E+02 0.  0.
         12    1    1    2    0    0 -0.17742427526E+02 -0.14762205298E+01 -0.58058943967E+01  0.18726488494E+02  0.00000000000E+00 0. -1.
         11    1    3    3    0    0  0.10827303420E+02  0.21403772759E+02 -0.54031736521E+00  0.23992580745E+02  0.51100000000E-03 0. -1.
        -11    1    3    3    0    0  0.28600612281E+01  0.12825749618E+02 -0.42423220820E+01  0.13808587922E+02  0.51100000000E-03 0.  1.
        -12    1    3    3    0    0  0.40550628776E+01 -0.32753301847E+02  0.10588533844E+02  0.34660342840E+02  0.00000000000E+00 0.  1.
</event>
<event>
 7    1  0.3597718E-013  0.7246153E+02  0.7816164E-02  0.1226708E+00
        -11   -1    0    0    0    0  0.00000000000E+00  0.00000000000E+00  0.45593999997E+02  0.45594000000E+02  0.51100000000E-03 0. -1.
         11   -1    0    0    0    0 -0.00000000000E+00 -0.00000000000E+00 -0.45593999997E+02  0.45594000000E+02  0.51100000000E-03 0.  1.
    9900012    2    1    2    0    0 -0.11139672193E+01  0.98049858522E+01 -0.15915459016E+02  0.72461534605E+02  0.69999953508E+02 0.  0.
         12    1    1    2    0    0  0.11139672193E+01 -0.98049858522E+01  0.15915459016E+02  0.18726465395E+02  0.00000000000E+00 0. -1.
         11    1    3    3    0    0 -0.14605411305E+02  0.53424578184E+01  0.53445013612E+01  0.16444561107E+02  0.51100000000E-03 0. -1.
        -11    1    3    3    0    0 -0.17699887012E+02 -0.26381418364E+01 -0.54007596868E+00  0.17903560397E+02  0.51100000000E-03 0.  1.
        -12    1    3    3    0    0  0.31191331098E+02  0.71006698702E+01 -0.20719884408E+02  0.38113413100E+02  0.00000000000E+00 0.  1.
</event>
<event>
 7    1  0.3597718E-013  0.7246157E+02  0.7816164E-02  0.1226708E+00
        -11   -1    0    0    0    0  0.00000000000E+00  0.00000000000E+00  0.45593999997E+02  0.45594000000E+02  0.51100000000E-03 0.  1.
         11   -1    0    0    0    0 -0.00000000000E+00 -0.00000000000E+00 -0.45593999997E+02  0.45594000000E+02  0.51100000000E-03 0. -1.
    9900012    2    1    2    0    0  0.46194531026E+01  0.39014687904E+01  0.17723384874E+02  0.72461570093E+02  0.69999999738E+02 0.  0.
         12    1    1    2    0    0 -0.46194531026E+01 -0.39014687904E+01 -0.17723384874E+02  0.18726429907E+02  0.00000000000E+00 0. -1.
         11    1    3    3    0    0 -0.13877779901E+02  0.11148054394E+02 -0.14022923204E+02  0.22660853188E+02  0.51100000000E-03 0. -1.
        -11    1    3    3    0    0  0.93938892382E+01  0.93388375788E+01  0.47873661064E+00  0.13254743730E+02  0.51100000000E-03 0.  1.
        -12    1    3    3    0    0  0.91033437657E+01 -0.16585423183E+02  0.31267571467E+02  0.36545973175E+02  0.00000000000E+00 0.  1.
</event>
<event>
 7    1  0.3597718E-013  0.7246153E+02  0.7816164E-02  0.1226708E+00
        -11   -1    0    0    0    0  0.00000000000E+00  0.00000000000E+00  0.45593999997E+02  0.45594000000E+02  0.51100000000E-03 0. -1.
         11   -1    0    0    0    0 -0.00000000000E+00 -0.00000000000E+00 -0.45593999997E+02  0.45594000000E+02  0.51100000000E-03 0.  1.
    9900012    2    1    2    0    0  0.11156170438E+02  0.12170287923E+02 -0.88376904117E+01  0.72461526259E+02  0.69999942636E+02 0.  0.
         12    1    1    2    0    0 -0.11156170438E+02 -0.12170287923E+02  0.88376904117E+01  0.18726473741E+02  0.00000000000E+00 0. -1.
         11    1    3    3    0    0  0.64094867350E+01  0.31470390234E+01 -0.15169629662E+01  0.72997638128E+01  0.51100000000E-03 0. -1.
        -11    1    3    3    0    0  0.16687725929E+02  0.33303297530E+02 -0.79828799005E+01  0.38096144094E+02  0.51100000000E-03 0.  1.
         12    1    3    3    0    0 -0.11941042226E+02 -0.24280048630E+02  0.66215245506E+00  0.27065618352E+02  0.00000000000E+00 0. -1.
</event>
<event>
 7    1  0.3597718E-013  0.7246155E+02  0.7816164E-02  0.1226708E+00
        -11   -1    0    0    0    0  0.00000000000E+00  0.00000000000E+00  0.45593999997E+02  0.45594000000E+02  0.51100000000E-03 0. -1.
         11   -1    0    0    0    0 -0.00000000000E+00 -0.00000000000E+00 -0.45593999997E+02  0.45594000000E+02  0.51100000000E-03 0.  1.
    9900012    2    1    2    0    0 -0.40979112169E+01  0.17293611139E+02  0.59006912099E+01  0.72461547605E+02  0.69999970442E+02 0.  0.
         12    1    1    2    0    0  0.40979112169E+01 -0.17293611139E+02 -0.59006912099E+01  0.18726452395E+02  0.00000000000E+00 0. -1.
         11    1    3    3    0    0 -0.20680754036E+02  0.22786686016E+02  0.10038739232E+02  0.32368239568E+02  0.51100000000E-03 0. -1.
        -11    1    3    3    0    0  0.11499535735E+01 -0.49158793683E+01  0.14811103197E+02  0.15647908530E+02  0.51100000000E-03 0.  1.
        -12    1    3    3    0    0  0.15432889246E+02 -0.57719550856E+00 -0.18949151219E+02  0.24445399507E+02  0.00000000000E+00 0.  1.
</event>
<event>
 7    1  0.3597718E-013  0.7246195E+02  0.7816164E-02  0.1226707E+00
        -11   -1    0    0    0    0  0.00000000000E+00  0.00000000000E+00  0.45593999997E+02  0.45594000000E+02  0.51100000000E-03 0.  1.
         11   -1    0    0    0    0 -0.00000000000E+00 -0.00000000000E+00 -0.45593999997E+02  0.45594000000E+02  0.51100000000E-03 0. -1.
    9900012    2    1    2    0    0  0.11972147624E+02 -0.92068188579E+01  0.11071007540E+02  0.72461947555E+02  0.70000491450E+02 0.  0.
         12    1    1    2    0    0 -0.11972147624E+02  0.92068188579E+01 -0.11071007540E+02  0.18726052445E+02  0.00000000000E+00 0. -1.
         11    1    3    3    0    0  0.21329440304E+02 -0.16838661125E+02 -0.16466098584E+02  0.31774485598E+02  0.51100000000E-03 0. -1.
        -11    1    3    3    0    0 -0.50548229691E+01 -0.52551223977E+01 -0.25099828766E+01  0.77115213133E+01  0.51100000000E-03 0.  1.
        -12    1    3    3    0    0 -0.43024697110E+01  0.12886964665E+02  0.30047089001E+02  0.32975940644E+02  0.00000000000E+00 0.  1.
</event>
<event>
 7    1  0.3597718E-013  0.7246129E+02  0.7816164E-02  0.1226709E+00
        -11   -1    0    0    0    0  0.00000000000E+00  0.00000000000E+00  0.45593999997E+02  0.45594000000E+02  0.51100000000E-03 0. -1.
         11   -1    0    0    0    0 -0.00000000000E+00 -0.00000000000E+00 -0.45593999997E+02  0.45594000000E+02  0.51100000000E-03 0.  1.
    9900012    2    1    2    0    0  0.14737988691E+02  0.11098464357E+02 -0.32102168501E+01  0.72461288757E+02  0.69999633245E+02 0.  0.
         12    1    1    2    0    0 -0.14737988691E+02 -0.11098464357E+02  0.32102168501E+01  0.18726711243E+02  0.00000000000E+00 0. -1.
         11    1    3    3    0    0  0.34561775830E+01 -0.12318454950E+01  0.33925311230E+01  0.49971866576E+01  0.51100000000E-03 0. -1.
        -11    1    3    3    0    0  0.36759760774E+02  0.17174756674E+02 -0.85199077537E+01  0.41458908661E+02  0.51100000000E-03 0.  1.
         12    1    3    3    0    0 -0.25477949666E+02 -0.48444468220E+01  0.19171597806E+01  0.26005193439E+02  0.00000000000E+00 0. -1.
</event>
<event>
 7    1  0.3597718E-013  0.7246159E+02  0.7816164E-02  0.1226708E+00
        -11   -1    0    0    0    0  0.00000000000E+00  0.00000000000E+00  0.45593999997E+02  0.45594000000E+02  0.51100000000E-03 0.  1.
         11   -1    0    0    0    0 -0.00000000000E+00 -0.00000000000E+00 -0.45593999997E+02  0.45594000000E+02  0.51100000000E-03 0. -1.
    9900012    2    1    2    0    0  0.11407429877E+02 -0.12948987989E+02  0.72713707326E+01  0.72461586070E+02  0.70000020551E+02 0.  0.
         12    1    1    2    0    0 -0.11407429877E+02  0.12948987989E+02 -0.72713707326E+01  0.18726413930E+02  0.00000000000E+00 0. -1.
         11    1    3    3    0    0  0.57729857551E+01  0.55432865806E+01 -0.11083061366E+02  0.13670758580E+02  0.51100000000E-03 0. -1.
        -11    1    3    3    0    0 -0.20804911705E+02 -0.18004945423E+02  0.17575775668E+01  0.27570119512E+02  0.51100000000E-03 0.  1.
         12    1    3    3    0    0  0.26439355828E+02 -0.48732914646E+00  0.16596854532E+02  0.31220707978E+02  0.00000000000E+00 0. -1.
</event>
<event>
 7    1  0.3597718E-013  0.7246160E+02  0.7816164E-02  0.1226708E+00
        -11   -1    0    0    0    0  0.00000000000E+00  0.00000000000E+00  0.45593999997E+02  0.45594000000E+02  0.51100000000E-03 0.  1.
         11   -1    0    0    0    0 -0.00000000000E+00 -0.00000000000E+00 -0.45593999997E+02  0.45594000000E+02  0.51100000000E-03 0. -1.
    9900012    2    1    2    0    0 -0.51026709377E+01 -0.16976542993E+02 -0.60363867410E+01  0.72461595444E+02  0.70000032762E+02 0.  0.
         12    1    1    2    0    0  0.51026709377E+01  0.16976542993E+02  0.60363867410E+01  0.18726404556E+02  0.00000000000E+00 0. -1.
         11    1    3    3    0    0 -0.82127968475E+00 -0.10309455916E+01 -0.22950501025E+02  0.22988319789E+02  0.51100000000E-03 0. -1.
        -11    1    3    3    0    0 -0.14341578622E+02  0.10487704642E+02  0.98769127136E+01  0.20327966722E+02  0.51100000000E-03 0.  1.
        -12    1    3    3    0    0  0.10060187369E+02 -0.26433302044E+02  0.70372015705E+01  0.29145308933E+02  0.00000000000E+00 0.  1.
</event>
<event>
 7    1  0.3597718E-013  0.7246212E+02  0.7816164E-02  0.1226707E+00
        -11   -1    0    0    0    0  0.00000000000E+00  0.00000000000E+00  0.45593999997E+02  0.45594000000E+02  0.51100000000E-03 0.  1.
         11   -1    0    0    0    0 -0.00000000000E+00 -0.00000000000E+00 -0.45593999997E+02  0.45594000000E+02  0.51100000000E-03 0. -1.
    9900012    2    1    2    0    0 -0.78591921037E+01 -0.16554448648E+02 -0.38525136043E+01  0.72462121339E+02  0.70000717834E+02 0.  0.
         12    1    1    2    0    0  0.78591921037E+01  0.16554448648E+02  0.38525136043E+01  0.18725878661E+02  0.00000000000E+00 0. -1.
         11    1    3    3    0    0  0.16723551460E+02 -0.22825879079E+01  0.99302641880E+01  0.19583092915E+02  0.51100000000E-03 0. -1.
        -11    1    3    3    0    0  0.98981478517E+01  0.33449657315E+01  0.27075948034E+01  0.10793201403E+02  0.51100000000E-03 0.  1.
        -12    1    3    3    0    0 -0.34480891416E+02 -0.17616826471E+02 -0.16490372596E+02  0.42085827022E+02  0.00000000000E+00 0.  1.
</event>
<event>
 7    1  0.3597718E-013  0.7246156E+02  0.7816164E-02  0.1226708E+00
        -11   -1    0    0    0    0  0.00000000000E+00  0.00000000000E+00  0.45593999997E+02  0.45594000000E+02  0.51100000000E-03 0.  1.
         11   -1    0    0    0    0 -0.00000000000E+00 -0.00000000000E+00 -0.45593999997E+02  0.45594000000E+02  0.51100000000E-03 0. -1.
    9900012    2    1    2    0    0  0.41900398501E+01  0.98802001113E+01  0.15346165161E+02  0.72461559512E+02  0.69999985954E+02 0.  0.
         12    1    1    2    0    0 -0.41900398501E+01 -0.98802001113E+01 -0.15346165161E+02  0.18726440488E+02  0.00000000000E+00 0. -1.
         11    1    3    3    0    0  0.38123503892E+00  0.41696238334E+01  0.15166846876E+02  0.15734177687E+02  0.51100000000E-03 0. -1.
        -11    1    3    3    0    0  0.51611450919E+01 -0.23531117176E+02  0.96634723059E+01  0.25956378628E+02  0.51100000000E-03 0.  1.
         12    1    3    3    0    0 -0.13523402807E+01  0.29241693454E+02 -0.94841540203E+01  0.30771003197E+02  0.00000000000E+00 0. -1.
</event>
<event>
 7    1  0.3597718E-013  0.7246157E+02  0.7816164E-02  0.1226708E+00
        -11   -1    0    0    0    0  0.00000000000E+00  0.00000000000E+00  0.45593999997E+02  0.45594000000E+02  0.51100000000E-03 0. -1.
         11   -1    0    0    0    0 -0.00000000000E+00 -0.00000000000E+00 -0.45593999997E+02  0.45594000000E+02  0.51100000000E-03 0.  1.
    9900012    2    1    2    0    0  0.68864754343E+01 -0.82179742727E+01 -0.15353196368E+02  0.72461567244E+02  0.69999996026E+02 0.  0.
         12    1    1    2    0    0 -0.68864754343E+01  0.82179742727E+01  0.15353196368E+02  0.18726432756E+02  0.00000000000E+00 0. -1.
         11    1    3    3    0    0  0.81062310892E+01  0.13781787312E+02  0.10994544564E+02  0.19404346277E+02  0.51100000000E-03 0. -1.
        -11    1    3    3    0    0 -0.41780282762E+01  0.10817407981E+02 -0.13027089822E+01  0.11669159638E+02  0.51100000000E-03 0.  1.
         12    1    3    3    0    0  0.29582726213E+01 -0.32817169566E+02 -0.25045031950E+02  0.41388061329E+02  0.00000000000E+00 0. -1.
</event>
<event>
 7    1  0.3597718E-013  0.7246163E+02  0.7816164E-02  0.1226708E+00
        -11   -1    0    0    0    0  0.00000000000E+00  0.00000000000E+00  0.45593999997E+02  0.45594000000E+02  0.51100000000E-03 0.  1.
         11   -1    0    0    0    0 -0.00000000000E+00 -0.00000000000E+00 -0.45593999997E+02  0.45594000000E+02  0.51100000000E-03 0. -1.
    9900012    2    1    2    0    0  0.16806650575E+02  0.39885367273E+01  0.72322233268E+01  0.72461628675E+02  0.70000076051E+02 0.  0.
         12    1    1    2    0    0 -0.16806650575E+02 -0.39885367273E+01 -0.72322233268E+01  0.18726371325E+02  0.00000000000E+00 0. -1.
         11    1    3    3    0    0  0.98143131119E+00  0.29940596627E+02 -0.46734956553E+01  0.30319038502E+02  0.51100000000E-03 0. -1.
        -11    1    3    3    0    0 -0.79031892453E-01  0.51572355764E+01 -0.21115494844E+00  0.51621615147E+01  0.51100000000E-03 0.  1.
        -12    1    3    3    0    0  0.15904251156E+02 -0.31109295476E+02  0.12116873931E+02  0.36980428658E+02  0.00000000000E+00 0.  1.
</event>
<event>
 7    1  0.3597718E-013  0.7246158E+02  0.7816164E-02  0.1226708E+00
        -11   -1    0    0    0    0  0.00000000000E+00  0.00000000000E+00  0.45593999997E+02  0.45594000000E+02  0.51100000000E-03 0. -1.
         11   -1    0    0    0    0 -0.00000000000E+00 -0.00000000000E+00 -0.45593999997E+02  0.45594000000E+02  0.51100000000E-03 0.  1.
    9900012    2    1    2    0    0  0.38958124266E+01  0.16146199230E+01 -0.18245397169E+02  0.72461578296E+02  0.70000010424E+02 0.  0.
         12    1    1    2    0    0 -0.38958124266E+01 -0.16146199230E+01  0.18245397169E+02  0.18726421704E+02  0.00000000000E+00 0. -1.
         11    1    3    3    0    0  0.13830712257E+02 -0.20155158696E+02 -0.39389622795E+01  0.24759532462E+02  0.51100000000E-03 0. -1.
        -11    1    3    3    0    0  0.93416635484E+01 -0.64247778914E+01 -0.40810720967E+01  0.12049879606E+02  0.51100000000E-03 0.  1.
        -12    1    3    3    0    0 -0.19276563379E+02  0.28194556511E+02 -0.10225362793E+02  0.35652166229E+02  0.00000000000E+00 0.  1.
</event>
<event>
 7    1  0.3597718E-013  0.7246153E+02  0.7816164E-02  0.1226708E+00
        -11   -1    0    0    0    0  0.00000000000E+00  0.00000000000E+00  0.45593999997E+02  0.45594000000E+02  0.51100000000E-03 0.  1.
         11   -1    0    0    0    0 -0.00000000000E+00 -0.00000000000E+00 -0.45593999997E+02  0.45594000000E+02  0.51100000000E-03 0. -1.
    9900012    2    1    2    0    0  0.66990410482E+00  0.51801573929E+01  0.17983266730E+02  0.72461529847E+02  0.69999947309E+02 0.  0.
         12    1    1    2    0    0 -0.66990410482E+00 -0.51801573929E+01 -0.17983266730E+02  0.18726470153E+02  0.00000000000E+00 0. -1.
         11    1    3    3    0    0  0.92592931896E+01 -0.54314078727E+01  0.41630787700E+01  0.11513727761E+02  0.51100000000E-03 0. -1.
        -11    1    3    3    0    0 -0.11205787372E+01 -0.23876055257E+02  0.78557954231E+01  0.25160191441E+02  0.51100000000E-03 0.  1.
        -12    1    3    3    0    0 -0.74688103476E+01  0.34487620523E+02  0.59643925369E+01  0.35787610645E+02  0.00000000000E+00 0.  1.
</event>
<event>
 7    1  0.3597718E-013  0.7246164E+02  0.7816164E-02  0.1226708E+00
        -11   -1    0    0    0    0  0.00000000000E+00  0.00000000000E+00  0.45593999997E+02  0.45594000000E+02  0.51100000000E-03 0.  1.
         11   -1    0    0    0    0 -0.00000000000E+00 -0.00000000000E+00 -0.45593999997E+02  0.45594000000E+02  0.51100000000E-03 0. -1.
    9900012    2    1    2    0    0 -0.85411010437E+01  0.15949817554E+02 -0.48300565048E+01  0.72461640693E+02  0.70000091708E+02 0.  0.
         12    1    1    2    0    0  0.85411010437E+01 -0.15949817554E+02  0.48300565048E+01  0.18726359307E+02  0.00000000000E+00 0. -1.
         11    1    3    3    0    0  0.68161911576E+01  0.95761984464E-01 -0.54503688799E+01  0.87278951325E+01  0.51100000000E-03 0. -1.
        -11    1    3    3    0    0 -0.32512055035E+02  0.27839336467E+02  0.22663159211E+00  0.42803197774E+02  0.51100000000E-03 0.  1.
         12    1    3    3    0    0  0.17154762834E+02 -0.11985280898E+02  0.39368078300E+00  0.20930547787E+02  0.00000000000E+00 0. -1.
</event>
<event>
 7    1  0.3597718E-013  0.7246156E+02  0.7816164E-02  0.1226708E+00
        -11   -1    0    0    0    0  0.00000000000E+00  0.00000000000E+00  0.45593999997E+02  0.45594000000E+02  0.51100000000E-03 0.  1.
         11   -1    0    0    0    0 -0.00000000000E+00 -0.00000000000E+00 -0.45593999997E+02  0.45594000000E+02  0.51100000000E-03 0. -1.
    9900012    2    1    2    0    0  0.75737074171E+01 -0.64574260400E+01  0.15862536988E+02  0.72461562143E+02  0.69999989382E+02 0.  0.
         12    1    1    2    0    0 -0.75737074171E+01  0.64574260400E+01 -0.15862536988E+02  0.18726437857E+02  0.00000000000E+00 0. -1.
         11    1    3    3    0    0  0.26059948111E+02 -0.56316892352E+01  0.11779310047E+02  0.29147709423E+02  0.51100000000E-03 0. -1.
        -11    1    3    3    0    0  0.11462590591E+02 -0.53935939119E+01 -0.47839251936E+00  0.12677172319E+02  0.51100000000E-03 0.  1.
        -12    1    3    3    0    0 -0.29948831285E+02  0.45678571070E+01  0.45616194606E+01  0.30636680401E+02  0.00000000000E+00 0.  1.
</event>
<event>
 7    1  0.3597718E-013  0.7246156E+02  0.7816164E-02  0.1226708E+00
        -11   -1    0    0    0    0  0.00000000000E+00  0.00000000000E+00  0.45593999997E+02  0.45594000000E+02  0.51100000000E-03 0.  1.
         11   -1    0    0    0    0 -0.00000000000E+00 -0.00000000000E+00 -0.45593999997E+02  0.45594000000E+02  0.51100000000E-03 0. -1.
    9900012    2    1    2    0    0 -0.13046674953E+02 -0.12855690307E+02 -0.38980898076E+01  0.72461558674E+02  0.69999984862E+02 0.  0.
         12    1    1    2    0    0  0.13046674953E+02  0.12855690307E+02  0.38980898076E+01  0.18726441326E+02  0.00000000000E+00 0. -1.
         11    1    3    3    0    0 -0.16477578171E+02 -0.12374613556E+02 -0.23939496875E+02  0.31587040918E+02  0.51100000000E-03 0. -1.
        -11    1    3    3    0    0 -0.78522293635E+01  0.76799018923E+00 -0.76234790845E+01  0.10971086934E+02  0.51100000000E-03 0.  1.
        -12    1    3    3    0    0  0.11283132581E+02 -0.12490669396E+01  0.27664886152E+02  0.29903430821E+02  0.00000000000E+00 0.  1.
</event>
<event>
 7    1  0.3597718E-013  0.7246156E+02  0.7816164E-02  0.1226708E+00
        -11   -1    0    0    0    0  0.00000000000E+00  0.00000000000E+00  0.45593999997E+02  0.45594000000E+02  0.51100000000E-03 0.  1.
         11   -1    0    0    0    0 -0.00000000000E+00 -0.00000000000E+00 -0.45593999997E+02  0.45594000000E+02  0.51100000000E-03 0. -1.
    9900012    2    1    2    0    0 -0.16989778453E+02 -0.20785846501E+01 -0.75964858457E+01  0.72461556578E+02  0.69999982132E+02 0.  0.
         12    1    1    2    0    0  0.16989778453E+02  0.20785846501E+01  0.75964858457E+01  0.18726443422E+02  0.00000000000E+00 0. -1.
         11    1    3    3    0    0 -0.14712032196E+01  0.31178254945E+01  0.34765638207E+01  0.48960975265E+01  0.51100000000E-03 0. -1.
        -11    1    3    3    0    0 -0.23929872852E+02  0.31039394218E+00  0.22299837135E+02  0.32711128010E+02  0.51100000000E-03 0.  1.
         12    1    3    3    0    0  0.84112976190E+01 -0.55068040868E+01 -0.33372886802E+02  0.34854331042E+02  0.00000000000E+00 0. -1.
</event>
<event>
 7    1  0.3597718E-013  0.7246159E+02  0.7816164E-02  0.1226708E+00
        -11   -1    0    0    0    0  0.00000000000E+00  0.00000000000E+00  0.45593999997E+02  0.45594000000E+02  0.51100000000E-03 0. -1.
         11   -1    0    0    0    0 -0.00000000000E+00 -0.00000000000E+00 -0.45593999997E+02  0.45594000000E+02  0.51100000000E-03 0.  1.
    9900012    2    1    2    0    0 -0.17137661475E+02 -0.82571999114E+00 -0.75031378181E+01  0.72461592671E+02  0.70000029150E+02 0.  0.
         12    1    1    2    0    0  0.17137661475E+02  0.82571999114E+00  0.75031378181E+01  0.18726407329E+02  0.00000000000E+00 0. -1.
         11    1    3    3    0    0  0.12067149304E+02  0.20308465931E+02  0.12993793162E+02  0.26960870568E+02  0.51100000000E-03 0. -1.
        -11    1    3    3    0    0 -0.71046342041E+01 -0.59191437809E+01 -0.15733694847E+02  0.18249965591E+02  0.51100000000E-03 0.  1.
        -12    1    3    3    0    0 -0.22100176574E+02 -0.15215042141E+02 -0.47632361331E+01  0.27250756511E+02  0.00000000000E+00 0.  1.
</event>
<event>
 7    1  0.3597718E-013  0.7246158E+02  0.7816164E-02  0.1226708E+00
        -11   -1    0    0    0    0  0.00000000000E+00  0.00000000000E+00  0.45593999997E+02  0.45594000000E+02  0.51100000000E-03 0. -1.
         11   -1    0    0    0    0 -0.00000000000E+00 -0.00000000000E+00 -0.45593999997E+02  0.45594000000E+02  0.51100000000E-03 0.  1.
    9900012    2    1    2    0    0 -0.80098387425E+01  0.16791579774E+02 -0.21363411326E+01  0.72461584929E+02  0.70000019064E+02 0.  0.
         12    1    1    2    0    0  0.80098387425E+01 -0.16791579774E+02  0.21363411326E+01  0.18726415071E+02  0.00000000000E+00 0. -1.
         11    1    3    3    0    0 -0.13730047288E+02  0.25212503061E+01 -0.56894187393E+01  0.15074494602E+02  0.51100000000E-03 0. -1.
        -11    1    3    3    0    0 -0.49378170358E+01  0.29804050647E+02 -0.12443922464E+02  0.32672843136E+02  0.51100000000E-03 0.  1.
         12    1    3    3    0    0  0.10658025581E+02 -0.15533721179E+02  0.15997000071E+02  0.24714247191E+02  0.00000000000E+00 0. -1.
</event>
<event>
 7    1  0.3597718E-013  0.7246131E+02  0.7816164E-02  0.1226709E+00
        -11   -1    0    0    0    0  0.00000000000E+00  0.00000000000E+00  0.45593999997E+02  0.45594000000E+02  0.51100000000E-03 0.  1.
         11   -1    0    0    0    0 -0.00000000000E+00 -0.00000000000E+00 -0.45593999997E+02  0.45594000000E+02  0.51100000000E-03 0. -1.
    9900012    2    1    2    0    0 -0.10102934111E+02  0.14118953933E+02  0.70195903790E+01  0.72461313510E+02  0.69999665490E+02 0.  0.
         12    1    1    2    0    0  0.10102934111E+02 -0.14118953933E+02 -0.70195903790E+01  0.18726686490E+02  0.00000000000E+00 0. -1.
         11    1    3    3    0    0 -0.62557540854E+01 -0.10906926344E+02 -0.10850379946E+02  0.16608017542E+02  0.51100000000E-03 0. -1.
        -11    1    3    3    0    0 -0.12439268125E+02  0.33327728660E+01 -0.12236037261E+02  0.17764103540E+02  0.51100000000E-03 0.  1.
        -12    1    3    3    0    0  0.85920881003E+01  0.21693107411E+02  0.30106007586E+02  0.38089192428E+02  0.00000000000E+00 0.  1.
</event>
<event>
 7    1  0.3597718E-013  0.7246157E+02  0.7816164E-02  0.1226708E+00
        -11   -1    0    0    0    0  0.00000000000E+00  0.00000000000E+00  0.45593999997E+02  0.45594000000E+02  0.51100000000E-03 0. -1.
         11   -1    0    0    0    0 -0.00000000000E+00 -0.00000000000E+00 -0.45593999997E+02  0.45594000000E+02  0.51100000000E-03 0.  1.
    9900012    2    1    2    0    0  0.49133024956E+01 -0.17411160851E+02 -0.48363450930E+01  0.72461566878E+02  0.69999995550E+02 0.  0.
         12    1    1    2    0    0 -0.49133024956E+01  0.17411160851E+02  0.48363450930E+01  0.18726433122E+02  0.00000000000E+00 0. -1.
         11    1    3    3    0    0 -0.99269236516E+00  0.12377585145E+02  0.29609579504E+01  0.12765473920E+02  0.51100000000E-03 0. -1.
        -11    1    3    3    0    0 -0.88280922303E+01  0.11425995576E+02  0.26909460860E+01  0.14687742455E+02  0.51100000000E-03 0.  1.
         12    1    3    3    0    0  0.14734087091E+02 -0.41214741572E+02 -0.10488249129E+02  0.45008350504E+02  0.00000000000E+00 0. -1.
</event>
<event>
 7    1  0.3597718E-013  0.7246162E+02  0.7816164E-02  0.1226708E+00
        -11   -1    0    0    0    0  0.00000000000E+00  0.00000000000E+00  0.45593999997E+02  0.45594000000E+02  0.51100000000E-03 0. -1.
         11   -1    0    0    0    0 -0.00000000000E+00 -0.00000000000E+00 -0.45593999997E+02  0.45594000000E+02  0.51100000000E-03 0.  1.
    9900012    2    1    2    0    0 -0.12736149355E+02  0.92244959703E+01 -0.10167420950E+02  0.72461620877E+02  0.70000065893E+02 0.  0.
         12    1    1    2    0    0  0.12736149355E+02 -0.92244959703E+01  0.10167420950E+02  0.18726379123E+02  0.00000000000E+00 0. -1.
         11    1    3    3    0    0  0.91115347759E+01 -0.21754745173E+01  0.12930082193E+01  0.94564594782E+01  0.51100000000E-03 0. -1.
        -11    1    3    3    0    0 -0.58093385185E+00  0.10712407371E+02  0.21353126396E+02  0.23896634972E+02  0.51100000000E-03 0.  1.
        -12    1    3    3    0    0 -0.21266750279E+02  0.68756311651E+00 -0.32813555565E+02  0.39108526427E+02  0.00000000000E+00 0.  1.
</event>
<event>
 7    1  0.3597718E-013  0.7246155E+02  0.7816164E-02  0.1226708E+00
        -11   -1    0    0    0    0  0.00000000000E+00  0.00000000000E+00  0.45593999997E+02  0.45594000000E+02  0.51100000000E-03 0.  1.
         11   -1    0    0    0    0 -0.00000000000E+00 -0.00000000000E+00 -0.45593999997E+02  0.45594000000E+02  0.51100000000E-03 0. -1.
    9900012    2    1    2    0    0 -0.85898071986E+01  0.12030940834E+01  0.16596620089E+02  0.72461547547E+02  0.69999970368E+02 0.  0.
         12    1    1    2    0    0  0.85898071986E+01 -0.12030940834E+01 -0.16596620089E+02  0.18726452453E+02  0.00000000000E+00 0. -1.
         11    1    3    3    0    0  0.16408055261E+02 -0.25385115999E+01 -0.19433465543E+02  0.25560279768E+02  0.51100000000E-03 0. -1.
        -11    1    3    3    0    0 -0.67538934008E+01 -0.61470061761E+01  0.89757809932E+01  0.12804897723E+02  0.51100000000E-03 0.  1.
        -12    1    3    3    0    0 -0.18243969058E+02  0.98886118594E+01  0.27054304639E+02  0.34096370056E+02  0.00000000000E+00 0.  1.
</event>
<event>
 7    1  0.3597718E-013  0.7246156E+02  0.7816164E-02  0.1226708E+00
        -11   -1    0    0    0    0  0.00000000000E+00  0.00000000000E+00  0.45593999997E+02  0.45594000000E+02  0.51100000000E-03 0.  1.
         11   -1    0    0    0    0 -0.00000000000E+00 -0.00000000000E+00 -0.45593999997E+02  0.45594000000E+02  0.51100000000E-03 0. -1.
    9900012    2    1    2    0    0 -0.18589217819E+02 -0.21385071249E+01 -0.73974868357E+00  0.72461562539E+02  0.69999989898E+02 0.  0.
         12    1    1    2    0    0  0.18589217819E+02  0.21385071249E+01  0.73974868357E+00  0.18726437461E+02  0.00000000000E+00 0. -1.
         11    1    3    3    0    0  0.15700382582E+02  0.19428998806E+02  0.20097449333E+01  0.25060468527E+02  0.51100000000E-03 0. -1.
        -11    1    3    3    0    0  0.21296185189E+01  0.25198029575E+01  0.13075831204E+01  0.35488668415E+01  0.51100000000E-03 0.  1.
        -12    1    3    3    0    0 -0.36419218920E+02 -0.24087308888E+02 -0.40570767373E+01  0.43852227171E+02  0.00000000000E+00 0.  1.
</event>
<event>
 7    1  0.3597718E-013  0.7246157E+02  0.7816164E-02  0.1226708E+00
        -11   -1    0    0    0    0  0.00000000000E+00  0.00000000000E+00  0.45593999997E+02  0.45594000000E+02  0.51100000000E-03 0. -1.
         11   -1    0    0    0    0 -0.00000000000E+00 -0.00000000000E+00 -0.45593999997E+02  0.45594000000E+02  0.51100000000E-03 0.  1.
    9900012    2    1    2    0    0 -0.15134847394E+01 -0.39190824219E+01 -0.18249094941E+02  0.72461566563E+02  0.69999995140E+02 0.  0.
         12    1    1    2    0    0  0.15134847394E+01  0.39190824219E+01  0.18249094941E+02  0.18726433437E+02  0.00000000000E+00 0. -1.
         11    1    3    3    0    0 -0.24535332729E+01 -0.30026249014E+02 -0.10461868253E+02  0.31891160891E+02  0.51100000000E-03 0. -1.
        -11    1    3    3    0    0 -0.13879701167E+02  0.14229908068E+02 -0.83728034253E+01  0.21569428031E+02  0.51100000000E-03 0.  1.
        -12    1    3    3    0    0  0.14819749701E+02  0.11877258524E+02  0.58557673674E+00  0.19000977642E+02  0.00000000000E+00 0.  1.
</event>
<event>
 7    1  0.3597718E-013  0.7246184E+02  0.7816164E-02  0.1226707E+00
        -11   -1    0    0    0    0  0.00000000000E+00  0.00000000000E+00  0.45593999997E+02  0.45594000000E+02  0.51100000000E-03 0.  1.
         11   -1    0    0    0    0 -0.00000000000E+00 -0.00000000000E+00 -0.45593999997E+02  0.45594000000E+02  0.51100000000E-03 0. -1.
    9900012    2    1    2    0    0 -0.17411286794E+02  0.68920540816E+01 -0.12588202370E+00  0.72461837457E+02  0.70000348028E+02 0.  0.
         12    1    1    2    0    0  0.17411286794E+02 -0.68920540816E+01  0.12588202370E+00  0.18726162543E+02  0.00000000000E+00 0. -1.
         11    1    3    3    0    0 -0.31089528689E+01  0.48786238672E+00  0.27259338285E+01  0.41634496692E+01  0.51100000000E-03 0. -1.
        -11    1    3    3    0    0 -0.30751600836E+01 -0.26466091529E+02  0.13543343514E+02  0.29888672841E+02  0.51100000000E-03 0.  1.
         12    1    3    3    0    0 -0.11227173842E+02  0.32870283224E+02 -0.16395159366E+02  0.38409714947E+02  0.00000000000E+00 0. -1.
</event>
<event>
 7    1  0.3597718E-013  0.7246160E+02  0.7816164E-02  0.1226708E+00
        -11   -1    0    0    0    0  0.00000000000E+00  0.00000000000E+00  0.45593999997E+02  0.45594000000E+02  0.51100000000E-03 0.  1.
         11   -1    0    0    0    0 -0.00000000000E+00 -0.00000000000E+00 -0.45593999997E+02  0.45594000000E+02  0.51100000000E-03 0. -1.
    9900012    2    1    2    0    0 -0.11291882748E+02 -0.11691759035E+02  0.92991562848E+01  0.72461597437E+02  0.70000035359E+02 0.  0.
         12    1    1    2    0    0  0.11291882748E+02  0.11691759035E+02 -0.92991562848E+01  0.18726402563E+02  0.00000000000E+00 0. -1.
         11    1    3    3    0    0 -0.63536570991E+01  0.20236576834E+00 -0.11749431745E+01  0.64645496488E+01  0.51100000000E-03 0. -1.
        -11    1    3    3    0    0  0.13323276413E+02  0.22444157070E+02  0.18919001626E+01  0.26169240865E+02  0.51100000000E-03 0.  1.
         12    1    3    3    0    0 -0.18261502062E+02 -0.34338281873E+02  0.85821992967E+01  0.39827806924E+02  0.00000000000E+00 0. -1.
</event>
<event>
 7    1  0.3597718E-013  0.7246160E+02  0.7816164E-02  0.1226708E+00
        -11   -1    0    0    0    0  0.00000000000E+00  0.00000000000E+00  0.45593999997E+02  0.45594000000E+02  0.51100000000E-03 0. -1.
         11   -1    0    0    0    0 -0.00000000000E+00 -0.00000000000E+00 -0.45593999997E+02  0.45594000000E+02  0.51100000000E-03 0.  1.
    9900012    2    1    2    0    0  0.13248764128E+02  0.12864854840E+02 -0.31054760903E+01  0.72461595574E+02  0.70000032932E+02 0.  0.
         12    1    1    2    0    0 -0.13248764128E+02 -0.12864854840E+02  0.31054760903E+01  0.18726404426E+02  0.00000000000E+00 0. -1.
         11    1    3    3    0    0 -0.39272176090E+01  0.40998306166E+01  0.48963547759E+01  0.74970620636E+01  0.51100000000E-03 0. -1.
        -11    1    3    3    0    0  0.52675804093E+00  0.33425135679E+02 -0.10670064976E+02  0.35090845758E+02  0.51100000000E-03 0.  1.
         12    1    3    3    0    0  0.16649223696E+02 -0.24660111455E+02  0.26682341097E+01  0.29873687752E+02  0.00000000000E+00 0. -1.
</event>
<event>
 7    1  0.3597718E-013  0.7246155E+02  0.7816164E-02  0.1226708E+00
        -11   -1    0    0    0    0  0.00000000000E+00  0.00000000000E+00  0.45593999997E+02  0.45594000000E+02  0.51100000000E-03 0. -1.
         11   -1    0    0    0    0 -0.00000000000E+00 -0.00000000000E+00 -0.45593999997E+02  0.45594000000E+02  0.51100000000E-03 0.  1.
    9900012    2    1    2    0    0  0.66170831928E+01  0.73867315858E+01 -0.15884913802E+02  0.72461545985E+02  0.69999968332E+02 0.  0.
         12    1    1    2    0    0 -0.66170831928E+01 -0.73867315858E+01  0.15884913802E+02  0.18726454015E+02  0.00000000000E+00 0. -1.
         11    1    3    3    0    0 -0.46416470002E+01  0.26376501178E+01  0.11588354247E+02  0.12758998371E+02  0.51100000000E-03 0. -1.
        -11    1    3    3    0    0  0.20489565190E+02 -0.43952921661E+00  0.85119746959E+01  0.22191646651E+02  0.51100000000E-03 0.  1.
         12    1    3    3    0    0 -0.92308349969E+01  0.51886106846E+01 -0.35985242745E+02  0.37510900962E+02  0.00000000000E+00 0. -1.
</event>
<event>
 7    1  0.3597718E-013  0.7246161E+02  0.7816164E-02  0.1226708E+00
        -11   -1    0    0    0    0  0.00000000000E+00  0.00000000000E+00  0.45593999997E+02  0.45594000000E+02  0.51100000000E-03 0.  1.
         11   -1    0    0    0    0 -0.00000000000E+00 -0.00000000000E+00 -0.45593999997E+02  0.45594000000E+02  0.51100000000E-03 0. -1.
    9900012    2    1    2    0    0  0.72894959776E+01 -0.15809764640E+02 -0.68987132340E+01  0.72461610763E+02  0.70000052718E+02 0.  0.
         12    1    1    2    0    0 -0.72894959776E+01  0.15809764640E+02  0.68987132340E+01  0.18726389237E+02  0.00000000000E+00 0. -1.
         11    1    3    3    0    0  0.11615603647E+02  0.49589969760E+01  0.23262618244E+02  0.26470045465E+02  0.51100000000E-03 0. -1.
        -11    1    3    3    0    0  0.32145772011E+01 -0.13695330000E+01  0.44173353697E+01  0.56322268465E+01  0.51100000000E-03 0.  1.
        -12    1    3    3    0    0 -0.75406848710E+01 -0.19399228616E+02 -0.34578666848E+02  0.40359338451E+02  0.00000000000E+00 0.  1.
</event>
<event>
 7    1  0.3597718E-013  0.7246158E+02  0.7816164E-02  0.1226708E+00
        -11   -1    0    0    0    0  0.00000000000E+00  0.00000000000E+00  0.45593999997E+02  0.45594000000E+02  0.51100000000E-03 0.  1.
         11   -1    0    0    0    0 -0.00000000000E+00 -0.00000000000E+00 -0.45593999997E+02  0.45594000000E+02  0.51100000000E-03 0. -1.
    9900012    2    1    2    0    0 -0.93415279628E+01 -0.28090226666E+01  0.15985120288E+02  0.72461579530E+02  0.70000012031E+02 0.  0.
         12    1    1    2    0    0  0.93415279628E+01  0.28090226666E+01 -0.15985120288E+02  0.18726420470E+02  0.00000000000E+00 0. -1.
         11    1    3    3    0    0 -0.37757338827E+01  0.35659902475E+01  0.36573988783E+01  0.63520878154E+01  0.51100000000E-03 0. -1.
        -11    1    3    3    0    0  0.10390880542E+02 -0.52608198016E+00  0.35714931780E+02  0.37199509580E+02  0.51100000000E-03 0.  1.
        -12    1    3    3    0    0 -0.15956674622E+02 -0.58489309339E+01 -0.23387210371E+02  0.28909982134E+02  0.00000000000E+00 0.  1.
</event>
<event>
 7    1  0.3597718E-013  0.7246155E+02  0.7816164E-02  0.1226708E+00
        -11   -1    0    0    0    0  0.00000000000E+00  0.00000000000E+00  0.45593999997E+02  0.45594000000E+02  0.51100000000E-03 0. -1.
         11   -1    0    0    0    0 -0.00000000000E+00 -0.00000000000E+00 -0.45593999997E+02  0.45594000000E+02  0.51100000000E-03 0.  1.
    9900012    2    1    2    0    0 -0.16913411901E+00 -0.20888109261E+01 -0.18608817743E+02  0.72461552520E+02  0.69999976846E+02 0.  0.
         12    1    1    2    0    0  0.16913411901E+00  0.20888109261E+01  0.18608817743E+02  0.18726447480E+02  0.00000000000E+00 0. -1.
         11    1    3    3    0    0  0.24647094257E+02  0.10466734712E+02  0.16048473634E+01  0.26825497687E+02  0.51100000000E-03 0. -1.
        -11    1    3    3    0    0  0.45531379939E+01  0.49346775568E+01 -0.38271145785E+01  0.77284483850E+01  0.51100000000E-03 0.  1.
        -12    1    3    3    0    0 -0.29369366370E+02 -0.17490223195E+02 -0.16386550528E+02  0.37907606448E+02  0.00000000000E+00 0.  1.
</event>
<event>
 7    1  0.3597718E-013  0.7246158E+02  0.7816164E-02  0.1226708E+00
        -11   -1    0    0    0    0  0.00000000000E+00  0.00000000000E+00  0.45593999997E+02  0.45594000000E+02  0.51100000000E-03 0.  1.
         11   -1    0    0    0    0 -0.00000000000E+00 -0.00000000000E+00 -0.45593999997E+02  0.45594000000E+02  0.51100000000E-03 0. -1.
    9900012    2    1    2    0    0  0.16337975348E+02  0.83578292149E+01  0.37277430984E+01  0.72461579727E+02  0.70000012287E+02 0.  0.
         12    1    1    2    0    0 -0.16337975348E+02 -0.83578292149E+01 -0.37277430984E+01  0.18726420273E+02  0.00000000000E+00 0. -1.
         11    1    3    3    0    0 -0.62959581881E+00 -0.50573445893E+01  0.39426677666E+01  0.64434272378E+01  0.51100000000E-03 0. -1.
        -11    1    3    3    0    0 -0.18431714553E+02 -0.11889523442E+02  0.40193805937E+01  0.22298975081E+02  0.51100000000E-03 0.  1.
         12    1    3    3    0    0  0.35399285720E+02  0.25304697246E+02 -0.42343052619E+01  0.43719177408E+02  0.00000000000E+00 0. -1.
</event>
<event>
 7    1  0.3597718E-013  0.7246160E+02  0.7816164E-02  0.1226708E+00
        -11   -1    0    0    0    0  0.00000000000E+00  0.00000000000E+00  0.45593999997E+02  0.45594000000E+02  0.51100000000E-03 0. -1.
         11   -1    0    0    0    0 -0.00000000000E+00 -0.00000000000E+00 -0.45593999997E+02  0.45594000000E+02  0.51100000000E-03 0.  1.
    9900012    2    1    2    0    0  0.37404657977E+00  0.84199002546E+01 -0.16722541900E+02  0.72461600486E+02  0.70000039331E+02 0.  0.
         12    1    1    2    0    0 -0.37404657977E+00 -0.84199002546E+01  0.16722541900E+02  0.18726399514E+02  0.00000000000E+00 0. -1.
         11    1    3    3    0    0 -0.11125250089E+02  0.27817975121E+01  0.17233074744E+02  0.20699962617E+02  0.51100000000E-03 0. -1.
        -11    1    3    3    0    0  0.12352507133E+02  0.93643239983E+01  0.19768981906E+01  0.15626359881E+02  0.51100000000E-03 0.  1.
        -12    1    3    3    0    0 -0.85321046354E+00 -0.37262212558E+01 -0.35932514835E+02  0.36135277988E+02  0.00000000000E+00 0.  1.
</event>
<event>
 7    1  0.3597718E-013  0.7246154E+02  0.7816164E-02  0.1226708E+00
        -11   -1    0    0    0    0  0.00000000000E+00  0.00000000000E+00  0.45593999997E+02  0.45594000000E+02  0.51100000000E-03 0. -1.
         11   -1    0    0    0    0 -0.00000000000E+00 -0.00000000000E+00 -0.45593999997E+02  0.45594000000E+02  0.51100000000E-03 0.  1.
    9900012    2    1    2    0    0  0.15367404181E+02  0.94876228691E+01  0.49505861370E+01  0.72461537385E+02  0.69999957129E+02 0.  0.
         12    1    1    2    0    0 -0.15367404181E+02 -0.94876228691E+01 -0.49505861370E+01  0.18726462615E+02  0.00000000000E+00 0. -1.
         11    1    3    3    0    0 -0.20966729043E+02  0.25439177829E+01  0.87828859009E+00  0.21138747256E+02  0.51100000000E-03 0. -1.
        -11    1    3    3    0    0 -0.43204833246E+01 -0.65468209557E+01  0.32219346212E+01  0.84798763993E+01  0.51100000000E-03 0.  1.
         12    1    3    3    0    0  0.40654616549E+02  0.13490526042E+02  0.85036292573E+00  0.42842913729E+02  0.00000000000E+00 0. -1.
</event>
<event>
 7    1  0.3597718E-013  0.7246152E+02  0.7816164E-02  0.1226708E+00
        -11   -1    0    0    0    0  0.00000000000E+00  0.00000000000E+00  0.45593999997E+02  0.45594000000E+02  0.51100000000E-03 0. -1.
         11   -1    0    0    0    0 -0.00000000000E+00 -0.00000000000E+00 -0.45593999997E+02  0.45594000000E+02  0.51100000000E-03 0.  1.
    9900012    2    1    2    0    0 -0.14249981783E+02  0.11010847651E+02 -0.51361841216E+01  0.72461517839E+02  0.69999931667E+02 0.  0.
         12    1    1    2    0    0  0.14249981783E+02 -0.11010847651E+02  0.51361841216E+01  0.18726482161E+02  0.00000000000E+00 0. -1.
         11    1    3    3    0    0 -0.19091373338E+02  0.19408837451E+02 -0.17889409265E+01  0.27283398194E+02  0.51100000000E-03 0. -1.
        -11    1    3    3    0    0 -0.12618767170E+02 -0.10082964052E+02 -0.16624025119E+02  0.23178819219E+02  0.51100000000E-03 0.  1.
        -12    1    3    3    0    0  0.17460158725E+02  0.16849742517E+01  0.13276781924E+02  0.21999300425E+02  0.00000000000E+00 0.  1.
</event>
<event>
 7    1  0.3597718E-013  0.7246158E+02  0.7816164E-02  0.1226708E+00
        -11   -1    0    0    0    0  0.00000000000E+00  0.00000000000E+00  0.45593999997E+02  0.45594000000E+02  0.51100000000E-03 0.  1.
         11   -1    0    0    0    0 -0.00000000000E+00 -0.00000000000E+00 -0.45593999997E+02  0.45594000000E+02  0.51100000000E-03 0. -1.
    9900012    2    1    2    0    0  0.13150767620E+02  0.12439832468E+02  0.47944442212E+01  0.72461579728E+02  0.70000012289E+02 0.  0.
         12    1    1    2    0    0 -0.13150767620E+02 -0.12439832468E+02 -0.47944442212E+01  0.18726420272E+02  0.00000000000E+00 0. -1.
         11    1    3    3    0    0  0.64440388366E+01 -0.18704069745E+02 -0.66750602272E+01  0.20878800034E+02  0.51100000000E-03 0. -1.
        -11    1    3    3    0    0 -0.61054156067E-01  0.11985432565E+02 -0.14369380943E+02  0.18711852669E+02  0.51100000000E-03 0.  1.
        -12    1    3    3    0    0  0.67677829396E+01  0.19158469648E+02  0.25838885391E+02  0.32870927024E+02  0.00000000000E+00 0.  1.
</event>
<event>
 7    1  0.3597718E-013  0.7246139E+02  0.7816164E-02  0.1226708E+00
        -11   -1    0    0    0    0  0.00000000000E+00  0.00000000000E+00  0.45593999997E+02  0.45594000000E+02  0.51100000000E-03 0.  1.
         11   -1    0    0    0    0 -0.00000000000E+00 -0.00000000000E+00 -0.45593999997E+02  0.45594000000E+02  0.51100000000E-03 0. -1.
    9900012    2    1    2    0    0  0.21017481952E+01  0.12322298639E+02  0.13943793843E+02  0.72461393902E+02  0.69999770216E+02 0.  0.
         12    1    1    2    0    0 -0.21017481952E+01 -0.12322298639E+02 -0.13943793843E+02  0.18726606098E+02  0.00000000000E+00 0. -1.
         11    1    3    3    0    0 -0.17095428991E+02  0.71520336558E+01 -0.91819238146E+01  0.20681223441E+02  0.51100000000E-03 0. -1.
        -11    1    3    3    0    0  0.47486001766E+01 -0.91956031884E+01 -0.90151979463E+01  0.13725236461E+02  0.51100000000E-03 0.  1.
        -12    1    3    3    0    0  0.14448577010E+02  0.14365868172E+02  0.32140915603E+02  0.38054934000E+02  0.00000000000E+00 0.  1.
</event>
<event>
 7    1  0.3597718E-013  0.7246155E+02  0.7816164E-02  0.1226708E+00
        -11   -1    0    0    0    0  0.00000000000E+00  0.00000000000E+00  0.45593999997E+02  0.45594000000E+02  0.51100000000E-03 0.  1.
         11   -1    0    0    0    0 -0.00000000000E+00 -0.00000000000E+00 -0.45593999997E+02  0.45594000000E+02  0.51100000000E-03 0. -1.
    9900012    2    1    2    0    0  0.45243730045E+01 -0.42544526444E+01  0.17666623097E+02  0.72461551056E+02  0.69999974939E+02 0.  0.
         12    1    1    2    0    0 -0.45243730045E+01  0.42544526444E+01 -0.17666623097E+02  0.18726448944E+02  0.00000000000E+00 0. -1.
         11    1    3    3    0    0  0.57681289544E+01 -0.69757629072E+01  0.10649313008E+02  0.13976424707E+02  0.51100000000E-03 0. -1.
        -11    1    3    3    0    0  0.19366356692E+02 -0.12731267894E+02  0.19100028709E+02  0.30032516556E+02  0.51100000000E-03 0.  1.
         12    1    3    3    0    0 -0.20610112642E+02  0.15452578156E+02 -0.12082718621E+02  0.28452609794E+02  0.00000000000E+00 0. -1.
</event>
<event>
 7    1  0.3766993E-013  0.7246157E+02  0.7816164E-02  0.1226708E+00
        -11   -1    0    0    0    0  0.00000000000E+00  0.00000000000E+00  0.45593999997E+02  0.45594000000E+02  0.51100000000E-03 0. -1.
         11   -1    0    0    0    0 -0.00000000000E+00 -0.00000000000E+00 -0.45593999997E+02  0.45594000000E+02  0.51100000000E-03 0.  1.
    9900012    2    1    2    0    0 -0.16950968256E+02  0.64855366986E+00 -0.79324201208E+01  0.72461568529E+02  0.69999997700E+02 0.  0.
         12    1    1    2    0    0  0.16950968256E+02 -0.64855366986E+00  0.79324201208E+01  0.18726431471E+02  0.00000000000E+00 0. -1.
         11    1    3    3    0    0 -0.19410712987E+02 -0.40592359962E+00 -0.28335700231E+01  0.19620644025E+02  0.51100000000E-03 0. -1.
        -11    1    3    3    0    0  0.13387543239E+02  0.57172957564E+00 -0.26000374193E+02  0.29250173455E+02  0.51100000000E-03 0.  1.
         12    1    3    3    0    0 -0.10927798508E+02  0.48274769384E+00  0.20901524096E+02  0.23590751049E+02  0.00000000000E+00 0. -1.
</event>
<event>
 7    1  0.3597718E-013  0.7246157E+02  0.7816164E-02  0.1226708E+00
        -11   -1    0    0    0    0  0.00000000000E+00  0.00000000000E+00  0.45593999997E+02  0.45594000000E+02  0.51100000000E-03 0. -1.
         11   -1    0    0    0    0 -0.00000000000E+00 -0.00000000000E+00 -0.45593999997E+02  0.45594000000E+02  0.51100000000E-03 0.  1.
    9900012    2    1    2    0    0  0.12790181779E+02 -0.42684271463E+01 -0.12995034598E+02  0.72461570964E+02  0.70000000872E+02 0.  0.
         12    1    1    2    0    0 -0.12790181779E+02  0.42684271463E+01  0.12995034598E+02  0.18726429036E+02  0.00000000000E+00 0. -1.
         11    1    3    3    0    0  0.96588799232E+01  0.71933090478E+01 -0.55903167278E+01  0.13277398006E+02  0.51100000000E-03 0. -1.
        -11    1    3    3    0    0  0.24244607150E+02 -0.21235701814E+02 -0.13793051943E+02  0.35057157465E+02  0.51100000000E-03 0.  1.
        -12    1    3    3    0    0 -0.21113305294E+02  0.97739656199E+01  0.63883340729E+01  0.24127015493E+02  0.00000000000E+00 0.  1.
</event>
<event>
 7    1  0.3597718E-013  0.7246084E+02  0.7816164E-02  0.1226710E+00
        -11   -1    0    0    0    0  0.00000000000E+00  0.00000000000E+00  0.45593999997E+02  0.45594000000E+02  0.51100000000E-03 0.  1.
         11   -1    0    0    0    0 -0.00000000000E+00 -0.00000000000E+00 -0.45593999997E+02  0.45594000000E+02  0.51100000000E-03 0. -1.
    9900012    2    1    2    0    0  0.15463456006E+02  0.43400622654E+01  0.96307762843E+01  0.72460841541E+02  0.69999050657E+02 0.  0.
         12    1    1    2    0    0 -0.15463456006E+02 -0.43400622654E+01 -0.96307762843E+01  0.18727158459E+02  0.00000000000E+00 0. -1.
         11    1    3    3    0    0  0.29939307216E+01  0.15981574437E+01 -0.41900262171E+01  0.53920356399E+01  0.51100000000E-03 0. -1.
        -11    1    3    3    0    0  0.28701861201E+01  0.17783185775E+02 -0.21166655203E+02  0.27794009380E+02  0.51100000000E-03 0.  1.
        -12    1    3    3    0    0  0.95993391644E+01 -0.15041280953E+02  0.34987457704E+02  0.39274796521E+02  0.00000000000E+00 0.  1.
</event>
<event>
 7    1  0.3597718E-013  0.7246164E+02  0.7816164E-02  0.1226708E+00
        -11   -1    0    0    0    0  0.00000000000E+00  0.00000000000E+00  0.45593999997E+02  0.45594000000E+02  0.51100000000E-03 0.  1.
         11   -1    0    0    0    0 -0.00000000000E+00 -0.00000000000E+00 -0.45593999997E+02  0.45594000000E+02  0.51100000000E-03 0. -1.
    9900012    2    1    2    0    0  0.13699115097E+02 -0.12337344682E+02 -0.32864627431E+01  0.72461637149E+02  0.70000087091E+02 0.  0.
         12    1    1    2    0    0 -0.13699115097E+02  0.12337344682E+02  0.32864627431E+01  0.18726362851E+02  0.00000000000E+00 0. -1.
         11    1    3    3    0    0 -0.52517343695E+00 -0.20500797364E+02 -0.85221647584E+01  0.22207786746E+02  0.51100000000E-03 0. -1.
        -11    1    3    3    0    0 -0.67106699030E+01 -0.52683252813E+01 -0.15617259690E+02  0.17795705726E+02  0.51100000000E-03 0.  1.
        -12    1    3    3    0    0  0.20934958437E+02  0.13431777963E+02  0.20852961705E+02  0.32458144677E+02  0.00000000000E+00 0.  1.
</event>
<event>
 7    1  0.3597718E-013  0.7246157E+02  0.7816164E-02  0.1226708E+00
        -11   -1    0    0    0    0  0.00000000000E+00  0.00000000000E+00  0.45593999997E+02  0.45594000000E+02  0.51100000000E-03 0.  1.
         11   -1    0    0    0    0 -0.00000000000E+00 -0.00000000000E+00 -0.45593999997E+02  0.45594000000E+02  0.51100000000E-03 0. -1.
    9900012    2    1    2    0    0  0.19667517059E+01 -0.15937858081E+02  0.96330469809E+01  0.72461574110E+02  0.70000004971E+02 0.  0.
         12    1    1    2    0    0 -0.19667517059E+01  0.15937858081E+02 -0.96330469809E+01  0.18726425890E+02  0.00000000000E+00 0. -1.
         11    1    3    3    0    0 -0.19495653646E+02 -0.34988877816E+01 -0.40517617435E+01  0.20217306950E+02  0.51100000000E-03 0. -1.
        -11    1    3    3    0    0  0.78833382737E+01 -0.41359490866E+01 -0.16143307562E+02  0.18435278042E+02  0.51100000000E-03 0.  1.
        -12    1    3    3    0    0  0.13579067078E+02 -0.83030212126E+01  0.29828116287E+02  0.33808989118E+02  0.00000000000E+00 0.  1.
</event>
<event>
 7    1  0.3597718E-013  0.7246169E+02  0.7816164E-02  0.1226708E+00
        -11   -1    0    0    0    0  0.00000000000E+00  0.00000000000E+00  0.45593999997E+02  0.45594000000E+02  0.51100000000E-03 0. -1.
         11   -1    0    0    0    0 -0.00000000000E+00 -0.00000000000E+00 -0.45593999997E+02  0.45594000000E+02  0.51100000000E-03 0.  1.
    9900012    2    1    2    0    0  0.47695614835E+01 -0.15115184737E+02  0.99728272496E+01  0.72461686702E+02  0.70000151642E+02 0.  0.
         12    1    1    2    0    0 -0.47695614835E+01  0.15115184737E+02 -0.99728272496E+01  0.18726313298E+02  0.00000000000E+00 0. -1.
         11    1    3    3    0    0 -0.11148326477E+01 -0.22510446488E+02  0.17851517166E+02  0.28751342896E+02  0.51100000000E-03 0. -1.
        -11    1    3    3    0    0  0.25073261917E+01 -0.14847749593E+02  0.71349977850E+01  0.16662849284E+02  0.51100000000E-03 0.  1.
        -12    1    3    3    0    0  0.33770679394E+01  0.22243011344E+02 -0.15013687701E+02  0.27047494522E+02  0.00000000000E+00 0.  1.
</event>
<event>
 7    1  0.3597718E-013  0.7246156E+02  0.7816164E-02  0.1226708E+00
        -11   -1    0    0    0    0  0.00000000000E+00  0.00000000000E+00  0.45593999997E+02  0.45594000000E+02  0.51100000000E-03 0. -1.
         11   -1    0    0    0    0 -0.00000000000E+00 -0.00000000000E+00 -0.45593999997E+02  0.45594000000E+02  0.51100000000E-03 0.  1.
    9900012    2    1    2    0    0  0.61911096394E+01  0.15797079075E+02 -0.79247768598E+01  0.72461557889E+02  0.69999983839E+02 0.  0.
         12    1    1    2    0    0 -0.61911096394E+01 -0.15797079075E+02  0.79247768598E+01  0.18726442111E+02  0.00000000000E+00 0. -1.
         11    1    3    3    0    0 -0.20986935249E+01  0.26501705427E+02 -0.72397911490E+01  0.27552848876E+02  0.51100000000E-03 0. -1.
        -11    1    3    3    0    0  0.47462090570E-01  0.13946231312E+02 -0.10147697432E+02  0.17247474711E+02  0.51100000000E-03 0.  1.
         12    1    3    3    0    0  0.82423410738E+01 -0.24650857664E+02  0.94627117215E+01  0.27661234301E+02  0.00000000000E+00 0. -1.
</event>
<event>
 7    1  0.3597718E-013  0.7246157E+02  0.7816164E-02  0.1226708E+00
        -11   -1    0    0    0    0  0.00000000000E+00  0.00000000000E+00  0.45593999997E+02  0.45594000000E+02  0.51100000000E-03 0. -1.
         11   -1    0    0    0    0 -0.00000000000E+00 -0.00000000000E+00 -0.45593999997E+02  0.45594000000E+02  0.51100000000E-03 0.  1.
    9900012    2    1    2    0    0 -0.15283899234E+02  0.49450270973E+01 -0.96243607027E+01  0.72461569809E+02  0.69999999367E+02 0.  0.
         12    1    1    2    0    0  0.15283899234E+02 -0.49450270973E+01  0.96243607027E+01  0.18726430191E+02  0.00000000000E+00 0. -1.
         11    1    3    3    0    0 -0.17686476946E+02  0.34562399075E+01  0.92959281029E-03  0.18021017235E+02  0.51100000000E-03 0. -1.
        -11    1    3    3    0    0  0.16729500228E+02  0.22556678992E+02 -0.42731228012E+01  0.28406680970E+02  0.51100000000E-03 0.  1.
         12    1    3    3    0    0 -0.14326922515E+02 -0.21067891802E+02 -0.53521674943E+01  0.26033871603E+02  0.00000000000E+00 0. -1.
</event>
<event>
 7    1  0.3597718E-013  0.7246154E+02  0.7816164E-02  0.1226708E+00
        -11   -1    0    0    0    0  0.00000000000E+00  0.00000000000E+00  0.45593999997E+02  0.45594000000E+02  0.51100000000E-03 0.  1.
         11   -1    0    0    0    0 -0.00000000000E+00 -0.00000000000E+00 -0.45593999997E+02  0.45594000000E+02  0.51100000000E-03 0. -1.
    9900012    2    1    2    0    0  0.82577120471E+01 -0.70420758350E+01 -0.15261044713E+02  0.72461544755E+02  0.69999966730E+02 0.  0.
         12    1    1    2    0    0 -0.82577120471E+01  0.70420758350E+01  0.15261044713E+02  0.18726455245E+02  0.00000000000E+00 0. -1.
         11    1    3    3    0    0 -0.17733454167E+01 -0.16742827714E+02 -0.94007356869E+01  0.19283175712E+02  0.51100000000E-03 0. -1.
        -11    1    3    3    0    0 -0.18110964710E+02 -0.87064513245E+00  0.83082345934E+01  0.19944719301E+02  0.51100000000E-03 0.  1.
         12    1    3    3    0    0  0.28142022174E+02  0.10571397012E+02 -0.14168543620E+02  0.33233649741E+02  0.00000000000E+00 0. -1.
</event>
<event>
 7    1  0.3597718E-013  0.7246151E+02  0.7816164E-02  0.1226708E+00
        -11   -1    0    0    0    0  0.00000000000E+00  0.00000000000E+00  0.45593999997E+02  0.45594000000E+02  0.51100000000E-03 0. -1.
         11   -1    0    0    0    0 -0.00000000000E+00 -0.00000000000E+00 -0.45593999997E+02  0.45594000000E+02  0.51100000000E-03 0.  1.
    9900012    2    1    2    0    0 -0.11474668665E+02  0.12688820662E+02  0.76162570220E+01  0.72461506420E+02  0.69999916792E+02 0.  0.
         12    1    1    2    0    0  0.11474668665E+02 -0.12688820662E+02 -0.76162570220E+01  0.18726493580E+02  0.00000000000E+00 0. -1.
         11    1    3    3    0    0  0.11299441178E+01  0.22564927037E+02 -0.22412472115E+01  0.22704094239E+02  0.51100000000E-03 0. -1.
        -11    1    3    3    0    0 -0.63347894674E+01  0.14909471518E+02  0.16725777280E+02  0.23284619912E+02  0.51100000000E-03 0.  1.
         12    1    3    3    0    0 -0.62698233155E+01 -0.24785577893E+02 -0.68682730464E+01  0.26472792270E+02  0.00000000000E+00 0. -1.
</event>
<event>
 7    1  0.3597718E-013  0.7246206E+02  0.7816164E-02  0.1226707E+00
        -11   -1    0    0    0    0  0.00000000000E+00  0.00000000000E+00  0.45593999997E+02  0.45594000000E+02  0.51100000000E-03 0. -1.
         11   -1    0    0    0    0 -0.00000000000E+00 -0.00000000000E+00 -0.45593999997E+02  0.45594000000E+02  0.51100000000E-03 0.  1.
    9900012    2    1    2    0    0 -0.13231476523E+02 -0.13094002954E+02  0.20337228751E+01  0.72462057752E+02  0.70000635001E+02 0.  0.
         12    1    1    2    0    0  0.13231476523E+02  0.13094002954E+02 -0.20337228751E+01  0.18725942248E+02  0.00000000000E+00 0. -1.
         11    1    3    3    0    0 -0.70338898081E+01  0.50278604509E-01 -0.59058921074E+01  0.91846445558E+01  0.51100000000E-03 0. -1.
        -11    1    3    3    0    0 -0.15515035199E+02  0.77189180510E+01 -0.20469466126E+02  0.26819713959E+02  0.51100000000E-03 0.  1.
         12    1    3    3    0    0  0.93174484840E+01 -0.20863199610E+02  0.28409081108E+02  0.36457699237E+02  0.00000000000E+00 0. -1.
</event>
<event>
 7    1  0.3597718E-013  0.7246159E+02  0.7816164E-02  0.1226708E+00
        -11   -1    0    0    0    0  0.00000000000E+00  0.00000000000E+00  0.45593999997E+02  0.45594000000E+02  0.51100000000E-03 0.  1.
         11   -1    0    0    0    0 -0.00000000000E+00 -0.00000000000E+00 -0.45593999997E+02  0.45594000000E+02  0.51100000000E-03 0. -1.
    9900012    2    1    2    0    0  0.56919554937E+01 -0.11333500944E+02  0.13777944410E+02  0.72461592092E+02  0.70000028395E+02 0.  0.
         12    1    1    2    0    0 -0.56919554937E+01  0.11333500944E+02 -0.13777944410E+02  0.18726407908E+02  0.00000000000E+00 0. -1.
         11    1    3    3    0    0  0.11399328007E+02 -0.13234767027E+02  0.18187723798E+02  0.25216998919E+02  0.51100000000E-03 0. -1.
        -11    1    3    3    0    0 -0.82501626441E+01  0.17535326795E+02  0.13285304248E+02  0.23495790659E+02  0.51100000000E-03 0.  1.
         12    1    3    3    0    0  0.25427901306E+01 -0.15634060711E+02 -0.17695083636E+02  0.23748802514E+02  0.00000000000E+00 0. -1.
</event>
<event>
 7    1  0.3597718E-013  0.7246154E+02  0.7816164E-02  0.1226708E+00
        -11   -1    0    0    0    0  0.00000000000E+00  0.00000000000E+00  0.45593999997E+02  0.45594000000E+02  0.51100000000E-03 0. -1.
         11   -1    0    0    0    0 -0.00000000000E+00 -0.00000000000E+00 -0.45593999997E+02  0.45594000000E+02  0.51100000000E-03 0.  1.
    9900012    2    1    2    0    0 -0.13886442100E+02  0.11483578822E+02  0.50965313674E+01  0.72461535071E+02  0.69999954115E+02 0.  0.
         12    1    1    2    0    0  0.13886442100E+02 -0.11483578822E+02 -0.50965313674E+01  0.18726464929E+02  0.00000000000E+00 0. -1.
         11    1    3    3    0    0 -0.20208100718E+01  0.14299111437E+02 -0.58201016854E+01  0.15569901898E+02  0.51100000000E-03 0. -1.
        -11    1    3    3    0    0 -0.97172531263E+01 -0.28192766148E+02  0.19232560572E+01  0.29882369142E+02  0.51100000000E-03 0.  1.
         12    1    3    3    0    0 -0.21483789016E+01  0.25377233534E+02  0.89933769956E+01  0.27009264031E+02  0.00000000000E+00 0. -1.
</event>
<event>
 7    1  0.3597718E-013  0.7246148E+02  0.7816164E-02  0.1226708E+00
        -11   -1    0    0    0    0  0.00000000000E+00  0.00000000000E+00  0.45593999997E+02  0.45594000000E+02  0.51100000000E-03 0.  1.
         11   -1    0    0    0    0 -0.00000000000E+00 -0.00000000000E+00 -0.45593999997E+02  0.45594000000E+02  0.51100000000E-03 0. -1.
    9900012    2    1    2    0    0 -0.17960854149E+02  0.52411401733E+01 -0.78794238614E+00  0.72461476423E+02  0.69999877715E+02 0.  0.
         12    1    1    2    0    0  0.17960854149E+02 -0.52411401733E+01  0.78794238614E+00  0.18726523577E+02  0.00000000000E+00 0. -1.
         11    1    3    3    0    0  0.35864628290E+01  0.51846767874E+01  0.13683199231E+01  0.64510377992E+01  0.51100000000E-03 0. -1.
        -11    1    3    3    0    0 -0.17109900833E+01  0.24758208077E+02  0.15969266254E+02  0.29511249028E+02  0.51100000000E-03 0.  1.
         12    1    3    3    0    0 -0.19836326894E+02 -0.24701744691E+02 -0.18125528564E+02  0.36499189596E+02  0.00000000000E+00 0. -1.
</event>
<event>
 7    1  0.3597718E-013  0.7246131E+02  0.7816164E-02  0.1226709E+00
        -11   -1    0    0    0    0  0.00000000000E+00  0.00000000000E+00  0.45593999997E+02  0.45594000000E+02  0.51100000000E-03 0.  1.
         11   -1    0    0    0    0 -0.00000000000E+00 -0.00000000000E+00 -0.45593999997E+02  0.45594000000E+02  0.51100000000E-03 0. -1.
    9900012    2    1    2    0    0  0.81535508928E+01 -0.16836264324E+02 -0.86524682364E+00  0.72461312076E+02  0.69999663622E+02 0.  0.
         12    1    1    2    0    0 -0.81535508928E+01  0.16836264324E+02  0.86524682364E+00  0.18726687924E+02  0.00000000000E+00 0. -1.
         11    1    3    3    0    0  0.11424746505E+02 -0.62712786430E+01 -0.30119956760E+01  0.13376318131E+02  0.51100000000E-03 0. -1.
        -11    1    3    3    0    0  0.22617384123E+02 -0.37791966963E+01 -0.14906789260E+02  0.27350333792E+02  0.51100000000E-03 0.  1.
         12    1    3    3    0    0 -0.25888579735E+02 -0.67857889846E+01  0.17053538113E+02  0.31734660153E+02  0.00000000000E+00 0. -1.
</event>
<event>
 7    1  0.3597718E-013  0.7246154E+02  0.7816164E-02  0.1226708E+00
        -11   -1    0    0    0    0  0.00000000000E+00  0.00000000000E+00  0.45593999997E+02  0.45594000000E+02  0.51100000000E-03 0. -1.
         11   -1    0    0    0    0 -0.00000000000E+00 -0.00000000000E+00 -0.45593999997E+02  0.45594000000E+02  0.51100000000E-03 0.  1.
    9900012    2    1    2    0    0 -0.82587535883E+01 -0.14158883812E+02 -0.90553412209E+01  0.72461542613E+02  0.69999963941E+02 0.  0.
         12    1    1    2    0    0  0.82587535883E+01  0.14158883812E+02  0.90553412209E+01  0.18726457387E+02  0.00000000000E+00 0. -1.
         11    1    3    3    0    0  0.47753371707E+01  0.10435236232E+02 -0.54503214284E+01  0.12704487563E+02  0.51100000000E-03 0. -1.
        -11    1    3    3    0    0 -0.67009474138E+01 -0.17102210778E+02 -0.27986583974E+02  0.33475919592E+02  0.51100000000E-03 0.  1.
         12    1    3    3    0    0 -0.63331433452E+01 -0.74919092654E+01  0.24381564181E+02  0.26281135458E+02  0.00000000000E+00 0. -1.
</event>
<event>
 7    1  0.3597718E-013  0.7246162E+02  0.7816164E-02  0.1226708E+00
        -11   -1    0    0    0    0  0.00000000000E+00  0.00000000000E+00  0.45593999997E+02  0.45594000000E+02  0.51100000000E-03 0. -1.
         11   -1    0    0    0    0 -0.00000000000E+00 -0.00000000000E+00 -0.45593999997E+02  0.45594000000E+02  0.51100000000E-03 0.  1.
    9900012    2    1    2    0    0 -0.30258383395E+01  0.18354065705E+02  0.21563799687E+01  0.72461617538E+02  0.70000061543E+02 0.  0.
         12    1    1    2    0    0  0.30258383395E+01 -0.18354065705E+02 -0.21563799687E+01  0.18726382462E+02  0.00000000000E+00 0. -1.
         11    1    3    3    0    0  0.99050058921E+01 -0.29469241512E+01  0.15771984363E+02  0.18856006859E+02  0.51100000000E-03 0. -1.
        -11    1    3    3    0    0  0.15748787608E+02  0.11916133984E+02  0.15941148182E+01  0.19813120970E+02  0.51100000000E-03 0.  1.
        -12    1    3    3    0    0 -0.28679631840E+02  0.93848558726E+01 -0.15209719212E+02  0.33792489709E+02  0.00000000000E+00 0.  1.
</event>
<event>
 7    1  0.3597718E-013  0.7246136E+02  0.7816164E-02  0.1226709E+00
        -11   -1    0    0    0    0  0.00000000000E+00  0.00000000000E+00  0.45593999997E+02  0.45594000000E+02  0.51100000000E-03 0.  1.
         11   -1    0    0    0    0 -0.00000000000E+00 -0.00000000000E+00 -0.45593999997E+02  0.45594000000E+02  0.51100000000E-03 0. -1.
    9900012    2    1    2    0    0  0.11466562600E+02 -0.34974020754E+01  0.14386561049E+02  0.72461360740E+02  0.69999727017E+02 0.  0.
         12    1    1    2    0    0 -0.11466562600E+02  0.34974020754E+01 -0.14386561049E+02  0.18726639260E+02  0.00000000000E+00 0. -1.
         11    1    3    3    0    0 -0.85801359428E+01  0.74918346964E+01  0.31608812596E+01  0.11821061311E+02  0.51100000000E-03 0. -1.
        -11    1    3    3    0    0  0.34711919767E+01  0.21731689926E+02 -0.85083331782E+00  0.22023610930E+02  0.51100000000E-03 0.  1.
         12    1    3    3    0    0  0.16575506566E+02 -0.32720926698E+02  0.12076513108E+02  0.38616688500E+02  0.00000000000E+00 0. -1.
</event>
<event>
 7    1  0.3597718E-013  0.7246157E+02  0.7816164E-02  0.1226708E+00
        -11   -1    0    0    0    0  0.00000000000E+00  0.00000000000E+00  0.45593999997E+02  0.45594000000E+02  0.51100000000E-03 0.  1.
         11   -1    0    0    0    0 -0.00000000000E+00 -0.00000000000E+00 -0.45593999997E+02  0.45594000000E+02  0.51100000000E-03 0. -1.
    9900012    2    1    2    0    0  0.16618825465E+02  0.17176565950E+01 -0.84583294565E+01  0.72461573720E+02  0.70000004462E+02 0.  0.
         12    1    1    2    0    0 -0.16618825465E+02 -0.17176565950E+01  0.84583294565E+01  0.18726426280E+02  0.00000000000E+00 0. -1.
         11    1    3    3    0    0 -0.11225273095E+02  0.92373550815E+01 -0.12762179456E+02  0.19344474914E+02  0.51100000000E-03 0. -1.
        -11    1    3    3    0    0  0.20151445704E+02  0.15911345363E+02 -0.60357467791E+01  0.26375782731E+02  0.51100000000E-03 0.  1.
        -12    1    3    3    0    0  0.76926528571E+01 -0.23431043850E+02  0.10339596779E+02  0.26741316075E+02  0.00000000000E+00 0.  1.
</event>
<event>
 7    1  0.3597718E-013  0.7246155E+02  0.7816164E-02  0.1226708E+00
        -11   -1    0    0    0    0  0.00000000000E+00  0.00000000000E+00  0.45593999997E+02  0.45594000000E+02  0.51100000000E-03 0.  1.
         11   -1    0    0    0    0 -0.00000000000E+00 -0.00000000000E+00 -0.45593999997E+02  0.45594000000E+02  0.51100000000E-03 0. -1.
    9900012    2    1    2    0    0  0.34348791421E+01  0.43550977944E+00  0.18403577957E+02  0.72461554926E+02  0.69999979979E+02 0.  0.
         12    1    1    2    0    0 -0.34348791421E+01 -0.43550977944E+00 -0.18403577957E+02  0.18726445074E+02  0.00000000000E+00 0. -1.
         11    1    3    3    0    0  0.11166967210E+02  0.14007020725E+02 -0.93779136692E+01  0.20219867737E+02  0.51100000000E-03 0. -1.
        -11    1    3    3    0    0  0.10113541019E+02  0.72116772026E+01 -0.10572092723E+01  0.12466342355E+02  0.51100000000E-03 0.  1.
        -12    1    3    3    0    0 -0.17845629087E+02 -0.20783188148E+02  0.28838700899E+02  0.39775344833E+02  0.00000000000E+00 0.  1.
</event>
<event>
 7    1  0.3597718E-013  0.7246160E+02  0.7816164E-02  0.1226708E+00
        -11   -1    0    0    0    0  0.00000000000E+00  0.00000000000E+00  0.45593999997E+02  0.45594000000E+02  0.51100000000E-03 0.  1.
         11   -1    0    0    0    0 -0.00000000000E+00 -0.00000000000E+00 -0.45593999997E+02  0.45594000000E+02  0.51100000000E-03 0. -1.
    9900012    2    1    2    0    0 -0.34232381134E+01 -0.14539262624E+02  0.11294667822E+02  0.72461595165E+02  0.70000032399E+02 0.  0.
         12    1    1    2    0    0  0.34232381134E+01  0.14539262624E+02 -0.11294667822E+02  0.18726404835E+02  0.00000000000E+00 0. -1.
         11    1    3    3    0    0 -0.55894093634E+01  0.74944353457E+01  0.22646324883E+01  0.96195955606E+01  0.51100000000E-03 0. -1.
        -11    1    3    3    0    0 -0.10924358647E+02  0.87304988453E+01 -0.15871965742E+02  0.21153782610E+02  0.51100000000E-03 0.  1.
         12    1    3    3    0    0  0.13090529897E+02 -0.30764196815E+02  0.24902001075E+02  0.41688216995E+02  0.00000000000E+00 0. -1.
</event>
<event>
 7    1  0.3597718E-013  0.7246158E+02  0.7816164E-02  0.1226708E+00
        -11   -1    0    0    0    0  0.00000000000E+00  0.00000000000E+00  0.45593999997E+02  0.45594000000E+02  0.51100000000E-03 0. -1.
         11   -1    0    0    0    0 -0.00000000000E+00 -0.00000000000E+00 -0.45593999997E+02  0.45594000000E+02  0.51100000000E-03 0.  1.
    9900012    2    1    2    0    0 -0.10176708806E+02 -0.33889643065E+01 -0.15350188293E+02  0.72461581180E+02  0.70000014180E+02 0.  0.
         12    1    1    2    0    0  0.10176708806E+02  0.33889643065E+01  0.15350188293E+02  0.18726418820E+02  0.00000000000E+00 0. -1.
         11    1    3    3    0    0 -0.20556575294E+02  0.21752358711E+02 -0.17796140856E+01  0.29981743176E+02  0.51100000000E-03 0. -1.
        -11    1    3    3    0    0 -0.55586458797E+00 -0.16553514056E+01  0.83577601480E+01  0.85382274899E+01  0.51100000000E-03 0.  1.
        -12    1    3    3    0    0  0.10935731076E+02 -0.23485971611E+02 -0.21928334356E+02  0.33941610514E+02  0.00000000000E+00 0.  1.
</event>
<event>
 7    1  0.3597718E-013  0.7246159E+02  0.7816164E-02  0.1226708E+00
        -11   -1    0    0    0    0  0.00000000000E+00  0.00000000000E+00  0.45593999997E+02  0.45594000000E+02  0.51100000000E-03 0.  1.
         11   -1    0    0    0    0 -0.00000000000E+00 -0.00000000000E+00 -0.45593999997E+02  0.45594000000E+02  0.51100000000E-03 0. -1.
    9900012    2    1    2    0    0  0.57451542270E+01 -0.23150231273E+01  0.17672356939E+02  0.72461592738E+02  0.70000029237E+02 0.  0.
         12    1    1    2    0    0 -0.57451542270E+01  0.23150231273E+01 -0.17672356939E+02  0.18726407262E+02  0.00000000000E+00 0. -1.
         11    1    3    3    0    0  0.25886432600E+02  0.56622755552E+01  0.61920367875E+01  0.27212314805E+02  0.51100000000E-03 0. -1.
        -11    1    3    3    0    0  0.39568543771E+01  0.52138005807E+01  0.16110718630E+02  0.17389527541E+02  0.51100000000E-03 0.  1.
        -12    1    3    3    0    0 -0.24098132750E+02 -0.13191099263E+02 -0.46303984788E+01  0.27859750391E+02  0.00000000000E+00 0.  1.
</event>
<event>
 7    1  0.3597718E-013  0.7246158E+02  0.7816164E-02  0.1226708E+00
        -11   -1    0    0    0    0  0.00000000000E+00  0.00000000000E+00  0.45593999997E+02  0.45594000000E+02  0.51100000000E-03 0.  1.
         11   -1    0    0    0    0 -0.00000000000E+00 -0.00000000000E+00 -0.45593999997E+02  0.45594000000E+02  0.51100000000E-03 0. -1.
    9900012    2    1    2    0    0  0.74310375248E+01 -0.26006452003E+01  0.16991032477E+02  0.72461578591E+02  0.70000010809E+02 0.  0.
         12    1    1    2    0    0 -0.74310375248E+01  0.26006452003E+01 -0.16991032477E+02  0.18726421409E+02  0.00000000000E+00 0. -1.
         11    1    3    3    0    0 -0.47169512551E+01 -0.49563504889E+01 -0.19678553694E+02  0.20834119013E+02  0.51100000000E-03 0. -1.
        -11    1    3    3    0    0  0.10189979909E+02 -0.13575046690E+02  0.79868201783E+01  0.18759181219E+02  0.51100000000E-03 0.  1.
        -12    1    3    3    0    0  0.19580088704E+01  0.15930751979E+02  0.28682765992E+02  0.32868278359E+02  0.00000000000E+00 0.  1.
</event>
<event>
 7    1  0.3597718E-013  0.7246161E+02  0.7816164E-02  0.1226708E+00
        -11   -1    0    0    0    0  0.00000000000E+00  0.00000000000E+00  0.45593999997E+02  0.45594000000E+02  0.51100000000E-03 0. -1.
         11   -1    0    0    0    0 -0.00000000000E+00 -0.00000000000E+00 -0.45593999997E+02  0.45594000000E+02  0.51100000000E-03 0.  1.
    9900012    2    1    2    0    0  0.18202161708E+02 -0.94924187965E+00 -0.42962742238E+01  0.72461608911E+02  0.70000050306E+02 0.  0.
         12    1    1    2    0    0 -0.18202161708E+02  0.94924187965E+00  0.42962742238E+01  0.18726391089E+02  0.00000000000E+00 0. -1.
         11    1    3    3    0    0  0.15466393516E+02  0.31433507739E+01 -0.80651652581E+01  0.17723906831E+02  0.51100000000E-03 0. -1.
        -11    1    3    3    0    0  0.20427126894E+02  0.17300175421E+02  0.38089595609E+00  0.26771415068E+02  0.51100000000E-03 0.  1.
         12    1    3    3    0    0 -0.17691358701E+02 -0.21392768075E+02  0.33879950783E+01  0.27966287012E+02  0.00000000000E+00 0. -1.
</event>
<event>
 7    1  0.3597718E-013  0.7246147E+02  0.7816164E-02  0.1226708E+00
        -11   -1    0    0    0    0  0.00000000000E+00  0.00000000000E+00  0.45593999997E+02  0.45594000000E+02  0.51100000000E-03 0. -1.
         11   -1    0    0    0    0 -0.00000000000E+00 -0.00000000000E+00 -0.45593999997E+02  0.45594000000E+02  0.51100000000E-03 0.  1.
    9900012    2    1    2    0    0  0.24407945159E+01 -0.12438935230E+02 -0.13783989223E+02  0.72461469450E+02  0.69999868632E+02 0.  0.
         12    1    1    2    0    0 -0.24407945159E+01  0.12438935230E+02  0.13783989223E+02  0.18726530550E+02  0.00000000000E+00 0. -1.
         11    1    3    3    0    0 -0.13470617665E+02 -0.16108828554E+02  0.15594200287E+02  0.26155897624E+02  0.51100000000E-03 0. -1.
        -11    1    3    3    0    0 -0.92967722599E+01  0.30797090754E+01 -0.41493936863E+01  0.10636355140E+02  0.51100000000E-03 0.  1.
        -12    1    3    3    0    0  0.25208184441E+02  0.59018424922E+00 -0.25228795824E+02  0.35669216686E+02  0.00000000000E+00 0.  1.
</event>
<event>
 7    1  0.3597718E-013  0.7246100E+02  0.7816164E-02  0.1226710E+00
        -11   -1    0    0    0    0  0.00000000000E+00  0.00000000000E+00  0.45593999997E+02  0.45594000000E+02  0.51100000000E-03 0. -1.
         11   -1    0    0    0    0 -0.00000000000E+00 -0.00000000000E+00 -0.45593999997E+02  0.45594000000E+02  0.51100000000E-03 0.  1.
    9900012    2    1    2    0    0 -0.67233365393E+01 -0.17123300546E+02 -0.35056687237E+01  0.72461003737E+02  0.69999261951E+02 0.  0.
         12    1    1    2    0    0  0.67233365393E+01  0.17123300546E+02  0.35056687237E+01  0.18726996263E+02  0.00000000000E+00 0. -1.
         11    1    3    3    0    0  0.84326840387E+01  0.13061995608E+02  0.19060034889E+01  0.15663931146E+02  0.51100000000E-03 0. -1.
        -11    1    3    3    0    0 -0.21767957368E+02  0.36421911453E+01 -0.22285819507E+01  0.22182788420E+02  0.51100000000E-03 0.  1.
         12    1    3    3    0    0  0.66119367897E+01 -0.33827487300E+02 -0.31830902620E+01  0.34614284172E+02  0.00000000000E+00 0. -1.
</event>
<event>
 7    1  0.4784283E-013  0.7246160E+02  0.7816164E-02  0.1226708E+00
        -11   -1    0    0    0    0  0.00000000000E+00  0.00000000000E+00  0.45593999997E+02  0.45594000000E+02  0.51100000000E-03 0. -1.
         11   -1    0    0    0    0 -0.00000000000E+00 -0.00000000000E+00 -0.45593999997E+02  0.45594000000E+02  0.51100000000E-03 0.  1.
    9900012    2    1    2    0    0  0.97898697878E+01 -0.11152107740E+02 -0.11422222445E+02  0.72461595564E+02  0.70000032918E+02 0.  0.
         12    1    1    2    0    0 -0.97898697878E+01  0.11152107740E+02  0.11422222445E+02  0.18726404436E+02  0.00000000000E+00 0. -1.
         11    1    3    3    0    0  0.14784676663E+02  0.14993086549E+02 -0.14526082144E+01  0.21106619322E+02  0.51100000000E-03 0. -1.
        -11    1    3    3    0    0  0.14757112989E+02 -0.22055386569E+02 -0.15112870738E+02  0.30538685674E+02  0.51100000000E-03 0.  1.
         12    1    3    3    0    0 -0.19751919864E+02 -0.40898077206E+01  0.51432565074E+01  0.20816290568E+02  0.00000000000E+00 0. -1.
</event>
<event>
 7    1  0.3597718E-013  0.7246151E+02  0.7816164E-02  0.1226708E+00
        -11   -1    0    0    0    0  0.00000000000E+00  0.00000000000E+00  0.45593999997E+02  0.45594000000E+02  0.51100000000E-03 0.  1.
         11   -1    0    0    0    0 -0.00000000000E+00 -0.00000000000E+00 -0.45593999997E+02  0.45594000000E+02  0.51100000000E-03 0. -1.
    9900012    2    1    2    0    0 -0.13071503137E+02  0.12780572995E+02  0.40588404186E+01  0.72461510049E+02  0.69999921520E+02 0.  0.
         12    1    1    2    0    0  0.13071503137E+02 -0.12780572995E+02 -0.40588404186E+01  0.18726489951E+02  0.00000000000E+00 0. -1.
         11    1    3    3    0    0  0.13822891540E+00  0.10899713836E+01  0.78984562537E+00  0.13531449380E+01  0.51100000000E-03 0. -1.
        -11    1    3    3    0    0 -0.17987265464E+02  0.12522775241E+02  0.33751057493E+02  0.40242955915E+02  0.51100000000E-03 0.  1.
         12    1    3    3    0    0  0.47775334124E+01 -0.83217362963E+00 -0.30482062700E+02  0.30865409197E+02  0.00000000000E+00 0. -1.
</event>
<event>
 7    1  0.3597718E-013  0.7246135E+02  0.7816164E-02  0.1226709E+00
        -11   -1    0    0    0    0  0.00000000000E+00  0.00000000000E+00  0.45593999997E+02  0.45594000000E+02  0.51100000000E-03 0.  1.
         11   -1    0    0    0    0 -0.00000000000E+00 -0.00000000000E+00 -0.45593999997E+02  0.45594000000E+02  0.51100000000E-03 0. -1.
    9900012    2    1    2    0    0  0.54036714786E+01 -0.16300455800E+02 -0.74687852848E+01  0.72461353787E+02  0.69999717959E+02 0.  0.
         12    1    1    2    0    0 -0.54036714786E+01  0.16300455800E+02  0.74687852848E+01  0.18726646213E+02  0.00000000000E+00 0. -1.
         11    1    3    3    0    0  0.71866159273E+01 -0.11381051468E+02 -0.82604610413E+00  0.13485478613E+02  0.51100000000E-03 0.  1.
        -11    1    3    3    0    0  0.19920663532E+02  0.16809802573E+01  0.16976533509E+02  0.26227108503E+02  0.51100000000E-03 0. -1.
        -12    1    3    3    0    0 -0.21703607981E+02 -0.66003845894E+01 -0.23619272690E+02  0.32748766671E+02  0.00000000000E+00 0.  1.
</event>
<event>
 7    1  0.3597718E-013  0.7246157E+02  0.7816164E-02  0.1226708E+00
        -11   -1    0    0    0    0  0.00000000000E+00  0.00000000000E+00  0.45593999997E+02  0.45594000000E+02  0.51100000000E-03 0. -1.
         11   -1    0    0    0    0 -0.00000000000E+00 -0.00000000000E+00 -0.45593999997E+02  0.45594000000E+02  0.51100000000E-03 0.  1.
    9900012    2    1    2    0    0 -0.18137531698E+02  0.42535267047E+01 -0.19017087924E+01  0.72461573704E+02  0.70000004441E+02 0.  0.
         12    1    1    2    0    0  0.18137531698E+02 -0.42535267047E+01  0.19017087924E+01  0.18726426296E+02  0.00000000000E+00 0. -1.
         11    1    3    3    0    0  0.23204618917E+01  0.10867886867E+02  0.12866502917E+01  0.11187089772E+02  0.51100000000E-03 0. -1.
        -11    1    3    3    0    0  0.13386602674E+02 -0.87673772460E+01  0.15732294948E+02  0.22440435368E+02  0.51100000000E-03 0.  1.
        -12    1    3    3    0    0 -0.33844596263E+02  0.21530170840E+01 -0.18920654032E+02  0.38834048563E+02  0.00000000000E+00 0.  1.
</event>
<event>
 7    1  0.3597718E-013  0.7246164E+02  0.7816164E-02  0.1226708E+00
        -11   -1    0    0    0    0  0.00000000000E+00  0.00000000000E+00  0.45593999997E+02  0.45594000000E+02  0.51100000000E-03 0.  1.
         11   -1    0    0    0    0 -0.00000000000E+00 -0.00000000000E+00 -0.45593999997E+02  0.45594000000E+02  0.51100000000E-03 0. -1.
    9900012    2    1    2    0    0 -0.48326267583E-01 -0.18671991172E+02 -0.14251451450E+01  0.72461638142E+02  0.70000088384E+02 0.  0.
         12    1    1    2    0    0  0.48326267583E-01  0.18671991172E+02  0.14251451450E+01  0.18726361858E+02  0.00000000000E+00 0. -1.
         11    1    3    3    0    0 -0.61044704920E+01 -0.33481278175E+01  0.20431171092E+01  0.72559525669E+01  0.51100000000E-03 0. -1.
        -11    1    3    3    0    0 -0.18867051123E+02 -0.51808334253E+01  0.21095400918E+02  0.28771906319E+02  0.51100000000E-03 0.  1.
         12    1    3    3    0    0  0.24923195348E+02 -0.10143029929E+02 -0.24563663172E+02  0.36433779256E+02  0.00000000000E+00 0. -1.
</event>
<event>
 7    1  0.3597718E-013  0.7246149E+02  0.7816164E-02  0.1226708E+00
        -11   -1    0    0    0    0  0.00000000000E+00  0.00000000000E+00  0.45593999997E+02  0.45594000000E+02  0.51100000000E-03 0.  1.
         11   -1    0    0    0    0 -0.00000000000E+00 -0.00000000000E+00 -0.45593999997E+02  0.45594000000E+02  0.51100000000E-03 0. -1.
    9900012    2    1    2    0    0 -0.62194066391E+01 -0.15182466874E+02  0.90273999827E+01  0.72461487517E+02  0.69999892167E+02 0.  0.
         12    1    1    2    0    0  0.62194066391E+01  0.15182466874E+02 -0.90273999827E+01  0.18726512483E+02  0.00000000000E+00 0. -1.
         11    1    3    3    0    0  0.67023067033E+01  0.79340079299E+01  0.12738650401E+02  0.16436015676E+02  0.51100000000E-03 0. -1.
        -11    1    3    3    0    0  0.43999744202E+01  0.90260795580E+01  0.12535344827E+02  0.16061281309E+02  0.51100000000E-03 0.  1.
         12    1    3    3    0    0 -0.17321687763E+02 -0.32142554362E+02 -0.16246595246E+02  0.39964190533E+02  0.00000000000E+00 0. -1.
</event>
<event>
 7    1  0.3597718E-013  0.7246159E+02  0.7816164E-02  0.1226708E+00
        -11   -1    0    0    0    0  0.00000000000E+00  0.00000000000E+00  0.45593999997E+02  0.45594000000E+02  0.51100000000E-03 0. -1.
         11   -1    0    0    0    0 -0.00000000000E+00 -0.00000000000E+00 -0.45593999997E+02  0.45594000000E+02  0.51100000000E-03 0.  1.
    9900012    2    1    2    0    0 -0.15534711545E+02 -0.10455645403E+02 -0.17551203932E+00  0.72461585820E+02  0.70000020225E+02 0.  0.
         12    1    1    2    0    0  0.15534711545E+02  0.10455645403E+02  0.17551203932E+00  0.18726414180E+02  0.00000000000E+00 0. -1.
         11    1    3    3    0    0  0.15732032168E+02  0.18304078382E+01 -0.18053873820E+02  0.24016444140E+02  0.51100000000E-03 0. -1.
        -11    1    3    3    0    0 -0.61616995070E+01  0.61278807929E+01 -0.47994655068E+01  0.99273527810E+01  0.51100000000E-03 0.  1.
        -12    1    3    3    0    0 -0.25105044206E+02 -0.18413934034E+02  0.22677827287E+02  0.38517788899E+02  0.00000000000E+00 0.  1.
</event>
<event>
 7    1  0.3597718E-013  0.7246155E+02  0.7816164E-02  0.1226708E+00
        -11   -1    0    0    0    0  0.00000000000E+00  0.00000000000E+00  0.45593999997E+02  0.45594000000E+02  0.51100000000E-03 0.  1.
         11   -1    0    0    0    0 -0.00000000000E+00 -0.00000000000E+00 -0.45593999997E+02  0.45594000000E+02  0.51100000000E-03 0. -1.
    9900012    2    1    2    0    0  0.59673482043E+01 -0.16191559740E+02  0.72735256780E+01  0.72461547395E+02  0.69999970169E+02 0.  0.
         12    1    1    2    0    0 -0.59673482043E+01  0.16191559740E+02 -0.72735256780E+01  0.18726452605E+02  0.00000000000E+00 0. -1.
         11    1    3    3    0    0 -0.19478967161E+02  0.32182769372E+01  0.78247346772E+00  0.19758535702E+02  0.51100000000E-03 0. -1.
        -11    1    3    3    0    0 -0.46475659994E+01  0.26316256797E+01  0.13705494519E+02  0.14709381486E+02  0.51100000000E-03 0.  1.
         12    1    3    3    0    0  0.30093881365E+02 -0.22041462356E+02 -0.72144423087E+01  0.37993630206E+02  0.00000000000E+00 0. -1.
</event>
<event>
 7    1  0.3597718E-013  0.7246156E+02  0.7816164E-02  0.1226708E+00
        -11   -1    0    0    0    0  0.00000000000E+00  0.00000000000E+00  0.45593999997E+02  0.45594000000E+02  0.51100000000E-03 0.  1.
         11   -1    0    0    0    0 -0.00000000000E+00 -0.00000000000E+00 -0.45593999997E+02  0.45594000000E+02  0.51100000000E-03 0. -1.
    9900012    2    1    2    0    0  0.13565496341E+02 -0.12177183942E+02  0.42863658596E+01  0.72461563286E+02  0.69999990870E+02 0.  0.
         12    1    1    2    0    0 -0.13565496341E+02  0.12177183942E+02 -0.42863658596E+01  0.18726436714E+02  0.00000000000E+00 0. -1.
         11    1    3    3    0    0 -0.41856064381E+01  0.27845976637E-01 -0.22266257658E+02  0.22656264189E+02  0.51100000000E-03 0. -1.
        -11    1    3    3    0    0 -0.21120412687E+01 -0.45697500804E+01 -0.78662636948E+01  0.93392418801E+01  0.51100000000E-03 0.  1.
        -12    1    3    3    0    0  0.19863144048E+02 -0.76352798381E+01  0.34418887213E+02  0.40466057216E+02  0.00000000000E+00 0.  1.
</event>
<event>
 7    1  0.3597718E-013  0.7246155E+02  0.7816164E-02  0.1226708E+00
        -11   -1    0    0    0    0  0.00000000000E+00  0.00000000000E+00  0.45593999997E+02  0.45594000000E+02  0.51100000000E-03 0. -1.
         11   -1    0    0    0    0 -0.00000000000E+00 -0.00000000000E+00 -0.45593999997E+02  0.45594000000E+02  0.51100000000E-03 0.  1.
    9900012    2    1    2    0    0 -0.14760411706E+02  0.12761034679E+01  0.11453465250E+02  0.72461546517E+02  0.69999969026E+02 0.  0.
         12    1    1    2    0    0  0.14760411706E+02 -0.12761034679E+01 -0.11453465250E+02  0.18726453483E+02  0.00000000000E+00 0. -1.
         11    1    3    3    0    0  0.34886960978E+01  0.19496219369E+02 -0.15379402678E+02  0.25075876797E+02  0.51100000000E-03 0. -1.
        -11    1    3    3    0    0  0.32341247437E+01 -0.90817029244E+01 -0.24388333612E+01  0.99440836325E+01  0.51100000000E-03 0.  1.
         12    1    3    3    0    0 -0.21483232548E+02 -0.91384129767E+01  0.29271701289E+02  0.37441586088E+02  0.00000000000E+00 0. -1.
</event>
<event>
 7    1  0.3597718E-013  0.7246151E+02  0.7816164E-02  0.1226708E+00
        -11   -1    0    0    0    0  0.00000000000E+00  0.00000000000E+00  0.45593999997E+02  0.45594000000E+02  0.51100000000E-03 0.  1.
         11   -1    0    0    0    0 -0.00000000000E+00 -0.00000000000E+00 -0.45593999997E+02  0.45594000000E+02  0.51100000000E-03 0. -1.
    9900012    2    1    2    0    0  0.90976771395E+01 -0.73026505058E+01  0.14648725091E+02  0.72461505920E+02  0.69999916140E+02 0.  0.
         12    1    1    2    0    0 -0.90976771395E+01  0.73026505058E+01 -0.14648725091E+02  0.18726494080E+02  0.00000000000E+00 0. -1.
         11    1    3    3    0    0 -0.22644000029E+01 -0.24889245342E+02 -0.12796423644E+02  0.28077580014E+02  0.51100000000E-03 0. -1.
        -11    1    3    3    0    0 -0.75752033210E+01  0.71776689593E+01  0.13807511769E+01  0.10526590669E+02  0.51100000000E-03 0.  1.
        -12    1    3    3    0    0  0.18937280463E+02  0.10408925877E+02  0.26064397558E+02  0.33857335237E+02  0.00000000000E+00 0.  1.
</event>
<event>
 7    1  0.3597718E-013  0.7246156E+02  0.7816164E-02  0.1226708E+00
        -11   -1    0    0    0    0  0.00000000000E+00  0.00000000000E+00  0.45593999997E+02  0.45594000000E+02  0.51100000000E-03 0.  1.
         11   -1    0    0    0    0 -0.00000000000E+00 -0.00000000000E+00 -0.45593999997E+02  0.45594000000E+02  0.51100000000E-03 0. -1.
    9900012    2    1    2    0    0  0.17163024878E+02 -0.68798781122E+01  0.29626609976E+01  0.72461561311E+02  0.69999988297E+02 0.  0.
         12    1    1    2    0    0 -0.17163024878E+02  0.68798781122E+01 -0.29626609976E+01  0.18726438689E+02  0.00000000000E+00 0. -1.
         11    1    3    3    0    0  0.37392480819E+02 -0.15311084341E+02 -0.12986138184E+02  0.42441332574E+02  0.51100000000E-03 0. -1.
        -11    1    3    3    0    0 -0.11459292983E+02  0.13280394853E+01  0.14669509701E+02  0.18662089906E+02  0.51100000000E-03 0.  1.
        -12    1    3    3    0    0 -0.87701629582E+01  0.71031667438E+01  0.12792894809E+01  0.11358138830E+02  0.00000000000E+00 0.  1.
</event>
<event>
 7    1  0.3597718E-013  0.7246159E+02  0.7816164E-02  0.1226708E+00
        -11   -1    0    0    0    0  0.00000000000E+00  0.00000000000E+00  0.45593999997E+02  0.45594000000E+02  0.51100000000E-03 0.  1.
         11   -1    0    0    0    0 -0.00000000000E+00 -0.00000000000E+00 -0.45593999997E+02  0.45594000000E+02  0.51100000000E-03 0. -1.
    9900012    2    1    2    0    0 -0.26899695974E+01 -0.13677870033E+02 -0.12504334075E+02  0.72461589887E+02  0.70000025523E+02 0.  0.
         12    1    1    2    0    0  0.26899695974E+01  0.13677870033E+02  0.12504334075E+02  0.18726410113E+02  0.00000000000E+00 0. -1.
         11    1    3    3    0    0 -0.16380225541E+02 -0.40323530220E+01 -0.32575521956E+02  0.36684278522E+02  0.51100000000E-03 0. -1.
        -11    1    3    3    0    0 -0.57379238535E+01 -0.57038374317E+01  0.79993998838E+00  0.81300329546E+01  0.51100000000E-03 0.  1.
        -12    1    3    3    0    0  0.19428179798E+02 -0.39416795795E+01  0.19271247893E+02  0.27647278410E+02  0.00000000000E+00 0.  1.
</event>
<event>
 7    1  0.3597718E-013  0.7246145E+02  0.7816164E-02  0.1226708E+00
        -11   -1    0    0    0    0  0.00000000000E+00  0.00000000000E+00  0.45593999997E+02  0.45594000000E+02  0.51100000000E-03 0. -1.
         11   -1    0    0    0    0 -0.00000000000E+00 -0.00000000000E+00 -0.45593999997E+02  0.45594000000E+02  0.51100000000E-03 0.  1.
    9900012    2    1    2    0    0  0.21643438187E+01  0.62182613204E+01 -0.17530904066E+02  0.72461447851E+02  0.69999840494E+02 0.  0.
         12    1    1    2    0    0 -0.21643438187E+01 -0.62182613204E+01  0.17530904066E+02  0.18726552149E+02  0.00000000000E+00 0. -1.
         11    1    3    3    0    0  0.11728858609E+02  0.21626319004E+02 -0.11635003197E+01  0.24629606802E+02  0.51100000000E-03 0. -1.
        -11    1    3    3    0    0  0.57707254786E+01 -0.25590499806E+02 -0.68674646655E+01  0.27117098371E+02  0.51100000000E-03 0.  1.
         12    1    3    3    0    0 -0.15335240269E+02  0.10182442122E+02 -0.94999390812E+01  0.20714742678E+02  0.00000000000E+00 0. -1.
</event>
<event>
 7    1  0.3597718E-013  0.7246174E+02  0.7816164E-02  0.1226708E+00
        -11   -1    0    0    0    0  0.00000000000E+00  0.00000000000E+00  0.45593999997E+02  0.45594000000E+02  0.51100000000E-03 0. -1.
         11   -1    0    0    0    0 -0.00000000000E+00 -0.00000000000E+00 -0.45593999997E+02  0.45594000000E+02  0.51100000000E-03 0.  1.
    9900012    2    1    2    0    0 -0.47167547674E+01 -0.66155776060E+01 -0.16871843015E+02  0.72461742250E+02  0.70000224003E+02 0.  0.
         12    1    1    2    0    0  0.47167547674E+01  0.66155776060E+01  0.16871843015E+02  0.18726257750E+02  0.00000000000E+00 0. -1.
         11    1    3    3    0    0 -0.18612673014E+02 -0.39682050045E+01 -0.39392115766E+01  0.19434393116E+02  0.51100000000E-03 0. -1.
        -11    1    3    3    0    0 -0.16413255593E+02 -0.11253027614E+02 -0.57009775101E+01  0.20700887287E+02  0.51100000000E-03 0.  1.
         12    1    3    3    0    0  0.30309173839E+02  0.86056550124E+01 -0.72316539287E+01  0.32326461847E+02  0.00000000000E+00 0. -1.
</event>
<event>
 7    1  0.3597718E-013  0.7246156E+02  0.7816164E-02  0.1226708E+00
        -11   -1    0    0    0    0  0.00000000000E+00  0.00000000000E+00  0.45593999997E+02  0.45594000000E+02  0.51100000000E-03 0.  1.
         11   -1    0    0    0    0 -0.00000000000E+00 -0.00000000000E+00 -0.45593999997E+02  0.45594000000E+02  0.51100000000E-03 0. -1.
    9900012    2    1    2    0    0 -0.18056953136E+02  0.25174128607E+01  0.42765080950E+01  0.72461562925E+02  0.69999990400E+02 0.  0.
         12    1    1    2    0    0  0.18056953136E+02 -0.25174128607E+01 -0.42765080950E+01  0.18726437075E+02  0.00000000000E+00 0. -1.
         11    1    3    3    0    0  0.91929072334E+01 -0.55248528157E+01  0.10782321964E+02  0.15208287518E+02  0.51100000000E-03 0. -1.
        -11    1    3    3    0    0 -0.31898542441E+02  0.10011807771E+02  0.13918414778E+02  0.36214300696E+02  0.51100000000E-03 0.  1.
        -12    1    3    3    0    0  0.46486820723E+01 -0.19695420943E+01 -0.20424228646E+02  0.21038974711E+02  0.00000000000E+00 0.  1.
</event>
<event>
 7    1  0.3597718E-013  0.7246153E+02  0.7816164E-02  0.1226708E+00
        -11   -1    0    0    0    0  0.00000000000E+00  0.00000000000E+00  0.45593999997E+02  0.45594000000E+02  0.51100000000E-03 0.  1.
         11   -1    0    0    0    0 -0.00000000000E+00 -0.00000000000E+00 -0.45593999997E+02  0.45594000000E+02  0.51100000000E-03 0. -1.
    9900012    2    1    2    0    0  0.77429610973E+01 -0.81337606048E+01  0.14985629588E+02  0.72461532039E+02  0.69999950165E+02 0.  0.
         12    1    1    2    0    0 -0.77429610973E+01  0.81337606048E+01 -0.14985629588E+02  0.18726467961E+02  0.00000000000E+00 0. -1.
         11    1    3    3    0    0  0.45253926241E+01  0.21364111507E+01  0.13223489252E-01  0.50043587130E+01  0.51100000000E-03 0. -1.
        -11    1    3    3    0    0 -0.98344319396E+01  0.21653643374E+02  0.21842434493E+02  0.32290683917E+02  0.51100000000E-03 0.  1.
         12    1    3    3    0    0  0.13052000413E+02 -0.31923815130E+02 -0.68700283943E+01  0.35166489409E+02  0.00000000000E+00 0. -1.
</event>
<event>
 7    1  0.3597718E-013  0.7246157E+02  0.7816164E-02  0.1226708E+00
        -11   -1    0    0    0    0  0.00000000000E+00  0.00000000000E+00  0.45593999997E+02  0.45594000000E+02  0.51100000000E-03 0. -1.
         11   -1    0    0    0    0 -0.00000000000E+00 -0.00000000000E+00 -0.45593999997E+02  0.45594000000E+02  0.51100000000E-03 0.  1.
    9900012    2    1    2    0    0  0.11518832707E+02 -0.76836819017E+01 -0.12607799385E+02  0.72461572689E+02  0.70000003119E+02 0.  0.
         12    1    1    2    0    0 -0.11518832707E+02  0.76836819017E+01  0.12607799385E+02  0.18726427311E+02  0.00000000000E+00 0. -1.
         11    1    3    3    0    0  0.40599469738E+01 -0.27172810984E+02  0.16337718604E+02  0.31965072746E+02  0.51100000000E-03 0. -1.
        -11    1    3    3    0    0  0.73537398161E+01  0.93372406690E+01 -0.24674360850E+01  0.12138772330E+02  0.51100000000E-03 0.  1.
        -12    1    3    3    0    0  0.10514591727E+00  0.10151888414E+02 -0.26478081904E+02  0.28357727613E+02  0.00000000000E+00 0.  1.
</event>
<event>
 7    1  0.3597718E-013  0.7246155E+02  0.7816164E-02  0.1226708E+00
        -11   -1    0    0    0    0  0.00000000000E+00  0.00000000000E+00  0.45593999997E+02  0.45594000000E+02  0.51100000000E-03 0. -1.
         11   -1    0    0    0    0 -0.00000000000E+00 -0.00000000000E+00 -0.45593999997E+02  0.45594000000E+02  0.51100000000E-03 0.  1.
    9900012    2    1    2    0    0 -0.17532059489E+02  0.65475872150E+01 -0.66033346178E+00  0.72461546824E+02  0.69999969426E+02 0.  0.
         12    1    1    2    0    0  0.17532059489E+02 -0.65475872150E+01  0.66033346178E+00  0.18726453176E+02  0.00000000000E+00 0. -1.
         11    1    3    3    0    0 -0.10302334742E+02 -0.13302809276E+02 -0.32397518484E+01  0.17134725795E+02  0.51100000000E-03 0. -1.
        -11    1    3    3    0    0 -0.68180700271E+01 -0.13129628142E+02 -0.12208072138E+02  0.19180986409E+02  0.51100000000E-03 0.  1.
         12    1    3    3    0    0 -0.41165472018E+00  0.32980024633E+02  0.14787490525E+02  0.36145834620E+02  0.00000000000E+00 0. -1.
</event>
<event>
 7    1  0.3597718E-013  0.7246151E+02  0.7816164E-02  0.1226708E+00
        -11   -1    0    0    0    0  0.00000000000E+00  0.00000000000E+00  0.45593999997E+02  0.45594000000E+02  0.51100000000E-03 0.  1.
         11   -1    0    0    0    0 -0.00000000000E+00 -0.00000000000E+00 -0.45593999997E+02  0.45594000000E+02  0.51100000000E-03 0. -1.
    9900012    2    1    2    0    0  0.14033174680E+01  0.17370955724E+02  0.68528764448E+01  0.72461512923E+02  0.69999925263E+02 0.  0.
         12    1    1    2    0    0 -0.14033174680E+01 -0.17370955724E+02 -0.68528764448E+01  0.18726487077E+02  0.00000000000E+00 0. -1.
         11    1    3    3    0    0 -0.56535235381E+01  0.40770075982E+01 -0.14885724159E+02  0.16436821571E+02  0.51100000000E-03 0. -1.
        -11    1    3    3    0    0  0.23269227261E+01 -0.13559987068E+02 -0.78075925020E+01  0.15819175693E+02  0.51100000000E-03 0.  1.
        -12    1    3    3    0    0  0.47299182800E+01  0.26853935194E+02  0.29546193106E+02  0.40205515659E+02  0.00000000000E+00 0.  1.
</event>
<event>
 7    1  0.3597718E-013  0.7246156E+02  0.7816164E-02  0.1226708E+00
        -11   -1    0    0    0    0  0.00000000000E+00  0.00000000000E+00  0.45593999997E+02  0.45594000000E+02  0.51100000000E-03 0.  1.
         11   -1    0    0    0    0 -0.00000000000E+00 -0.00000000000E+00 -0.45593999997E+02  0.45594000000E+02  0.51100000000E-03 0. -1.
    9900012    2    1    2    0    0 -0.83817985653E+01 -0.13132382979E+02  0.10390642215E+02  0.72461562124E+02  0.69999989356E+02 0.  0.
         12    1    1    2    0    0  0.83817985653E+01  0.13132382979E+02 -0.10390642215E+02  0.18726437876E+02  0.00000000000E+00 0. -1.
         11    1    3    3    0    0 -0.15184938180E+02 -0.25192849370E+02  0.25538443890E+02  0.38954770228E+02  0.51100000000E-03 0. -1.
        -11    1    3    3    0    0  0.72398884652E+01  0.10987468347E+02  0.44381578643E+01  0.13886601137E+02  0.51100000000E-03 0.  1.
        -12    1    3    3    0    0 -0.43674885049E+00  0.10729980447E+01 -0.19585959539E+02  0.19620190759E+02  0.00000000000E+00 0.  1.
</event>
<event>
 7    1  0.3597718E-013  0.7246151E+02  0.7816164E-02  0.1226708E+00
        -11   -1    0    0    0    0  0.00000000000E+00  0.00000000000E+00  0.45593999997E+02  0.45594000000E+02  0.51100000000E-03 0.  1.
         11   -1    0    0    0    0 -0.00000000000E+00 -0.00000000000E+00 -0.45593999997E+02  0.45594000000E+02  0.51100000000E-03 0. -1.
    9900012    2    1    2    0    0  0.13902891793E+02  0.12365603049E+02  0.21172418031E+01  0.72461514696E+02  0.69999927573E+02 0.  0.
         12    1    1    2    0    0 -0.13902891793E+02 -0.12365603049E+02 -0.21172418031E+01  0.18726485304E+02  0.00000000000E+00 0. -1.
         11    1    3    3    0    0  0.50203985371E+01  0.18787018457E+02  0.71438821488E+01  0.20716937910E+02  0.51100000000E-03 0. -1.
        -11    1    3    3    0    0  0.13487943032E+02  0.18158823290E+02  0.74258832847E+01  0.23807797322E+02  0.51100000000E-03 0.  1.
         12    1    3    3    0    0 -0.46054497768E+01 -0.24580238697E+02 -0.12452523630E+02  0.27936779464E+02  0.00000000000E+00 0. -1.
</event>
<event>
 7    1  0.3597718E-013  0.7246152E+02  0.7816164E-02  0.1226708E+00
        -11   -1    0    0    0    0  0.00000000000E+00  0.00000000000E+00  0.45593999997E+02  0.45594000000E+02  0.51100000000E-03 0.  1.
         11   -1    0    0    0    0 -0.00000000000E+00 -0.00000000000E+00 -0.45593999997E+02  0.45594000000E+02  0.51100000000E-03 0. -1.
    9900012    2    1    2    0    0 -0.16173045554E+02  0.53268692491E+01 -0.77934553088E+01  0.72461524514E+02  0.69999940363E+02 0.  0.
         12    1    1    2    0    0  0.16173045554E+02 -0.53268692491E+01  0.77934553088E+01  0.18726475486E+02  0.00000000000E+00 0. -1.
         11    1    3    3    0    0 -0.61297073810E+01 -0.78016563902E+01  0.10920537387E+01  0.99815698483E+01  0.51100000000E-03 0. -1.
        -11    1    3    3    0    0 -0.24368115384E+02  0.30273263908E+02 -0.99409628201E+01  0.40113567494E+02  0.51100000000E-03 0.  1.
         12    1    3    3    0    0  0.14324777211E+02 -0.17144738269E+02  0.10554537725E+01  0.22366387172E+02  0.00000000000E+00 0. -1.
</event>
<event>
 7    1  0.3597718E-013  0.7246135E+02  0.7816164E-02  0.1226709E+00
        -11   -1    0    0    0    0  0.00000000000E+00  0.00000000000E+00  0.45593999997E+02  0.45594000000E+02  0.51100000000E-03 0.  1.
         11   -1    0    0    0    0 -0.00000000000E+00 -0.00000000000E+00 -0.45593999997E+02  0.45594000000E+02  0.51100000000E-03 0. -1.
    9900012    2    1    2    0    0  0.13839867547E+02  0.12578879274E+02  0.95767269342E+00  0.72461353891E+02  0.69999718094E+02 0.  0.
         12    1    1    2    0    0 -0.13839867547E+02 -0.12578879274E+02 -0.95767269342E+00  0.18726646109E+02  0.00000000000E+00 0. -1.
         11    1    3    3    0    0  0.10636010322E+02  0.56116369493E+01  0.71120278575E+01  0.13971260692E+02  0.51100000000E-03 0.  1.
        -11    1    3    3    0    0  0.87806407734E+01  0.30508554423E+02  0.44829782235E+01  0.32061950025E+02  0.51100000000E-03 0. -1.
         12    1    3    3    0    0 -0.55767835484E+01 -0.23541312098E+02 -0.10637333388E+02  0.26428143174E+02  0.00000000000E+00 0. -1.
</event>
<event>
 7    1  0.3597718E-013  0.7246159E+02  0.7816164E-02  0.1226708E+00
        -11   -1    0    0    0    0  0.00000000000E+00  0.00000000000E+00  0.45593999997E+02  0.45594000000E+02  0.51100000000E-03 0. -1.
         11   -1    0    0    0    0 -0.00000000000E+00 -0.00000000000E+00 -0.45593999997E+02  0.45594000000E+02  0.51100000000E-03 0.  1.
    9900012    2    1    2    0    0 -0.33329218336E+01  0.18411805136E+02  0.75859511777E+00  0.72461590764E+02  0.70000026665E+02 0.  0.
         12    1    1    2    0    0  0.33329218336E+01 -0.18411805136E+02 -0.75859511777E+00  0.18726409236E+02  0.00000000000E+00 0. -1.
         11    1    3    3    0    0 -0.97587998152E+01 -0.11953363459E+02 -0.44233023113E+01  0.16052497482E+02  0.51100000000E-03 0. -1.
        -11    1    3    3    0    0  0.12340168624E+02 -0.64391004815E+01 -0.89450114162E+01  0.16545543394E+02  0.51100000000E-03 0.  1.
         12    1    3    3    0    0 -0.59142906429E+01  0.36804269077E+02  0.14126908845E+02  0.39863549888E+02  0.00000000000E+00 0. -1.
</event>
<event>
 7    1  0.3597718E-013  0.7246155E+02  0.7816164E-02  0.1226708E+00
        -11   -1    0    0    0    0  0.00000000000E+00  0.00000000000E+00  0.45593999997E+02  0.45594000000E+02  0.51100000000E-03 0. -1.
         11   -1    0    0    0    0 -0.00000000000E+00 -0.00000000000E+00 -0.45593999997E+02  0.45594000000E+02  0.51100000000E-03 0.  1.
    9900012    2    1    2    0    0 -0.11455438409E+02  0.10511051073E+02 -0.10438899875E+02  0.72461550940E+02  0.69999974788E+02 0.  0.
         12    1    1    2    0    0  0.11455438409E+02 -0.10511051073E+02  0.10438899875E+02  0.18726449060E+02  0.00000000000E+00 0. -1.
         11    1    3    3    0    0  0.39148011269E+01 -0.48423197297E+01 -0.15047913235E+01  0.64061006405E+01  0.51100000000E-03 0. -1.
        -11    1    3    3    0    0  0.10458404799E+01  0.37661324319E+02 -0.67146159992E+01  0.38269507445E+02  0.51100000000E-03 0.  1.
         12    1    3    3    0    0 -0.16416080015E+02 -0.22307953517E+02 -0.22194925520E+01  0.27785942855E+02  0.00000000000E+00 0. -1.
</event>
<event>
 7    1  0.3597718E-013  0.7246158E+02  0.7816164E-02  0.1226708E+00
        -11   -1    0    0    0    0  0.00000000000E+00  0.00000000000E+00  0.45593999997E+02  0.45594000000E+02  0.51100000000E-03 0.  1.
         11   -1    0    0    0    0 -0.00000000000E+00 -0.00000000000E+00 -0.45593999997E+02  0.45594000000E+02  0.51100000000E-03 0. -1.
    9900012    2    1    2    0    0  0.15066880417E+02  0.13330934596E+01 -0.11040423863E+02  0.72461575281E+02  0.70000006496E+02 0.  0.
         12    1    1    2    0    0 -0.15066880417E+02 -0.13330934596E+01  0.11040423863E+02  0.18726424719E+02  0.00000000000E+00 0. -1.
         11    1    3    3    0    0  0.63821829508E+01  0.12468962494E+02 -0.95669237482E+01  0.16962703651E+02  0.51100000000E-03 0. -1.
        -11    1    3    3    0    0  0.24465614314E+02  0.18197059925E+00  0.16116112684E+02  0.29297243648E+02  0.51100000000E-03 0.  1.
         12    1    3    3    0    0 -0.15780916848E+02 -0.11317839633E+02 -0.17589612798E+02  0.26201627982E+02  0.00000000000E+00 0. -1.
</event>
<event>
 7    1  0.3597718E-013  0.7246152E+02  0.7816164E-02  0.1226708E+00
        -11   -1    0    0    0    0  0.00000000000E+00  0.00000000000E+00  0.45593999997E+02  0.45594000000E+02  0.51100000000E-03 0.  1.
         11   -1    0    0    0    0 -0.00000000000E+00 -0.00000000000E+00 -0.45593999997E+02  0.45594000000E+02  0.51100000000E-03 0. -1.
    9900012    2    1    2    0    0  0.16614463099E+01  0.77732903999E+01  0.16955726535E+02  0.72461518488E+02  0.69999932513E+02 0.  0.
         12    1    1    2    0    0 -0.16614463099E+01 -0.77732903999E+01 -0.16955726535E+02  0.18726481512E+02  0.00000000000E+00 0. -1.
         11    1    3    3    0    0 -0.61846744552E+01  0.71111890759E+01  0.62552981362E+01  0.11311408543E+02  0.51100000000E-03 0. -1.
        -11    1    3    3    0    0  0.16011719159E+01  0.17800088134E+02  0.29794609865E+02  0.34743714055E+02  0.51100000000E-03 0.  1.
         12    1    3    3    0    0  0.62449488493E+01 -0.17137986810E+02 -0.19094181466E+02  0.26406395890E+02  0.00000000000E+00 0. -1.
</event>
<event>
 7    1  0.3597718E-013  0.7246155E+02  0.7816164E-02  0.1226708E+00
        -11   -1    0    0    0    0  0.00000000000E+00  0.00000000000E+00  0.45593999997E+02  0.45594000000E+02  0.51100000000E-03 0. -1.
         11   -1    0    0    0    0 -0.00000000000E+00 -0.00000000000E+00 -0.45593999997E+02  0.45594000000E+02  0.51100000000E-03 0.  1.
    9900012    2    1    2    0    0  0.26349040101E+00  0.15295470352E+02 -0.10800891008E+02  0.72461545796E+02  0.69999968086E+02 0.  0.
         12    1    1    2    0    0 -0.26349040101E+00 -0.15295470352E+02  0.10800891008E+02  0.18726454204E+02  0.00000000000E+00 0. -1.
         11    1    3    3    0    0  0.27797422604E+02  0.84179306355E+01 -0.45373430429E+01  0.29396355927E+02  0.51100000000E-03 0. -1.
        -11    1    3    3    0    0 -0.14369769478E+01  0.10380478988E+02  0.79398741206E+01  0.13147655612E+02  0.51100000000E-03 0.  1.
        -12    1    3    3    0    0 -0.26096955255E+02 -0.35029392713E+01 -0.14203422085E+02  0.29917534258E+02  0.00000000000E+00 0.  1.
</event>
<event>
 7    1  0.3597718E-013  0.7246153E+02  0.7816164E-02  0.1226708E+00
        -11   -1    0    0    0    0  0.00000000000E+00  0.00000000000E+00  0.45593999997E+02  0.45594000000E+02  0.51100000000E-03 0.  1.
         11   -1    0    0    0    0 -0.00000000000E+00 -0.00000000000E+00 -0.45593999997E+02  0.45594000000E+02  0.51100000000E-03 0. -1.
    9900012    2    1    2    0    0 -0.45044926205E+01  0.17387536803E+02  0.52975404084E+01  0.72461526113E+02  0.69999942446E+02 0.  0.
         12    1    1    2    0    0  0.45044926205E+01 -0.17387536803E+02 -0.52975404084E+01  0.18726473887E+02  0.00000000000E+00 0. -1.
         11    1    3    3    0    0 -0.16872132846E+02 -0.86299912442E+01  0.18204675476E+01  0.19038374878E+02  0.51100000000E-03 0. -1.
        -11    1    3    3    0    0 -0.14090965109E+01 -0.50763757305E+01 -0.14163101170E+02  0.15111207051E+02  0.51100000000E-03 0.  1.
        -12    1    3    3    0    0  0.13776736737E+02  0.31093903778E+02  0.17640174031E+02  0.38311944183E+02  0.00000000000E+00 0.  1.
</event>
<event>
 7    1  0.3597718E-013  0.7246137E+02  0.7816164E-02  0.1226709E+00
        -11   -1    0    0    0    0  0.00000000000E+00  0.00000000000E+00  0.45593999997E+02  0.45594000000E+02  0.51100000000E-03 0.  1.
         11   -1    0    0    0    0 -0.00000000000E+00 -0.00000000000E+00 -0.45593999997E+02  0.45594000000E+02  0.51100000000E-03 0. -1.
    9900012    2    1    2    0    0  0.55401953513E+01 -0.33584683657E+01  0.17570246545E+02  0.72461370887E+02  0.69999740234E+02 0.  0.
         12    1    1    2    0    0 -0.55401953513E+01  0.33584683657E+01 -0.17570246545E+02  0.18726629113E+02  0.00000000000E+00 0. -1.
         11    1    3    3    0    0  0.22250354184E+02 -0.24419308447E+02 -0.62549752060E+00  0.33041975331E+02  0.51100000000E-03 0. -1.
        -11    1    3    3    0    0  0.29004399837E+01 -0.24736801462E+01  0.45954945318E-01  0.38123165769E+01  0.51100000000E-03 0.  1.
        -12    1    3    3    0    0 -0.19610598817E+02  0.23534520228E+02  0.18149789120E+02  0.35607078979E+02  0.00000000000E+00 0.  1.
</event>
<event>
 7    1  0.3597718E-013  0.7246156E+02  0.7816164E-02  0.1226708E+00
        -11   -1    0    0    0    0  0.00000000000E+00  0.00000000000E+00  0.45593999997E+02  0.45594000000E+02  0.51100000000E-03 0. -1.
         11   -1    0    0    0    0 -0.00000000000E+00 -0.00000000000E+00 -0.45593999997E+02  0.45594000000E+02  0.51100000000E-03 0.  1.
    9900012    2    1    2    0    0  0.12613036439E+02  0.10485560218E+01 -0.13801864794E+02  0.72461558007E+02  0.69999983993E+02 0.  0.
         12    1    1    2    0    0 -0.12613036439E+02 -0.10485560218E+01  0.13801864794E+02  0.18726441993E+02  0.00000000000E+00 0. -1.
         11    1    3    3    0    0 -0.26429200334E+01  0.10888094797E+01  0.19972255809E+01  0.34870392410E+01  0.51100000000E-03 0. -1.
        -11    1    3    3    0    0 -0.17988756954E+02 -0.93415607938E+01 -0.26009288464E+02  0.32974887740E+02  0.51100000000E-03 0.  1.
         12    1    3    3    0    0  0.33244713426E+02  0.93013073359E+01  0.10210198089E+02  0.35999631025E+02  0.00000000000E+00 0. -1.
</event>
<event>
 7    1  0.3597718E-013  0.7246156E+02  0.7816164E-02  0.1226708E+00
        -11   -1    0    0    0    0  0.00000000000E+00  0.00000000000E+00  0.45593999997E+02  0.45594000000E+02  0.51100000000E-03 0. -1.
         11   -1    0    0    0    0 -0.00000000000E+00 -0.00000000000E+00 -0.45593999997E+02  0.45594000000E+02  0.51100000000E-03 0.  1.
    9900012    2    1    2    0    0  0.18148322779E+02  0.46134648924E+01 -0.18394890065E+00  0.72461561064E+02  0.69999987976E+02 0.  0.
         12    1    1    2    0    0 -0.18148322779E+02 -0.46134648924E+01  0.18394890065E+00  0.18726438936E+02  0.00000000000E+00 0. -1.
         11    1    3    3    0    0  0.97858570804E+01  0.12709618636E+02 -0.92671073036E+01  0.18525028548E+02  0.51100000000E-03 0. -1.
        -11    1    3    3    0    0  0.57050250352E+01  0.20952076528E+02 -0.38065240132E+01  0.22046007503E+02  0.51100000000E-03 0.  1.
         12    1    3    3    0    0  0.26574406637E+01 -0.29048230272E+02  0.12889682416E+02  0.31890525013E+02  0.00000000000E+00 0. -1.
</event>
<event>
 7    1  0.3597718E-013  0.7246160E+02  0.7816164E-02  0.1226708E+00
        -11   -1    0    0    0    0  0.00000000000E+00  0.00000000000E+00  0.45593999997E+02  0.45594000000E+02  0.51100000000E-03 0. -1.
         11   -1    0    0    0    0 -0.00000000000E+00 -0.00000000000E+00 -0.45593999997E+02  0.45594000000E+02  0.51100000000E-03 0.  1.
    9900012    2    1    2    0    0  0.11253811241E+02 -0.52993914983E+01 -0.13998081386E+02  0.72461598846E+02  0.70000037194E+02 0.  0.
         12    1    1    2    0    0 -0.11253811241E+02  0.52993914983E+01  0.13998081386E+02  0.18726401154E+02  0.00000000000E+00 0. -1.
         11    1    3    3    0    0  0.10945215145E+02 -0.12890219780E+02 -0.15992364612E+01  0.16985672140E+02  0.51100000000E-03 0.  1.
        -11    1    3    3    0    0  0.18230729363E+02  0.85582817346E+01  0.13296394116E+02  0.24132918931E+02  0.51100000000E-03 0. -1.
        -12    1    3    3    0    0 -0.17922133267E+02 -0.96745345324E+00 -0.25695239041E+02  0.31343007775E+02  0.00000000000E+00 0.  1.
</event>
<event>
 7    1  0.3597718E-013  0.7246162E+02  0.7816164E-02  0.1226708E+00
        -11   -1    0    0    0    0  0.00000000000E+00  0.00000000000E+00  0.45593999997E+02  0.45594000000E+02  0.51100000000E-03 0. -1.
         11   -1    0    0    0    0 -0.00000000000E+00 -0.00000000000E+00 -0.45593999997E+02  0.45594000000E+02  0.51100000000E-03 0.  1.
    9900012    2    1    2    0    0  0.31074352872E+01 -0.18455289822E+02 -0.65062820841E+00  0.72461623054E+02  0.70000068729E+02 0.  0.
         12    1    1    2    0    0 -0.31074352872E+01  0.18455289822E+02  0.65062820841E+00  0.18726376946E+02  0.00000000000E+00 0. -1.
         11    1    3    3    0    0  0.50377472529E+01 -0.95586018535E+01  0.21605303742E+02  0.24156467391E+02  0.51100000000E-03 0. -1.
        -11    1    3    3    0    0 -0.10881464570E+02 -0.18708977427E+02  0.84331705316E+00  0.21659715867E+02  0.51100000000E-03 0.  1.
        -12    1    3    3    0    0  0.89511526047E+01  0.98122894584E+01 -0.23099249003E+02  0.26645439795E+02  0.00000000000E+00 0.  1.
</event>
<event>
 7    1  0.3597718E-013  0.7246153E+02  0.7816164E-02  0.1226708E+00
        -11   -1    0    0    0    0  0.00000000000E+00  0.00000000000E+00  0.45593999997E+02  0.45594000000E+02  0.51100000000E-03 0.  1.
         11   -1    0    0    0    0 -0.00000000000E+00 -0.00000000000E+00 -0.45593999997E+02  0.45594000000E+02  0.51100000000E-03 0. -1.
    9900012    2    1    2    0    0 -0.35114964556E+00  0.18716438744E+02 -0.50229995483E+00  0.72461529682E+02  0.69999947095E+02 0.  0.
         12    1    1    2    0    0  0.35114964556E+00 -0.18716438744E+02  0.50229995483E+00  0.18726470318E+02  0.00000000000E+00 0. -1.
         11    1    3    3    0    0 -0.22117319335E+02  0.92653044844E+01  0.13294447651E+02  0.27418315418E+02  0.51100000000E-03 0. -1.
        -11    1    3    3    0    0  0.19034358234E+02  0.13696809762E+02  0.63328081984E+01  0.24290200720E+02  0.51100000000E-03 0.  1.
        -12    1    3    3    0    0  0.27318114548E+01 -0.42456755031E+01 -0.20129555804E+02  0.20753013545E+02  0.00000000000E+00 0.  1.
</event>
<event>
 7    1  0.3597718E-013  0.7246161E+02  0.7816164E-02  0.1226708E+00
        -11   -1    0    0    0    0  0.00000000000E+00  0.00000000000E+00  0.45593999997E+02  0.45594000000E+02  0.51100000000E-03 0.  1.
         11   -1    0    0    0    0 -0.00000000000E+00 -0.00000000000E+00 -0.45593999997E+02  0.45594000000E+02  0.51100000000E-03 0. -1.
    9900012    2    1    2    0    0 -0.17843223066E+02 -0.15623444388E+00  0.56809060031E+01  0.72461609221E+02  0.70000050709E+02 0.  0.
         12    1    1    2    0    0  0.17843223066E+02  0.15623444388E+00 -0.56809060031E+01  0.18726390779E+02  0.00000000000E+00 0. -1.
         11    1    3    3    0    0  0.19939561988E+02 -0.80562480320E+01  0.11784137651E+02  0.24522544017E+02  0.51100000000E-03 0. -1.
        -11    1    3    3    0    0 -0.30387970787E+01 -0.59177994918E+01 -0.81160775399E+01  0.10494062769E+02  0.51100000000E-03 0.  1.
        -12    1    3    3    0    0 -0.34743987976E+02  0.13817813080E+02  0.20128458925E+01  0.37445002435E+02  0.00000000000E+00 0.  1.
</event>
<event>
 7    1  0.3597718E-013  0.7246198E+02  0.7816164E-02  0.1226707E+00
        -11   -1    0    0    0    0  0.00000000000E+00  0.00000000000E+00  0.45593999997E+02  0.45594000000E+02  0.51100000000E-03 0. -1.
         11   -1    0    0    0    0 -0.00000000000E+00 -0.00000000000E+00 -0.45593999997E+02  0.45594000000E+02  0.51100000000E-03 0.  1.
    9900012    2    1    2    0    0  0.13898613232E+02 -0.12235763873E+02 -0.27890191987E+01  0.72461975451E+02  0.70000527790E+02 0.  0.
         12    1    1    2    0    0 -0.13898613232E+02  0.12235763873E+02  0.27890191987E+01  0.18726024549E+02  0.00000000000E+00 0. -1.
         11    1    3    3    0    0  0.20309664008E+02 -0.20224870479E+02 -0.18527821359E+02  0.34129283652E+02  0.51100000000E-03 0. -1.
        -11    1    3    3    0    0  0.18465062065E+01 -0.63808403961E+01 -0.73528143085E+01  0.99090154833E+01  0.51100000000E-03 0.  1.
        -12    1    3    3    0    0 -0.82575569826E+01  0.14369947002E+02  0.23091616469E+02  0.28423676316E+02  0.00000000000E+00 0.  1.
</event>
<event>
 7    1  0.3956677E-013  0.7246155E+02  0.7816164E-02  0.1226708E+00
        -11   -1    0    0    0    0  0.00000000000E+00  0.00000000000E+00  0.45593999997E+02  0.45594000000E+02  0.51100000000E-03 0.  1.
         11   -1    0    0    0    0 -0.00000000000E+00 -0.00000000000E+00 -0.45593999997E+02  0.45594000000E+02  0.51100000000E-03 0. -1.
    9900012    2    1    2    0    0 -0.85388957431E+01  0.13687540520E+02  0.95088576419E+01  0.72461551334E+02  0.69999975300E+02 0.  0.
         12    1    1    2    0    0  0.85388957431E+01 -0.13687540520E+02 -0.95088576419E+01  0.18726448666E+02  0.00000000000E+00 0. -1.
         11    1    3    3    0    0 -0.23864625343E+02  0.15385423324E+00  0.10840755134E+00  0.23865367509E+02  0.51100000000E-03 0. -1.
        -11    1    3    3    0    0  0.14594790761E+01  0.19590056466E+02  0.21572678518E+02  0.29176717605E+02  0.51100000000E-03 0.  1.
         12    1    3    3    0    0  0.13866250524E+02 -0.60563701790E+01 -0.12172228428E+02  0.19419466219E+02  0.00000000000E+00 0. -1.
</event>
<event>
 7    1  0.3597718E-013  0.7246138E+02  0.7816164E-02  0.1226709E+00
        -11   -1    0    0    0    0  0.00000000000E+00  0.00000000000E+00  0.45593999997E+02  0.45594000000E+02  0.51100000000E-03 0.  1.
         11   -1    0    0    0    0 -0.00000000000E+00 -0.00000000000E+00 -0.45593999997E+02  0.45594000000E+02  0.51100000000E-03 0. -1.
    9900012    2    1    2    0    0 -0.42500840615E+01  0.14856705143E+02  0.10578344919E+02  0.72461380351E+02  0.69999752564E+02 0.  0.
         12    1    1    2    0    0  0.42500840615E+01 -0.14856705143E+02 -0.10578344919E+02  0.18726619649E+02  0.00000000000E+00 0. -1.
         11    1    3    3    0    0  0.10959483287E+02 -0.59972792900E+01 -0.91719884947E+01  0.15498483990E+02  0.51100000000E-03 0. -1.
        -11    1    3    3    0    0 -0.14508041424E+02  0.32751276419E-02 -0.12097636492E+02  0.18890105495E+02  0.51100000000E-03 0.  1.
        -12    1    3    3    0    0 -0.70152592458E+00  0.20850709305E+02  0.31847969906E+02  0.38072790865E+02  0.00000000000E+00 0.  1.
</event>
<event>
 7    1  0.3597718E-013  0.7246158E+02  0.7816164E-02  0.1226708E+00
        -11   -1    0    0    0    0  0.00000000000E+00  0.00000000000E+00  0.45593999997E+02  0.45594000000E+02  0.51100000000E-03 0. -1.
         11   -1    0    0    0    0 -0.00000000000E+00 -0.00000000000E+00 -0.45593999997E+02  0.45594000000E+02  0.51100000000E-03 0.  1.
    9900012    2    1    2    0    0 -0.36530817339E+01  0.14155669757E+02 -0.11702600750E+02  0.72461578646E+02  0.70000010879E+02 0.  0.
         12    1    1    2    0    0  0.36530817339E+01 -0.14155669757E+02  0.11702600750E+02  0.18726421354E+02  0.00000000000E+00 0. -1.
         11    1    3    3    0    0 -0.13694584704E+02  0.99738879479E+01 -0.21285452431E+02  0.27204605795E+02  0.51100000000E-03 0. -1.
        -11    1    3    3    0    0 -0.10716923492E+02  0.55794426050E+01 -0.10745263742E+02  0.16169209074E+02  0.51100000000E-03 0.  1.
         12    1    3    3    0    0  0.20758426463E+02 -0.13976607963E+01  0.20328115423E+02  0.29087763777E+02  0.00000000000E+00 0. -1.
</event>
<event>
 7    1  0.3597718E-013  0.7246160E+02  0.7816164E-02  0.1226708E+00
        -11   -1    0    0    0    0  0.00000000000E+00  0.00000000000E+00  0.45593999997E+02  0.45594000000E+02  0.51100000000E-03 0.  1.
         11   -1    0    0    0    0 -0.00000000000E+00 -0.00000000000E+00 -0.45593999997E+02  0.45594000000E+02  0.51100000000E-03 0. -1.
    9900012    2    1    2    0    0  0.11100356155E+02 -0.11740150964E+02  0.94672615924E+01  0.72461599025E+02  0.70000037427E+02 0.  0.
         12    1    1    2    0    0 -0.11100356155E+02  0.11740150964E+02 -0.94672615924E+01  0.18726400975E+02  0.00000000000E+00 0. -1.
         11    1    3    3    0    0 -0.52719829165E+00 -0.14273716643E+02  0.12535242574E+02  0.19003926739E+02  0.51100000000E-03 0. -1.
        -11    1    3    3    0    0 -0.15153828091E+02 -0.14985158302E+02 -0.33800460777E-01  0.21311842199E+02  0.51100000000E-03 0.  1.
        -12    1    3    3    0    0  0.26781382538E+02  0.17518723982E+02 -0.30341805207E+01  0.32145830088E+02  0.00000000000E+00 0.  1.
</event>
<event>
 7    1  0.3597718E-013  0.7246158E+02  0.7816164E-02  0.1226708E+00
        -11   -1    0    0    0    0  0.00000000000E+00  0.00000000000E+00  0.45593999997E+02  0.45594000000E+02  0.51100000000E-03 0.  1.
         11   -1    0    0    0    0 -0.00000000000E+00 -0.00000000000E+00 -0.45593999997E+02  0.45594000000E+02  0.51100000000E-03 0. -1.
    9900012    2    1    2    0    0 -0.36282397373E+00 -0.11206838307E+02  0.14998466589E+02  0.72461578396E+02  0.70000010554E+02 0.  0.
         12    1    1    2    0    0  0.36282397373E+00  0.11206838307E+02 -0.14998466589E+02  0.18726421604E+02  0.00000000000E+00 0. -1.
         11    1    3    3    0    0  0.23429590793E+02 -0.17806918292E+02 -0.11222984850E+02  0.31495832311E+02  0.51100000000E-03 0. -1.
        -11    1    3    3    0    0 -0.91937962988E+01  0.12272125221E+02  0.94185100501E+01  0.17995534992E+02  0.51100000000E-03 0.  1.
        -12    1    3    3    0    0 -0.14598618468E+02 -0.56720452360E+01  0.16802941389E+02  0.22970211093E+02  0.00000000000E+00 0.  1.
</event>
<event>
 7    1  0.3597718E-013  0.7246155E+02  0.7816164E-02  0.1226708E+00
        -11   -1    0    0    0    0  0.00000000000E+00  0.00000000000E+00  0.45593999997E+02  0.45594000000E+02  0.51100000000E-03 0.  1.
         11   -1    0    0    0    0 -0.00000000000E+00 -0.00000000000E+00 -0.45593999997E+02  0.45594000000E+02  0.51100000000E-03 0. -1.
    9900012    2    1    2    0    0 -0.12507507253E+02  0.33935580148E+01  0.13517610433E+02  0.72461554381E+02  0.69999979270E+02 0.  0.
         12    1    1    2    0    0  0.12507507253E+02 -0.33935580148E+01 -0.13517610433E+02  0.18726445619E+02  0.00000000000E+00 0. -1.
         11    1    3    3    0    0  0.36120137648E+01 -0.20865942946E+02 -0.10616593468E+01  0.21202861583E+02  0.51100000000E-03 0. -1.
        -11    1    3    3    0    0 -0.14292223481E+02 -0.38693480100E+01 -0.63896126247E+01  0.16126582273E+02  0.51100000000E-03 0.  1.
        -12    1    3    3    0    0 -0.18272975370E+01  0.28128848971E+02  0.20968882405E+02  0.35132110526E+02  0.00000000000E+00 0.  1.
</event>
<event>
 7    1  0.5483805E-013  0.7246161E+02  0.7816164E-02  0.1226708E+00
        -11   -1    0    0    0    0  0.00000000000E+00  0.00000000000E+00  0.45593999997E+02  0.45594000000E+02  0.51100000000E-03 0. -1.
         11   -1    0    0    0    0 -0.00000000000E+00 -0.00000000000E+00 -0.45593999997E+02  0.45594000000E+02  0.51100000000E-03 0.  1.
    9900012    2    1    2    0    0  0.50391062524E+01  0.11026408252E+02 -0.14272470620E+02  0.72461609842E+02  0.70000051518E+02 0.  0.
         12    1    1    2    0    0 -0.50391062524E+01 -0.11026408252E+02  0.14272470620E+02  0.18726390158E+02  0.00000000000E+00 0. -1.
         11    1    3    3    0    0  0.16459745293E+02  0.29384926097E+01  0.79544486314E+01  0.18515701640E+02  0.51100000000E-03 0. -1.
        -11    1    3    3    0    0 -0.80894626586E+01  0.27667150507E+02 -0.16771945043E+02  0.33349794064E+02  0.51100000000E-03 0.  1.
         12    1    3    3    0    0 -0.33311763820E+01 -0.19579234865E+02 -0.54549742080E+01  0.20596114138E+02  0.00000000000E+00 0. -1.
</event>
<event>
 7    1  0.3597718E-013  0.7246151E+02  0.7816164E-02  0.1226708E+00
        -11   -1    0    0    0    0  0.00000000000E+00  0.00000000000E+00  0.45593999997E+02  0.45594000000E+02  0.51100000000E-03 0. -1.
         11   -1    0    0    0    0 -0.00000000000E+00 -0.00000000000E+00 -0.45593999997E+02  0.45594000000E+02  0.51100000000E-03 0.  1.
    9900012    2    1    2    0    0  0.14286018566E+02  0.72125759819E+01 -0.97247034650E+01  0.72461509772E+02  0.69999921159E+02 0.  0.
         12    1    1    2    0    0 -0.14286018566E+02 -0.72125759819E+01  0.97247034650E+01  0.18726490228E+02  0.00000000000E+00 0. -1.
         11    1    3    3    0    0 -0.64364616917E+01  0.20406164000E+01 -0.21153130077E+01  0.70757829095E+01  0.51100000000E-03 0. -1.
        -11    1    3    3    0    0  0.36169942272E+02  0.21185955267E+02 -0.97372950027E+01  0.43033990505E+02  0.51100000000E-03 0.  1.
         12    1    3    3    0    0 -0.15447462014E+02 -0.16013995685E+02  0.21279045454E+01  0.22351736358E+02  0.00000000000E+00 0. -1.
</event>
<event>
 7    1  0.3597718E-013  0.7246158E+02  0.7816164E-02  0.1226708E+00
        -11   -1    0    0    0    0  0.00000000000E+00  0.00000000000E+00  0.45593999997E+02  0.45594000000E+02  0.51100000000E-03 0. -1.
         11   -1    0    0    0    0 -0.00000000000E+00 -0.00000000000E+00 -0.45593999997E+02  0.45594000000E+02  0.51100000000E-03 0.  1.
    9900012    2    1    2    0    0 -0.78786924023E+00  0.79019790625E+01 -0.16959272539E+02  0.72461576527E+02  0.70000008119E+02 0.  0.
         12    1    1    2    0    0  0.78786924023E+00 -0.79019790625E+01  0.16959272539E+02  0.18726423473E+02  0.00000000000E+00 0. -1.
         11    1    3    3    0    0 -0.96658528951E+00 -0.16785456227E+02  0.16882412660E+02  0.23826491251E+02  0.51100000000E-03 0. -1.
        -11    1    3    3    0    0  0.29981608227E+01  0.78742323273E+01  0.22488707309E+01  0.87206606910E+01  0.51100000000E-03 0.  1.
        -12    1    3    3    0    0 -0.28194447734E+01  0.16813202962E+02 -0.36090555929E+02  0.39914424585E+02  0.00000000000E+00 0.  1.
</event>
<event>
 7    1  0.3597718E-013  0.7246160E+02  0.7816164E-02  0.1226708E+00
        -11   -1    0    0    0    0  0.00000000000E+00  0.00000000000E+00  0.45593999997E+02  0.45594000000E+02  0.51100000000E-03 0. -1.
         11   -1    0    0    0    0 -0.00000000000E+00 -0.00000000000E+00 -0.45593999997E+02  0.45594000000E+02  0.51100000000E-03 0.  1.
    9900012    2    1    2    0    0  0.10226729341E+02 -0.85480820678E+01 -0.13153801809E+02  0.72461596125E+02  0.70000033649E+02 0.  0.
         12    1    1    2    0    0 -0.10226729341E+02  0.85480820678E+01  0.13153801809E+02  0.18726403875E+02  0.00000000000E+00 0. -1.
         11    1    3    3    0    0 -0.11904736249E+02  0.88463876707E+01 -0.16144156180E+02  0.21922935456E+02  0.51100000000E-03 0. -1.
        -11    1    3    3    0    0  0.76937592849E+01  0.13559445348E+02 -0.29604275324E+01  0.15868730936E+02  0.51100000000E-03 0.  1.
        -12    1    3    3    0    0  0.14437706304E+02 -0.30953915086E+02  0.59507819032E+01  0.34669929734E+02  0.00000000000E+00 0.  1.
</event>
<event>
 7    1  0.3597718E-013  0.7246160E+02  0.7816164E-02  0.1226708E+00
        -11   -1    0    0    0    0  0.00000000000E+00  0.00000000000E+00  0.45593999997E+02  0.45594000000E+02  0.51100000000E-03 0.  1.
         11   -1    0    0    0    0 -0.00000000000E+00 -0.00000000000E+00 -0.45593999997E+02  0.45594000000E+02  0.51100000000E-03 0. -1.
    9900012    2    1    2    0    0  0.12453020883E+02  0.11897122128E+01  0.13935018946E+02  0.72461604263E+02  0.70000044251E+02 0.  0.
         12    1    1    2    0    0 -0.12453020883E+02 -0.11897122128E+01 -0.13935018946E+02  0.18726395737E+02  0.00000000000E+00 0. -1.
         11    1    3    3    0    0  0.22468816917E+02 -0.11403827361E+02 -0.17254818537E+02  0.30538889553E+02  0.51100000000E-03 0. -1.
        -11    1    3    3    0    0 -0.10192616101E+02 -0.43230799889E+01  0.11502129490E+02  0.15964881040E+02  0.51100000000E-03 0.  1.
        -12    1    3    3    0    0  0.17682006695E+00  0.16916619563E+02  0.19687707994E+02  0.25957833670E+02  0.00000000000E+00 0.  1.
</event>
<event>
 7    1  0.3597718E-013  0.7246148E+02  0.7816164E-02  0.1226708E+00
        -11   -1    0    0    0    0  0.00000000000E+00  0.00000000000E+00  0.45593999997E+02  0.45594000000E+02  0.51100000000E-03 0. -1.
         11   -1    0    0    0    0 -0.00000000000E+00 -0.00000000000E+00 -0.45593999997E+02  0.45594000000E+02  0.51100000000E-03 0.  1.
    9900012    2    1    2    0    0  0.85332370543E+00 -0.63590829131E+01 -0.17593084632E+02  0.72461475397E+02  0.69999876378E+02 0.  0.
         12    1    1    2    0    0 -0.85332370543E+00  0.63590829131E+01  0.17593084632E+02  0.18726524603E+02  0.00000000000E+00 0. -1.
         11    1    3    3    0    0 -0.11885773093E+02 -0.13707175957E+02 -0.32866862470E+01  0.18438019999E+02  0.51100000000E-03 0. -1.
        -11    1    3    3    0    0 -0.17501307919E+01  0.27334505899E+02 -0.82400992799E+01  0.28603101352E+02  0.51100000000E-03 0.  1.
         12    1    3    3    0    0  0.14489227591E+02 -0.19986412855E+02 -0.60662991054E+01  0.25420354046E+02  0.00000000000E+00 0. -1.
</event>
<event>
 7    1  0.3597718E-013  0.7246161E+02  0.7816164E-02  0.1226708E+00
        -11   -1    0    0    0    0  0.00000000000E+00  0.00000000000E+00  0.45593999997E+02  0.45594000000E+02  0.51100000000E-03 0.  1.
         11   -1    0    0    0    0 -0.00000000000E+00 -0.00000000000E+00 -0.45593999997E+02  0.45594000000E+02  0.51100000000E-03 0. -1.
    9900012    2    1    2    0    0  0.88152423253E+01 -0.82750231443E+01  0.14300106571E+02  0.72461613450E+02  0.70000056218E+02 0.  0.
         12    1    1    2    0    0 -0.88152423253E+01  0.82750231443E+01 -0.14300106571E+02  0.18726386550E+02  0.00000000000E+00 0. -1.
         11    1    3    3    0    0  0.12588345851E+01  0.21121438204E+01 -0.18385761108E+00  0.24656885272E+01  0.51100000000E-03 0. -1.
        -11    1    3    3    0    0  0.34045391885E+02  0.31201948160E+01  0.20210983734E+02  0.39715339455E+02  0.51100000000E-03 0.  1.
         12    1    3    3    0    0 -0.26488984145E+02 -0.13507361781E+02 -0.57270195516E+01  0.30280585467E+02  0.00000000000E+00 0. -1.
</event>
<event>
 7    1  0.3597718E-013  0.7246156E+02  0.7816164E-02  0.1226708E+00
        -11   -1    0    0    0    0  0.00000000000E+00  0.00000000000E+00  0.45593999997E+02  0.45594000000E+02  0.51100000000E-03 0.  1.
         11   -1    0    0    0    0 -0.00000000000E+00 -0.00000000000E+00 -0.45593999997E+02  0.45594000000E+02  0.51100000000E-03 0. -1.
    9900012    2    1    2    0    0  0.17654672859E+01  0.12305487646E+02  0.14004920145E+02  0.72461556418E+02  0.69999981924E+02 0.  0.
         12    1    1    2    0    0 -0.17654672859E+01 -0.12305487646E+02 -0.14004920145E+02  0.18726443582E+02  0.00000000000E+00 0. -1.
         11    1    3    3    0    0  0.10996139724E+02 -0.23037343027E+01 -0.64907416990E+01  0.12975053319E+02  0.51100000000E-03 0. -1.
        -11    1    3    3    0    0  0.17179322757E+02 -0.98521655249E+01  0.61693474391E+01  0.20742592509E+02  0.51100000000E-03 0.  1.
         12    1    3    3    0    0 -0.26409995196E+02  0.24461387473E+02  0.14326314405E+02  0.38743910590E+02  0.00000000000E+00 0. -1.
</event>
<event>
 7    1  0.3597718E-013  0.7246163E+02  0.7816164E-02  0.1226708E+00
        -11   -1    0    0    0    0  0.00000000000E+00  0.00000000000E+00  0.45593999997E+02  0.45594000000E+02  0.51100000000E-03 0. -1.
         11   -1    0    0    0    0 -0.00000000000E+00 -0.00000000000E+00 -0.45593999997E+02  0.45594000000E+02  0.51100000000E-03 0.  1.
    9900012    2    1    2    0    0 -0.14075560165E+02  0.26786094110E+01 -0.12057381472E+02  0.72461633820E+02  0.70000082754E+02 0.  0.
         12    1    1    2    0    0  0.14075560165E+02 -0.26786094110E+01  0.12057381472E+02  0.18726366180E+02  0.00000000000E+00 0. -1.
         11    1    3    3    0    0 -0.66781953953E+01  0.20707110538E+02 -0.49719547057E+01  0.22318222474E+02  0.51100000000E-03 0. -1.
        -11    1    3    3    0    0  0.12697083556E+02  0.63307890634E+01 -0.11493811028E+02  0.18259313054E+02  0.51100000000E-03 0.  1.
        -12    1    3    3    0    0 -0.20094448326E+02 -0.24359290190E+02  0.44083842613E+01  0.31884098292E+02  0.00000000000E+00 0.  1.
</event>
<event>
 7    1  0.3597718E-013  0.7246226E+02  0.7816164E-02  0.1226706E+00
        -11   -1    0    0    0    0  0.00000000000E+00  0.00000000000E+00  0.45593999997E+02  0.45594000000E+02  0.51100000000E-03 0. -1.
         11   -1    0    0    0    0 -0.00000000000E+00 -0.00000000000E+00 -0.45593999997E+02  0.45594000000E+02  0.51100000000E-03 0.  1.
    9900012    2    1    2    0    0 -0.36786550193E+01  0.14212477720E+02 -0.11624377893E+02  0.72462264044E+02  0.70000903731E+02 0.  0.
         12    1    1    2    0    0  0.36786550193E+01 -0.14212477720E+02  0.11624377893E+02  0.18725735956E+02  0.00000000000E+00 0. -1.
         11    1    3    3    0    0  0.68246203083E+01 -0.10613223378E+02  0.15612701676E+02  0.20074172628E+02  0.51100000000E-03 0. -1.
        -11    1    3    3    0    0 -0.10149404823E+02 -0.58065196725E+01 -0.46228834016E+00  0.11702128000E+02  0.51100000000E-03 0.  1.
        -12    1    3    3    0    0 -0.35387050511E+00  0.30632220771E+02 -0.26774791229E+02  0.40685963416E+02  0.00000000000E+00 0.  1.
</event>
<event>
 7    1  0.3597718E-013  0.7246164E+02  0.7816164E-02  0.1226708E+00
        -11   -1    0    0    0    0  0.00000000000E+00  0.00000000000E+00  0.45593999997E+02  0.45594000000E+02  0.51100000000E-03 0. -1.
         11   -1    0    0    0    0 -0.00000000000E+00 -0.00000000000E+00 -0.45593999997E+02  0.45594000000E+02  0.51100000000E-03 0.  1.
    9900012    2    1    2    0    0 -0.91289868866E+01 -0.15248411914E+01 -0.16279225284E+02  0.72461635748E+02  0.70000085266E+02 0.  0.
         12    1    1    2    0    0  0.91289868866E+01  0.15248411914E+01  0.16279225284E+02  0.18726364252E+02  0.00000000000E+00 0. -1.
         11    1    3    3    0    0 -0.22533393165E+01 -0.15533420540E+01  0.16101614135E+02  0.16332556065E+02  0.51100000000E-03 0. -1.
        -11    1    3    3    0    0 -0.23413343818E+02  0.69294349825E+01 -0.76483812322E+01  0.25587095843E+02  0.51100000000E-03 0.  1.
        -12    1    3    3    0    0  0.16537696248E+02 -0.69009341199E+01 -0.24732458187E+02  0.30541983840E+02  0.00000000000E+00 0.  1.
</event>
<event>
 7    1  0.3597718E-013  0.7246107E+02  0.7816164E-02  0.1226709E+00
        -11   -1    0    0    0    0  0.00000000000E+00  0.00000000000E+00  0.45593999997E+02  0.45594000000E+02  0.51100000000E-03 0. -1.
         11   -1    0    0    0    0 -0.00000000000E+00 -0.00000000000E+00 -0.45593999997E+02  0.45594000000E+02  0.51100000000E-03 0.  1.
    9900012    2    1    2    0    0 -0.87383887277E+01 -0.40382763873E+01 -0.16063340383E+02  0.72461067043E+02  0.69999344418E+02 0.  0.
         12    1    1    2    0    0  0.87383887277E+01  0.40382763873E+01  0.16063340383E+02  0.18726932957E+02  0.00000000000E+00 0. -1.
         11    1    3    3    0    0  0.14290145899E+02 -0.20728387737E+02 -0.23749071716E+02  0.34610587045E+02  0.51100000000E-03 0. -1.
        -11    1    3    3    0    0 -0.12325183557E+02  0.88992195063E+01 -0.81184836865E+01  0.17234153161E+02  0.51100000000E-03 0.  1.
        -12    1    3    3    0    0 -0.10703351070E+02  0.77908918436E+01  0.15804215019E+02  0.20616326836E+02  0.00000000000E+00 0.  1.
</event>
<event>
 7    1  0.3597718E-013  0.7246152E+02  0.7816164E-02  0.1226708E+00
        -11   -1    0    0    0    0  0.00000000000E+00  0.00000000000E+00  0.45593999997E+02  0.45594000000E+02  0.51100000000E-03 0.  1.
         11   -1    0    0    0    0 -0.00000000000E+00 -0.00000000000E+00 -0.45593999997E+02  0.45594000000E+02  0.51100000000E-03 0. -1.
    9900012    2    1    2    0    0  0.36086528984E+01  0.15996933070E+02  0.90419417685E+01  0.72461522639E+02  0.69999937921E+02 0.  0.
         12    1    1    2    0    0 -0.36086528984E+01 -0.15996933070E+02 -0.90419417685E+01  0.18726477361E+02  0.00000000000E+00 0. -1.
         11    1    3    3    0    0 -0.13385118572E+01 -0.61414238808E+01  0.20119544475E+02  0.21078538171E+02  0.51100000000E-03 0. -1.
        -11    1    3    3    0    0  0.12575825655E+02  0.32043635546E+02  0.37917408335E+00  0.34425132435E+02  0.51100000000E-03 0.  1.
         12    1    3    3    0    0 -0.76286608996E+01 -0.99052785955E+01 -0.11456776790E+02  0.16957852033E+02  0.00000000000E+00 0. -1.
</event>
<event>
 7    1  0.3597718E-013  0.7246154E+02  0.7816164E-02  0.1226708E+00
        -11   -1    0    0    0    0  0.00000000000E+00  0.00000000000E+00  0.45593999997E+02  0.45594000000E+02  0.51100000000E-03 0.  1.
         11   -1    0    0    0    0 -0.00000000000E+00 -0.00000000000E+00 -0.45593999997E+02  0.45594000000E+02  0.51100000000E-03 0. -1.
    9900012    2    1    2    0    0 -0.55112684427E+01  0.92740305683E-01  0.17896863771E+02  0.72461537081E+02  0.69999956733E+02 0.  0.
         12    1    1    2    0    0  0.55112684427E+01 -0.92740305683E-01 -0.17896863771E+02  0.18726462919E+02  0.00000000000E+00 0. -1.
         11    1    3    3    0    0 -0.81118043513E+01  0.51204516291E+01 -0.11141500032E+02  0.14702156915E+02  0.51100000000E-03 0. -1.
        -11    1    3    3    0    0  0.36881172564E+01 -0.27254185957E+02  0.13648409044E+02  0.30702962899E+02  0.51100000000E-03 0.  1.
         12    1    3    3    0    0 -0.10875813478E+01  0.22226474633E+02  0.15389954760E+02  0.27056417267E+02  0.00000000000E+00 0. -1.
</event>
<event>
 7    1  0.3597718E-013  0.7246192E+02  0.7816164E-02  0.1226707E+00
        -11   -1    0    0    0    0  0.00000000000E+00  0.00000000000E+00  0.45593999997E+02  0.45594000000E+02  0.51100000000E-03 0.  1.
         11   -1    0    0    0    0 -0.00000000000E+00 -0.00000000000E+00 -0.45593999997E+02  0.45594000000E+02  0.51100000000E-03 0. -1.
    9900012    2    1    2    0    0 -0.31590663122E+01 -0.10205861632E+02  0.15379420568E+02  0.72461924901E+02  0.70000461939E+02 0.  0.
         12    1    1    2    0    0  0.31590663122E+01  0.10205861632E+02 -0.15379420568E+02  0.18726075099E+02  0.00000000000E+00 0. -1.
         11    1    3    3    0    0  0.66448404885E+01  0.66182019104E+01  0.52371888886E+01  0.10741631597E+02  0.51100000000E-03 0. -1.
        -11    1    3    3    0    0  0.13492782817E+02  0.42276453706E+01  0.23637522101E+02  0.27543794671E+02  0.51100000000E-03 0.  1.
        -12    1    3    3    0    0 -0.23296689618E+02 -0.21051708913E+02 -0.13495290422E+02  0.34176498634E+02  0.00000000000E+00 0.  1.
</event>
<event>
 7    1  0.3597718E-013  0.7246157E+02  0.7816164E-02  0.1226708E+00
        -11   -1    0    0    0    0  0.00000000000E+00  0.00000000000E+00  0.45593999997E+02  0.45594000000E+02  0.51100000000E-03 0.  1.
         11   -1    0    0    0    0 -0.00000000000E+00 -0.00000000000E+00 -0.45593999997E+02  0.45594000000E+02  0.51100000000E-03 0. -1.
    9900012    2    1    2    0    0  0.95886799777E+00  0.83108110102E+01  0.16753814482E+02  0.72461566619E+02  0.69999995212E+02 0.  0.
         12    1    1    2    0    0 -0.95886799777E+00 -0.83108110102E+01 -0.16753814482E+02  0.18726433381E+02  0.00000000000E+00 0. -1.
         11    1    3    3    0    0  0.14858607350E+02 -0.38095470595E+01  0.34133023587E+02  0.37421306239E+02  0.51100000000E-03 0. -1.
        -11    1    3    3    0    0 -0.11386502642E+02 -0.23621949964E+01  0.80654450377E+00  0.11656883028E+02  0.51100000000E-03 0.  1.
        -12    1    3    3    0    0 -0.25132367098E+01  0.14482553066E+02 -0.18185753609E+02  0.23383377353E+02  0.00000000000E+00 0.  1.
</event>
<event>
 7    1  0.3597718E-013  0.7246156E+02  0.7816164E-02  0.1226708E+00
        -11   -1    0    0    0    0  0.00000000000E+00  0.00000000000E+00  0.45593999997E+02  0.45594000000E+02  0.51100000000E-03 0. -1.
         11   -1    0    0    0    0 -0.00000000000E+00 -0.00000000000E+00 -0.45593999997E+02  0.45594000000E+02  0.51100000000E-03 0.  1.
    9900012    2    1    2    0    0 -0.18549270954E+02 -0.20406244682E+01  0.15619812148E+01  0.72461564502E+02  0.69999992454E+02 0.  0.
         12    1    1    2    0    0  0.18549270954E+02  0.20406244682E+01 -0.15619812148E+01  0.18726435498E+02  0.00000000000E+00 0. -1.
         11    1    3    3    0    0 -0.10089699590E+02 -0.85612468408E+01  0.10701536431E+02  0.17018221632E+02  0.51100000000E-03 0. -1.
        -11    1    3    3    0    0 -0.28472669755E+02 -0.22262337008E+01  0.55875094404E+01  0.29101018908E+02  0.51100000000E-03 0.  1.
        -12    1    3    3    0    0  0.20013098390E+02  0.87468560734E+01 -0.14727064656E+02  0.26342323962E+02  0.00000000000E+00 0.  1.
</event>
<event>
 7    1  0.3597718E-013  0.7246139E+02  0.7816164E-02  0.1226708E+00
        -11   -1    0    0    0    0  0.00000000000E+00  0.00000000000E+00  0.45593999997E+02  0.45594000000E+02  0.51100000000E-03 0. -1.
         11   -1    0    0    0    0 -0.00000000000E+00 -0.00000000000E+00 -0.45593999997E+02  0.45594000000E+02  0.51100000000E-03 0.  1.
    9900012    2    1    2    0    0 -0.68663911605E+01 -0.15065552588E+02 -0.87502971441E+01  0.72461390525E+02  0.69999765816E+02 0.  0.
         12    1    1    2    0    0  0.68663911605E+01  0.15065552588E+02  0.87502971441E+01  0.18726609475E+02  0.00000000000E+00 0. -1.
         11    1    3    3    0    0  0.11513062798E+02 -0.27684440427E+01  0.24651081692E+02  0.27347590868E+02  0.51100000000E-03 0. -1.
        -11    1    3    3    0    0  0.25945576971E+01 -0.28750842489E+01  0.74878145418E+00  0.39444280966E+01  0.51100000000E-03 0.  1.
        -12    1    3    3    0    0 -0.20974011656E+02 -0.94220242959E+01 -0.34150160291E+02  0.41169371560E+02  0.00000000000E+00 0.  1.
</event>
<event>
 7    1  0.3597718E-013  0.7246166E+02  0.7816164E-02  0.1226708E+00
        -11   -1    0    0    0    0  0.00000000000E+00  0.00000000000E+00  0.45593999997E+02  0.45594000000E+02  0.51100000000E-03 0.  1.
         11   -1    0    0    0    0 -0.00000000000E+00 -0.00000000000E+00 -0.45593999997E+02  0.45594000000E+02  0.51100000000E-03 0. -1.
    9900012    2    1    2    0    0  0.10338332678E+02  0.14755945184E+02 -0.51045677907E+01  0.72461664182E+02  0.70000122306E+02 0.  0.
         12    1    1    2    0    0 -0.10338332678E+02 -0.14755945184E+02  0.51045677907E+01  0.18726335818E+02  0.00000000000E+00 0. -1.
         11    1    3    3    0    0 -0.15965948187E+02 -0.13108878103E+02 -0.19964421710E+02  0.28728597618E+02  0.51100000000E-03 0.  1.
        -11    1    3    3    0    0  0.11424500291E+02  0.16511488111E+02  0.40164789346E+00  0.20082573735E+02  0.51100000000E-03 0. -1.
        -12    1    3    3    0    0  0.14879780574E+02  0.11353335176E+02  0.14458206026E+02  0.23650492829E+02  0.00000000000E+00 0.  1.
</event>
<event>
 7    1  0.3597718E-013  0.7246165E+02  0.7816164E-02  0.1226708E+00
        -11   -1    0    0    0    0  0.00000000000E+00  0.00000000000E+00  0.45593999997E+02  0.45594000000E+02  0.51100000000E-03 0. -1.
         11   -1    0    0    0    0 -0.00000000000E+00 -0.00000000000E+00 -0.45593999997E+02  0.45594000000E+02  0.51100000000E-03 0.  1.
    9900012    2    1    2    0    0  0.38106868544E+01 -0.18334444379E+02  0.55203685913E-01  0.72461648716E+02  0.70000102158E+02 0.  0.
         12    1    1    2    0    0 -0.38106868544E+01  0.18334444379E+02 -0.55203685913E-01  0.18726351284E+02  0.00000000000E+00 0. -1.
         11    1    3    3    0    0 -0.15114446986E+02  0.74534652454E+01 -0.88375318857E+01  0.19028994245E+02  0.51100000000E-03 0. -1.
        -11    1    3    3    0    0  0.20335361046E+02  0.53797839171E+01  0.70258242460E+01  0.22177267426E+02  0.51100000000E-03 0.  1.
         12    1    3    3    0    0 -0.14102272051E+01 -0.31167693541E+02  0.18669113256E+01  0.31255387045E+02  0.00000000000E+00 0. -1.
</event>
<event>
 7    1  0.3597718E-013  0.7246150E+02  0.7816164E-02  0.1226708E+00
        -11   -1    0    0    0    0  0.00000000000E+00  0.00000000000E+00  0.45593999997E+02  0.45594000000E+02  0.51100000000E-03 0.  1.
         11   -1    0    0    0    0 -0.00000000000E+00 -0.00000000000E+00 -0.45593999997E+02  0.45594000000E+02  0.51100000000E-03 0. -1.
    9900012    2    1    2    0    0  0.11321411834E+02 -0.69662767142E+00  0.14900410286E+02  0.72461497852E+02  0.69999905630E+02 0.  0.
         12    1    1    2    0    0 -0.11321411834E+02  0.69662767142E+00 -0.14900410286E+02  0.18726502148E+02  0.00000000000E+00 0. -1.
         11    1    3    3    0    0 -0.23245296572E+02 -0.85178330151E+01 -0.74378601831E+01  0.25849933392E+02  0.51100000000E-03 0. -1.
        -11    1    3    3    0    0  0.43749417142E+01 -0.42697622339E+01  0.10211378124E+02  0.11901396052E+02  0.51100000000E-03 0.  1.
        -12    1    3    3    0    0  0.30191766692E+02  0.12090967577E+02  0.12126892344E+02  0.34710168407E+02  0.00000000000E+00 0.  1.
</event>
<event>
 7    1  0.3597718E-013  0.7246154E+02  0.7816164E-02  0.1226708E+00
        -11   -1    0    0    0    0  0.00000000000E+00  0.00000000000E+00  0.45593999997E+02  0.45594000000E+02  0.51100000000E-03 0.  1.
         11   -1    0    0    0    0 -0.00000000000E+00 -0.00000000000E+00 -0.45593999997E+02  0.45594000000E+02  0.51100000000E-03 0. -1.
    9900012    2    1    2    0    0 -0.16029163942E+02  0.66995174754E+01 -0.69901789338E+01  0.72461541910E+02  0.69999963024E+02 0.  0.
         12    1    1    2    0    0  0.16029163942E+02 -0.66995174754E+01  0.69901789338E+01  0.18726458090E+02  0.00000000000E+00 0. -1.
         11    1    3    3    0    0 -0.34223982225E+02  0.14950078748E+02 -0.14212928762E+01  0.37373866372E+02  0.51100000000E-03 0. -1.
        -11    1    3    3    0    0 -0.76286301313E+01 -0.82751895969E+00 -0.23570090379E+01  0.80272210120E+01  0.51100000000E-03 0.  1.
        -12    1    3    3    0    0  0.25823448414E+02 -0.74230423126E+01 -0.32118770197E+01  0.27060454526E+02  0.00000000000E+00 0.  1.
</event>
<event>
 7    1  0.3597718E-013  0.7246154E+02  0.7816164E-02  0.1226708E+00
        -11   -1    0    0    0    0  0.00000000000E+00  0.00000000000E+00  0.45593999997E+02  0.45594000000E+02  0.51100000000E-03 0.  1.
         11   -1    0    0    0    0 -0.00000000000E+00 -0.00000000000E+00 -0.45593999997E+02  0.45594000000E+02  0.51100000000E-03 0. -1.
    9900012    2    1    2    0    0  0.63635018571E+01  0.10522590235E+02  0.14123068886E+02  0.72461544492E+02  0.69999966387E+02 0.  0.
         12    1    1    2    0    0 -0.63635018571E+01 -0.10522590235E+02 -0.14123068886E+02  0.18726455508E+02  0.00000000000E+00 0. -1.
         11    1    3    3    0    0 -0.44558080397E+01 -0.17279617210E+02  0.83378187657E+00  0.17864338462E+02  0.51100000000E-03 0. -1.
        -11    1    3    3    0    0  0.17159433866E+02  0.30487442650E+02 -0.47339608417E+01  0.35303551032E+02  0.51100000000E-03 0.  1.
         12    1    3    3    0    0 -0.63401239693E+01 -0.26852352052E+01  0.18023247852E+02  0.19293654998E+02  0.00000000000E+00 0. -1.
</event>
<event>
 7    1  0.3597718E-013  0.7246106E+02  0.7816164E-02  0.1226709E+00
        -11   -1    0    0    0    0  0.00000000000E+00  0.00000000000E+00  0.45593999997E+02  0.45594000000E+02  0.51100000000E-03 0.  1.
         11   -1    0    0    0    0 -0.00000000000E+00 -0.00000000000E+00 -0.45593999997E+02  0.45594000000E+02  0.51100000000E-03 0. -1.
    9900012    2    1    2    0    0 -0.44828584346E+01  0.12363349067E+02  0.13332285441E+02  0.72461060715E+02  0.69999336175E+02 0.  0.
         12    1    1    2    0    0  0.44828584346E+01 -0.12363349067E+02 -0.13332285441E+02  0.18726939285E+02  0.00000000000E+00 0. -1.
         11    1    3    3    0    0  0.17891612141E+02 -0.32066527289E+01 -0.47750499638E+01  0.18793443249E+02  0.51100000000E-03 0. -1.
        -11    1    3    3    0    0 -0.21312452965E+02 -0.78757009986E+00 -0.80523171777E+01  0.22796506975E+02  0.51100000000E-03 0.  1.
        -12    1    3    3    0    0 -0.10620176105E+01  0.16357571896E+02  0.26159652583E+02  0.30871110491E+02  0.00000000000E+00 0.  1.
</event>
<event>
 7    1  0.3597718E-013  0.7246159E+02  0.7816164E-02  0.1226708E+00
        -11   -1    0    0    0    0  0.00000000000E+00  0.00000000000E+00  0.45593999997E+02  0.45594000000E+02  0.51100000000E-03 0. -1.
         11   -1    0    0    0    0 -0.00000000000E+00 -0.00000000000E+00 -0.45593999997E+02  0.45594000000E+02  0.51100000000E-03 0.  1.
    9900012    2    1    2    0    0 -0.49110331427E+01  0.16665291940E+02 -0.69877168876E+01  0.72461591127E+02  0.70000027139E+02 0.  0.
         12    1    1    2    0    0  0.49110331427E+01 -0.16665291940E+02  0.69877168876E+01  0.18726408873E+02  0.00000000000E+00 0. -1.
         11    1    3    3    0    0 -0.20243314382E+02  0.22089975216E+02 -0.74407974204E+00  0.29971860755E+02  0.51100000000E-03 0. -1.
        -11    1    3    3    0    0  0.10438161336E+02  0.20197437031E+01 -0.21974444803E+02  0.24411284304E+02  0.51100000000E-03 0.  1.
         12    1    3    3    0    0  0.48941199032E+01 -0.74444269798E+01  0.15730807657E+02  0.18078446068E+02  0.00000000000E+00 0. -1.
</event>
<event>
 7    1  0.3597718E-013  0.7246148E+02  0.7816164E-02  0.1226708E+00
        -11   -1    0    0    0    0  0.00000000000E+00  0.00000000000E+00  0.45593999997E+02  0.45594000000E+02  0.51100000000E-03 0.  1.
         11   -1    0    0    0    0 -0.00000000000E+00 -0.00000000000E+00 -0.45593999997E+02  0.45594000000E+02  0.51100000000E-03 0. -1.
    9900012    2    1    2    0    0 -0.49505507073E+01  0.18041737264E+02 -0.81868262486E+00  0.72461481983E+02  0.69999884957E+02 0.  0.
         12    1    1    2    0    0  0.49505507073E+01 -0.18041737264E+02  0.81868262486E+00  0.18726518017E+02  0.00000000000E+00 0. -1.
         11    1    3    3    0    0 -0.42826304964E+01  0.11970879970E+02 -0.73265750905E+01  0.14673840467E+02  0.51100000000E-03 0. -1.
        -11    1    3    3    0    0  0.21615649549E+02 -0.65097989464E+01 -0.12598328574E+02  0.25852111536E+02  0.51100000000E-03 0.  1.
        -12    1    3    3    0    0 -0.22283569760E+02  0.12580656241E+02  0.19106221040E+02  0.31935529980E+02  0.00000000000E+00 0.  1.
</event>
<event>
 7    1  0.3597718E-013  0.7246120E+02  0.7816164E-02  0.1226709E+00
        -11   -1    0    0    0    0  0.00000000000E+00  0.00000000000E+00  0.45593999997E+02  0.45594000000E+02  0.51100000000E-03 0.  1.
         11   -1    0    0    0    0 -0.00000000000E+00 -0.00000000000E+00 -0.45593999997E+02  0.45594000000E+02  0.51100000000E-03 0. -1.
    9900012    2    1    2    0    0 -0.13689306863E+02  0.12753449161E+02  0.80333427558E+00  0.72461202787E+02  0.69999521252E+02 0.  0.
         12    1    1    2    0    0  0.13689306863E+02 -0.12753449161E+02 -0.80333427558E+00  0.18726797213E+02  0.00000000000E+00 0. -1.
         11    1    3    3    0    0 -0.53976577452E+01 -0.21839550787E+01  0.42038091049E+01  0.71816697342E+01  0.51100000000E-03 0. -1.
        -11    1    3    3    0    0 -0.89761946168E+01  0.37836594367E+02  0.79831399522E+01  0.39697738813E+02  0.51100000000E-03 0.  1.
         12    1    3    3    0    0  0.68454549901E+00 -0.22899190127E+02 -0.11383614782E+02  0.25581794240E+02  0.00000000000E+00 0. -1.
</event>
<event>
 7    1  0.3597718E-013  0.7246156E+02  0.7816164E-02  0.1226708E+00
        -11   -1    0    0    0    0  0.00000000000E+00  0.00000000000E+00  0.45593999997E+02  0.45594000000E+02  0.51100000000E-03 0. -1.
         11   -1    0    0    0    0 -0.00000000000E+00 -0.00000000000E+00 -0.45593999997E+02  0.45594000000E+02  0.51100000000E-03 0.  1.
    9900012    2    1    2    0    0 -0.77000726353E+01  0.15964466870E+02 -0.60435417695E+01  0.72461555646E+02  0.69999980917E+02 0.  0.
         12    1    1    2    0    0  0.77000726353E+01 -0.15964466870E+02  0.60435417695E+01  0.18726444354E+02  0.00000000000E+00 0. -1.
         11    1    3    3    0    0 -0.14176730071E+02 -0.29526347862E+01 -0.14123588427E+02  0.20228036929E+02  0.51100000000E-03 0. -1.
        -11    1    3    3    0    0 -0.18896278473E+02  0.18174118048E+02  0.43990938919E+01  0.26584204602E+02  0.51100000000E-03 0.  1.
        -12    1    3    3    0    0  0.25372935909E+02  0.74298360800E+00  0.36809527655E+01  0.25649314115E+02  0.00000000000E+00 0.  1.
</event>
<event>
 7    1  0.3597718E-013  0.7246158E+02  0.7816164E-02  0.1226708E+00
        -11   -1    0    0    0    0  0.00000000000E+00  0.00000000000E+00  0.45593999997E+02  0.45594000000E+02  0.51100000000E-03 0.  1.
         11   -1    0    0    0    0 -0.00000000000E+00 -0.00000000000E+00 -0.45593999997E+02  0.45594000000E+02  0.51100000000E-03 0. -1.
    9900012    2    1    2    0    0  0.10819412141E+00 -0.14096145905E+02  0.12327438876E+02  0.72461580573E+02  0.70000013389E+02 0.  0.
         12    1    1    2    0    0 -0.10819412141E+00  0.14096145905E+02 -0.12327438876E+02  0.18726419427E+02  0.00000000000E+00 0. -1.
         11    1    3    3    0    0  0.70445770715E+01  0.20507166365E+02 -0.93971452845E+01  0.23632102703E+02  0.51100000000E-03 0. -1.
        -11    1    3    3    0    0  0.26772040079E+01 -0.17368468909E+02 -0.23167826836E+01  0.17725648530E+02  0.51100000000E-03 0.  1.
        -12    1    3    3    0    0 -0.96135869581E+01 -0.17234843361E+02  0.24041366844E+02  0.31103829340E+02  0.00000000000E+00 0.  1.
</event>
<event>
 7    1  0.3597718E-013  0.7246155E+02  0.7816164E-02  0.1226708E+00
        -11   -1    0    0    0    0  0.00000000000E+00  0.00000000000E+00  0.45593999997E+02  0.45594000000E+02  0.51100000000E-03 0. -1.
         11   -1    0    0    0    0 -0.00000000000E+00 -0.00000000000E+00 -0.45593999997E+02  0.45594000000E+02  0.51100000000E-03 0.  1.
    9900012    2    1    2    0    0 -0.10337181434E+02  0.14716029526E+02 -0.52212269498E+01  0.72461546629E+02  0.69999969171E+02 0.  0.
         12    1    1    2    0    0  0.10337181434E+02 -0.14716029526E+02  0.52212269498E+01  0.18726453371E+02  0.00000000000E+00 0. -1.
         11    1    3    3    0    0  0.13750280905E+02 -0.10576041429E+02  0.39360426509E+01  0.17788066485E+02  0.51100000000E-03 0. -1.
        -11    1    3    3    0    0 -0.21241579748E+00  0.22947303721E+02 -0.17937872045E+02  0.29127154381E+02  0.51100000000E-03 0.  1.
         12    1    3    3    0    0 -0.23875046541E+02  0.23447672333E+01  0.87806024442E+01  0.25546325763E+02  0.00000000000E+00 0. -1.
</event>
<event>
 7    1  0.3597718E-013  0.7246117E+02  0.7816164E-02  0.1226709E+00
        -11   -1    0    0    0    0  0.00000000000E+00  0.00000000000E+00  0.45593999997E+02  0.45594000000E+02  0.51100000000E-03 0. -1.
         11   -1    0    0    0    0 -0.00000000000E+00 -0.00000000000E+00 -0.45593999997E+02  0.45594000000E+02  0.51100000000E-03 0.  1.
    9900012    2    1    2    0    0 -0.14798551191E+02 -0.27805505693E+01  0.11133987015E+02  0.72461167762E+02  0.69999475625E+02 0.  0.
         12    1    1    2    0    0  0.14798551191E+02  0.27805505693E+01 -0.11133987015E+02  0.18726832238E+02  0.00000000000E+00 0. -1.
         11    1    3    3    0    0  0.91979453483E+01 -0.82065696324E+01  0.26656282483E+02  0.29368475953E+02  0.51100000000E-03 0. -1.
        -11    1    3    3    0    0  0.10005391991E+01  0.72056511971E+00  0.82114819523E+01  0.83035371315E+01  0.51100000000E-03 0.  1.
        -12    1    3    3    0    0 -0.24997035739E+02  0.47054539434E+01 -0.23733777420E+02  0.34789154677E+02  0.00000000000E+00 0.  1.
</event>
<event>
 7    1  0.3597718E-013  0.7246156E+02  0.7816164E-02  0.1226708E+00
        -11   -1    0    0    0    0  0.00000000000E+00  0.00000000000E+00  0.45593999997E+02  0.45594000000E+02  0.51100000000E-03 0.  1.
         11   -1    0    0    0    0 -0.00000000000E+00 -0.00000000000E+00 -0.45593999997E+02  0.45594000000E+02  0.51100000000E-03 0. -1.
    9900012    2    1    2    0    0  0.14142557263E+02 -0.12258001151E+02  0.63947584949E+00  0.72461562872E+02  0.69999990332E+02 0.  0.
         12    1    1    2    0    0 -0.14142557263E+02  0.12258001151E+02 -0.63947584949E+00  0.18726437128E+02  0.00000000000E+00 0. -1.
         11    1    3    3    0    0 -0.45196126060E+01  0.39663231145E+01  0.31717800694E+01  0.67984414557E+01  0.51100000000E-03 0. -1.
        -11    1    3    3    0    0  0.39384258809E+02 -0.84344148932E+01  0.81327387305E+01  0.41090152544E+02  0.51100000000E-03 0.  1.
         12    1    3    3    0    0 -0.20722088941E+02 -0.77899093719E+01 -0.10665042950E+02  0.24572968873E+02  0.00000000000E+00 0. -1.
</event>
<event>
 7    1  0.3597718E-013  0.7246157E+02  0.7816164E-02  0.1226708E+00
        -11   -1    0    0    0    0  0.00000000000E+00  0.00000000000E+00  0.45593999997E+02  0.45594000000E+02  0.51100000000E-03 0. -1.
         11   -1    0    0    0    0 -0.00000000000E+00 -0.00000000000E+00 -0.45593999997E+02  0.45594000000E+02  0.51100000000E-03 0.  1.
    9900012    2    1    2    0    0 -0.83173077508E+01  0.56660038191E+01 -0.15792340127E+02  0.72461569102E+02  0.69999998446E+02 0.  0.
         12    1    1    2    0    0  0.83173077508E+01 -0.56660038191E+01  0.15792340127E+02  0.18726430898E+02  0.00000000000E+00 0. -1.
         11    1    3    3    0    0  0.85686632357E+01  0.89601752442E+01 -0.41391729115E+01  0.13070557857E+02  0.51100000000E-03 0. -1.
        -11    1    3    3    0    0  0.94973920811E+01  0.96925903006E+00 -0.26954421371E+02  0.28595117610E+02  0.51100000000E-03 0.  1.
         12    1    3    3    0    0 -0.26383363068E+02 -0.42634304552E+01  0.15301254155E+02  0.30795893634E+02  0.00000000000E+00 0. -1.
</event>
<event>
 7    1  0.3597718E-013  0.7246159E+02  0.7816164E-02  0.1226708E+00
        -11   -1    0    0    0    0  0.00000000000E+00  0.00000000000E+00  0.45593999997E+02  0.45594000000E+02  0.51100000000E-03 0. -1.
         11   -1    0    0    0    0 -0.00000000000E+00 -0.00000000000E+00 -0.45593999997E+02  0.45594000000E+02  0.51100000000E-03 0.  1.
    9900012    2    1    2    0    0 -0.72932958005E+01 -0.99531630362E+00 -0.17219050459E+02  0.72461587720E+02  0.70000022700E+02 0.  0.
         12    1    1    2    0    0  0.72932958005E+01  0.99531630362E+00  0.17219050459E+02  0.18726412280E+02  0.00000000000E+00 0. -1.
         11    1    3    3    0    0  0.12239122152E+01 -0.15095381520E+02 -0.24280030751E+02  0.28616226129E+02  0.51100000000E-03 0. -1.
        -11    1    3    3    0    0  0.31517990691E+00  0.23113469101E+01 -0.16170244536E+02  0.16337639717E+02  0.51100000000E-03 0.  1.
         12    1    3    3    0    0 -0.88323879227E+01  0.11788718306E+02  0.23231224828E+02  0.27507721874E+02  0.00000000000E+00 0. -1.
</event>
<event>
 7    1  0.4296964E-013  0.7246159E+02  0.7816164E-02  0.1226708E+00
        -11   -1    0    0    0    0  0.00000000000E+00  0.00000000000E+00  0.45593999997E+02  0.45594000000E+02  0.51100000000E-03 0.  1.
         11   -1    0    0    0    0 -0.00000000000E+00 -0.00000000000E+00 -0.45593999997E+02  0.45594000000E+02  0.51100000000E-03 0. -1.
    9900012    2    1    2    0    0  0.11284008490E+02 -0.13427594934E+02  0.65611902240E+01  0.72461591629E+02  0.70000027793E+02 0.  0.
         12    1    1    2    0    0 -0.11284008490E+02  0.13427594934E+02 -0.65611902240E+01  0.18726408371E+02  0.00000000000E+00 0. -1.
         11    1    3    3    0    0 -0.39612330078E+00  0.18157502104E+00  0.59589704451E+01  0.59748817716E+01  0.51100000000E-03 0. -1.
        -11    1    3    3    0    0  0.13751301367E+02 -0.17124241218E+02  0.29792561210E+02  0.37012627984E+02  0.51100000000E-03 0.  1.
         12    1    3    3    0    0 -0.20711695764E+01  0.35150712627E+01 -0.29190341431E+02  0.29474081873E+02  0.00000000000E+00 0. -1.
</event>
<event>
 7    1  0.3597718E-013  0.7246139E+02  0.7816164E-02  0.1226709E+00
        -11   -1    0    0    0    0  0.00000000000E+00  0.00000000000E+00  0.45593999997E+02  0.45594000000E+02  0.51100000000E-03 0. -1.
         11   -1    0    0    0    0 -0.00000000000E+00 -0.00000000000E+00 -0.45593999997E+02  0.45594000000E+02  0.51100000000E-03 0.  1.
    9900012    2    1    2    0    0  0.34869760000E+01  0.17658605397E+01 -0.18314169171E+02  0.72461386385E+02  0.69999760423E+02 0.  0.
         12    1    1    2    0    0 -0.34869760000E+01 -0.17658605397E+01  0.18314169171E+02  0.18726613615E+02  0.00000000000E+00 0. -1.
         11    1    3    3    0    0 -0.30076857764E+01  0.64608362271E+01  0.46158672002E+01  0.84908661957E+01  0.51100000000E-03 0. -1.
        -11    1    3    3    0    0 -0.35966183623E+01  0.24344072007E+02 -0.22318809569E+02  0.33221962109E+02  0.51100000000E-03 0.  1.
         12    1    3    3    0    0  0.10091280139E+02 -0.29039047694E+02 -0.61122680220E+00  0.30748558080E+02  0.00000000000E+00 0. -1.
</event>
<event>
 7    1  0.3597718E-013  0.7246153E+02  0.7816164E-02  0.1226708E+00
        -11   -1    0    0    0    0  0.00000000000E+00  0.00000000000E+00  0.45593999997E+02  0.45594000000E+02  0.51100000000E-03 0. -1.
         11   -1    0    0    0    0 -0.00000000000E+00 -0.00000000000E+00 -0.45593999997E+02  0.45594000000E+02  0.51100000000E-03 0.  1.
    9900012    2    1    2    0    0  0.49904157835E+01 -0.12622072144E+02 -0.12901921842E+02  0.72461533645E+02  0.69999952258E+02 0.  0.
         12    1    1    2    0    0 -0.49904157835E+01  0.12622072144E+02  0.12901921842E+02  0.18726466355E+02  0.00000000000E+00 0. -1.
         11    1    3    3    0    0 -0.28235924528E+01  0.10650906659E+02  0.12325295169E+02  0.16532615893E+02  0.51100000000E-03 0. -1.
        -11    1    3    3    0    0  0.24037372011E+02 -0.36129334530E+01 -0.10383411096E+02  0.26432248629E+02  0.51100000000E-03 0.  1.
         12    1    3    3    0    0 -0.16223363775E+02 -0.19660045350E+02 -0.14843805915E+02  0.29496669124E+02  0.00000000000E+00 0. -1.
</event>
<event>
 7    1  0.3597718E-013  0.7246154E+02  0.7816164E-02  0.1226708E+00
        -11   -1    0    0    0    0  0.00000000000E+00  0.00000000000E+00  0.45593999997E+02  0.45594000000E+02  0.51100000000E-03 0. -1.
         11   -1    0    0    0    0 -0.00000000000E+00 -0.00000000000E+00 -0.45593999997E+02  0.45594000000E+02  0.51100000000E-03 0.  1.
    9900012    2    1    2    0    0  0.17781382046E+02 -0.29477093234E+01  0.50807168448E+01  0.72461542209E+02  0.69999963414E+02 0.  0.
         12    1    1    2    0    0 -0.17781382046E+02  0.29477093234E+01 -0.50807168448E+01  0.18726457791E+02  0.00000000000E+00 0. -1.
         11    1    3    3    0    0  0.97515151478E+01  0.36348390103E+01  0.11291841787E+02  0.15356099554E+02  0.51100000000E-03 0. -1.
        -11    1    3    3    0    0  0.13192988078E+02  0.16903351475E+02  0.14071272390E+02  0.25647201260E+02  0.51100000000E-03 0.  1.
        -12    1    3    3    0    0 -0.51631211794E+01 -0.23485899809E+02 -0.20282397332E+02  0.31458241396E+02  0.00000000000E+00 0.  1.
</event>
<event>
 7    1  0.3597718E-013  0.7246159E+02  0.7816164E-02  0.1226708E+00
        -11   -1    0    0    0    0  0.00000000000E+00  0.00000000000E+00  0.45593999997E+02  0.45594000000E+02  0.51100000000E-03 0.  1.
         11   -1    0    0    0    0 -0.00000000000E+00 -0.00000000000E+00 -0.45593999997E+02  0.45594000000E+02  0.51100000000E-03 0. -1.
    9900012    2    1    2    0    0  0.14420306544E+01 -0.18631187872E+02 -0.12156376595E+01  0.72461591138E+02  0.70000027153E+02 0.  0.
         12    1    1    2    0    0 -0.14420306544E+01  0.18631187872E+02  0.12156376595E+01  0.18726408862E+02  0.00000000000E+00 0. -1.
         11    1    3    3    0    0 -0.50658373136E+01  0.87556243285E+00  0.16943038685E+01  0.54129458820E+01  0.51100000000E-03 0. -1.
        -11    1    3    3    0    0 -0.11031738975E+02 -0.36722692898E+02  0.95188086281E+01  0.39507760711E+02  0.51100000000E-03 0.  1.
         12    1    3    3    0    0  0.17539606943E+02  0.17215942593E+02 -0.12428750156E+02  0.27540884545E+02  0.00000000000E+00 0. -1.
</event>
<event>
 7    1  0.3597718E-013  0.7246159E+02  0.7816164E-02  0.1226708E+00
        -11   -1    0    0    0    0  0.00000000000E+00  0.00000000000E+00  0.45593999997E+02  0.45594000000E+02  0.51100000000E-03 0.  1.
         11   -1    0    0    0    0 -0.00000000000E+00 -0.00000000000E+00 -0.45593999997E+02  0.45594000000E+02  0.51100000000E-03 0. -1.
    9900012    2    1    2    0    0 -0.15450938600E+02  0.66318707524E+01  0.82440937137E+01  0.72461593659E+02  0.70000030437E+02 0.  0.
         12    1    1    2    0    0  0.15450938600E+02 -0.66318707524E+01 -0.82440937137E+01  0.18726406341E+02  0.00000000000E+00 0. -1.
         11    1    3    3    0    0 -0.10523275663E+02 -0.90764811389E+01  0.12026616412E+00  0.13897348839E+02  0.51100000000E-03 0. -1.
        -11    1    3    3    0    0 -0.10583214950E+02 -0.19205131386E+02  0.75485260431E+01  0.23190984368E+02  0.51100000000E-03 0.  1.
        -12    1    3    3    0    0  0.56555520140E+01  0.34913483278E+02  0.57530150653E+00  0.35373260452E+02  0.00000000000E+00 0.  1.
</event>
<event>
 7    1  0.3597718E-013  0.7246156E+02  0.7816164E-02  0.1226708E+00
        -11   -1    0    0    0    0  0.00000000000E+00  0.00000000000E+00  0.45593999997E+02  0.45594000000E+02  0.51100000000E-03 0.  1.
         11   -1    0    0    0    0 -0.00000000000E+00 -0.00000000000E+00 -0.45593999997E+02  0.45594000000E+02  0.51100000000E-03 0. -1.
    9900012    2    1    2    0    0  0.64139382471E+01  0.49981323474E+01  0.16868895311E+02  0.72461559874E+02  0.69999986425E+02 0.  0.
         12    1    1    2    0    0 -0.64139382471E+01 -0.49981323474E+01 -0.16868895311E+02  0.18726440126E+02  0.00000000000E+00 0. -1.
         11    1    3    3    0    0  0.17566587264E+02 -0.48312046900E+01 -0.17944123890E+01  0.18306977985E+02  0.51100000000E-03 0. -1.
        -11    1    3    3    0    0  0.15113319643E+01  0.25128316053E+02 -0.22984799552E+01  0.25278437497E+02  0.51100000000E-03 0.  1.
         12    1    3    3    0    0 -0.12663980982E+02 -0.15298979015E+02  0.20961787655E+02  0.28876144391E+02  0.00000000000E+00 0. -1.
</event>
<event>
 7    1  0.3597718E-013  0.7246157E+02  0.7816164E-02  0.1226708E+00
        -11   -1    0    0    0    0  0.00000000000E+00  0.00000000000E+00  0.45593999997E+02  0.45594000000E+02  0.51100000000E-03 0. -1.
         11   -1    0    0    0    0 -0.00000000000E+00 -0.00000000000E+00 -0.45593999997E+02  0.45594000000E+02  0.51100000000E-03 0.  1.
    9900012    2    1    2    0    0 -0.11847189668E+02 -0.13868256442E+02 -0.42420136023E+01  0.72461571638E+02  0.70000001751E+02 0.  0.
         12    1    1    2    0    0  0.11847189668E+02  0.13868256442E+02  0.42420136023E+01  0.18726428362E+02  0.00000000000E+00 0. -1.
         11    1    3    3    0    0 -0.85121117632E+00  0.73578070254E+01  0.52339284861E+01  0.90695034235E+01  0.51100000000E-03 0. -1.
        -11    1    3    3    0    0 -0.40974193714E+01  0.19610098210E+02  0.27235783539E+01  0.20217880122E+02  0.51100000000E-03 0.  1.
         12    1    3    3    0    0 -0.68985591207E+01 -0.40836161677E+02 -0.12199520442E+02  0.43174188093E+02  0.00000000000E+00 0. -1.
</event>
<event>
 7    1  0.3597718E-013  0.7246156E+02  0.7816164E-02  0.1226708E+00
        -11   -1    0    0    0    0  0.00000000000E+00  0.00000000000E+00  0.45593999997E+02  0.45594000000E+02  0.51100000000E-03 0.  1.
         11   -1    0    0    0    0 -0.00000000000E+00 -0.00000000000E+00 -0.45593999997E+02  0.45594000000E+02  0.51100000000E-03 0. -1.
    9900012    2    1    2    0    0  0.34168146181E+01 -0.17925408907E+02  0.42053124367E+01  0.72461559887E+02  0.69999986443E+02 0.  0.
         12    1    1    2    0    0 -0.34168146181E+01  0.17925408907E+02 -0.42053124367E+01  0.18726440113E+02  0.00000000000E+00 0. -1.
         11    1    3    3    0    0  0.45285198296E+01 -0.86622447242E+01  0.39645071751E+01  0.10547952072E+02  0.51100000000E-03 0. -1.
        -11    1    3    3    0    0 -0.79443266588E+01 -0.27989927236E+02 -0.18560686940E+02  0.34511555350E+02  0.51100000000E-03 0.  1.
         12    1    3    3    0    0  0.68326214473E+01  0.18726763053E+02  0.18801492202E+02  0.27402052465E+02  0.00000000000E+00 0. -1.
</event>
<event>
 7    1  0.3597718E-013  0.7246160E+02  0.7816164E-02  0.1226708E+00
        -11   -1    0    0    0    0  0.00000000000E+00  0.00000000000E+00  0.45593999997E+02  0.45594000000E+02  0.51100000000E-03 0.  1.
         11   -1    0    0    0    0 -0.00000000000E+00 -0.00000000000E+00 -0.45593999997E+02  0.45594000000E+02  0.51100000000E-03 0. -1.
    9900012    2    1    2    0    0 -0.11628501153E+02  0.41429450150E+01  0.14081623735E+02  0.72461597263E+02  0.70000035131E+02 0.  0.
         12    1    1    2    0    0  0.11628501153E+02 -0.41429450150E+01 -0.14081623735E+02  0.18726402737E+02  0.00000000000E+00 0. -1.
         11    1    3    3    0    0 -0.21365421815E+02 -0.22082801860E+01  0.93468042482E+01  0.23424783897E+02  0.51100000000E-03 0. -1.
        -11    1    3    3    0    0 -0.10388916517E+02 -0.46975405927E+01  0.18890384097E+02  0.22064520969E+02  0.51100000000E-03 0.  1.
         12    1    3    3    0    0  0.20125837178E+02  0.11048765794E+02 -0.14155564610E+02  0.26972292397E+02  0.00000000000E+00 0. -1.
</event>
<event>
 7    1  0.3597718E-013  0.7246157E+02  0.7816164E-02  0.1226708E+00
        -11   -1    0    0    0    0  0.00000000000E+00  0.00000000000E+00  0.45593999997E+02  0.45594000000E+02  0.51100000000E-03 0. -1.
         11   -1    0    0    0    0 -0.00000000000E+00 -0.00000000000E+00 -0.45593999997E+02  0.45594000000E+02  0.51100000000E-03 0.  1.
    9900012    2    1    2    0    0  0.16333912675E+01 -0.69733318786E+01 -0.17302707944E+02  0.72461574107E+02  0.70000004967E+02 0.  0.
         12    1    1    2    0    0 -0.16333912675E+01  0.69733318786E+01  0.17302707944E+02  0.18726425893E+02  0.00000000000E+00 0. -1.
         11    1    3    3    0    0  0.12442235501E+02 -0.53663210728E+01 -0.12394871517E+02  0.18364080873E+02  0.51100000000E-03 0. -1.
        -11    1    3    3    0    0 -0.13224226190E+02  0.24113837331E+02  0.12836887528E+01  0.27531893619E+02  0.51100000000E-03 0.  1.
         12    1    3    3    0    0  0.24153819566E+01 -0.25720848137E+02 -0.61915251804E+01  0.26565599616E+02  0.00000000000E+00 0. -1.
</event>
<event>
 7    1  0.4591473E-013  0.7246161E+02  0.7816164E-02  0.1226708E+00
        -11   -1    0    0    0    0  0.00000000000E+00  0.00000000000E+00  0.45593999997E+02  0.45594000000E+02  0.51100000000E-03 0. -1.
         11   -1    0    0    0    0 -0.00000000000E+00 -0.00000000000E+00 -0.45593999997E+02  0.45594000000E+02  0.51100000000E-03 0.  1.
    9900012    2    1    2    0    0 -0.46084087134E+01 -0.16594969493E+02 -0.73516946357E+01  0.72461605329E+02  0.70000045640E+02 0.  0.
         12    1    1    2    0    0  0.46084087134E+01  0.16594969493E+02  0.73516946357E+01  0.18726394671E+02  0.00000000000E+00 0. -1.
         11    1    3    3    0    0  0.16248062943E+02 -0.11894104927E+02  0.42893306469E+01  0.20588046024E+02  0.51100000000E-03 0. -1.
        -11    1    3    3    0    0 -0.10795020341E+02 -0.17921555348E+02 -0.23498293192E+02  0.31462428283E+02  0.51100000000E-03 0.  1.
         12    1    3    3    0    0 -0.10061451316E+02  0.13220690782E+02  0.11857267909E+02  0.20411131022E+02  0.00000000000E+00 0. -1.
</event>
<event>
 7    1  0.3597718E-013  0.7246148E+02  0.7816164E-02  0.1226708E+00
        -11   -1    0    0    0    0  0.00000000000E+00  0.00000000000E+00  0.45593999997E+02  0.45594000000E+02  0.51100000000E-03 0.  1.
         11   -1    0    0    0    0 -0.00000000000E+00 -0.00000000000E+00 -0.45593999997E+02  0.45594000000E+02  0.51100000000E-03 0. -1.
    9900012    2    1    2    0    0  0.19347734321E+01  0.13173698850E+02  0.13167879200E+02  0.72461475169E+02  0.69999876081E+02 0.  0.
         12    1    1    2    0    0 -0.19347734321E+01 -0.13173698850E+02 -0.13167879200E+02  0.18726524831E+02  0.00000000000E+00 0. -1.
         11    1    3    3    0    0  0.40306790290E+01 -0.91604046706E+01 -0.10825516906E+02  0.14742835674E+02  0.51100000000E-03 0. -1.
        -11    1    3    3    0    0  0.16588982619E+02 -0.62581839988E+01  0.41234877866E+01  0.18203361312E+02  0.51100000000E-03 0.  1.
         12    1    3    3    0    0 -0.18684888215E+02  0.28592287519E+02  0.19869908320E+02  0.39515278183E+02  0.00000000000E+00 0. -1.
</event>
<event>
 7    1  0.3597718E-013  0.7246156E+02  0.7816164E-02  0.1226708E+00
        -11   -1    0    0    0    0  0.00000000000E+00  0.00000000000E+00  0.45593999997E+02  0.45594000000E+02  0.51100000000E-03 0. -1.
         11   -1    0    0    0    0 -0.00000000000E+00 -0.00000000000E+00 -0.45593999997E+02  0.45594000000E+02  0.51100000000E-03 0.  1.
    9900012    2    1    2    0    0 -0.29628006866E+01  0.11992414074E+02 -0.14074210456E+02  0.72461559249E+02  0.69999985611E+02 0.  0.
         12    1    1    2    0    0  0.29628006866E+01 -0.11992414074E+02  0.14074210456E+02  0.18726440751E+02  0.00000000000E+00 0. -1.
         11    1    3    3    0    0  0.19553271430E+01 -0.14471196600E+01  0.21635593991E+02  0.21771917397E+02  0.51100000000E-03 0. -1.
        -11    1    3    3    0    0 -0.18555966237E+01  0.21304652351E+02 -0.99583461350E+01  0.23590254527E+02  0.51100000000E-03 0.  1.
        -12    1    3    3    0    0 -0.30625312059E+01 -0.78651186165E+01 -0.25751458312E+02  0.27099387326E+02  0.00000000000E+00 0.  1.
</event>
<event>
 7    1  0.3597718E-013  0.7246157E+02  0.7816164E-02  0.1226708E+00
        -11   -1    0    0    0    0  0.00000000000E+00  0.00000000000E+00  0.45593999997E+02  0.45594000000E+02  0.51100000000E-03 0. -1.
         11   -1    0    0    0    0 -0.00000000000E+00 -0.00000000000E+00 -0.45593999997E+02  0.45594000000E+02  0.51100000000E-03 0.  1.
    9900012    2    1    2    0    0 -0.16734949728E+02 -0.61733705469E+01 -0.57017663054E+01  0.72461569873E+02  0.69999999451E+02 0.  0.
         12    1    1    2    0    0  0.16734949728E+02  0.61733705469E+01  0.57017663054E+01  0.18726430127E+02  0.00000000000E+00 0. -1.
         11    1    3    3    0    0 -0.24676274902E+01 -0.90895214349E+01 -0.11434507363E+02  0.14814065757E+02  0.51100000000E-03 0. -1.
        -11    1    3    3    0    0 -0.13199229779E+01 -0.13985889992E+02 -0.19878964511E+02  0.24341744921E+02  0.51100000000E-03 0.  1.
         12    1    3    3    0    0 -0.12947399260E+02  0.16902040880E+02  0.25611705568E+02  0.33305759195E+02  0.00000000000E+00 0. -1.
</event>
<event>
 7    1  0.3597718E-013  0.7246156E+02  0.7816164E-02  0.1226708E+00
        -11   -1    0    0    0    0  0.00000000000E+00  0.00000000000E+00  0.45593999997E+02  0.45594000000E+02  0.51100000000E-03 0. -1.
         11   -1    0    0    0    0 -0.00000000000E+00 -0.00000000000E+00 -0.45593999997E+02  0.45594000000E+02  0.51100000000E-03 0.  1.
    9900012    2    1    2    0    0  0.11460053673E+02  0.73133586373E+01 -0.12878717561E+02  0.72461563853E+02  0.69999991609E+02 0.  0.
         12    1    1    2    0    0 -0.11460053673E+02 -0.73133586373E+01  0.12878717561E+02  0.18726436147E+02  0.00000000000E+00 0. -1.
         11    1    3    3    0    0 -0.14038139724E+02  0.20314498537E+02 -0.72614747264E+01  0.25738633087E+02  0.51100000000E-03 0. -1.
        -11    1    3    3    0    0 -0.63695769263E+01 -0.66499153086E+01  0.73042890548E+01  0.11753532349E+02  0.51100000000E-03 0.  1.
         12    1    3    3    0    0  0.31867770324E+02 -0.63512245915E+01 -0.12921531889E+02  0.34969398416E+02  0.00000000000E+00 0. -1.
</event>
<event>
 7    1  0.3601306E-013  0.7246159E+02  0.7816164E-02  0.1226708E+00
        -11   -1    0    0    0    0  0.00000000000E+00  0.00000000000E+00  0.45593999997E+02  0.45594000000E+02  0.51100000000E-03 0. -1.
         11   -1    0    0    0    0 -0.00000000000E+00 -0.00000000000E+00 -0.45593999997E+02  0.45594000000E+02  0.51100000000E-03 0.  1.
    9900012    2    1    2    0    0  0.14802681648E+02  0.84019778094E+01 -0.78080581940E+01  0.72461591166E+02  0.70000027189E+02 0.  0.
         12    1    1    2    0    0 -0.14802681648E+02 -0.84019778094E+01  0.78080581940E+01  0.18726408834E+02  0.00000000000E+00 0. -1.
         11    1    3    3    0    0  0.22326964590E+01  0.92017942983E+01 -0.47664139546E+01  0.10600785539E+02  0.51100000000E-03 0. -1.
        -11    1    3    3    0    0  0.17369289095E+02 -0.12185289391E+01 -0.29885621801E+02  0.34587966218E+02  0.51100000000E-03 0.  1.
         12    1    3    3    0    0 -0.47993039062E+01  0.41871245028E+00  0.26843977561E+02  0.27272839409E+02  0.00000000000E+00 0. -1.
</event>
<event>
 7    1  0.3597718E-013  0.7246159E+02  0.7816164E-02  0.1226708E+00
        -11   -1    0    0    0    0  0.00000000000E+00  0.00000000000E+00  0.45593999997E+02  0.45594000000E+02  0.51100000000E-03 0. -1.
         11   -1    0    0    0    0 -0.00000000000E+00 -0.00000000000E+00 -0.45593999997E+02  0.45594000000E+02  0.51100000000E-03 0.  1.
    9900012    2    1    2    0    0  0.99999525672E+01  0.12605015656E+02 -0.95808560103E+01  0.72461594234E+02  0.70000031186E+02 0.  0.
         12    1    1    2    0    0 -0.99999525672E+01 -0.12605015656E+02  0.95808560103E+01  0.18726405766E+02  0.00000000000E+00 0. -1.
         11    1    3    3    0    0 -0.10089300639E+01  0.10729094761E+01 -0.15728777308E+01  0.21547666312E+01  0.51100000000E-03 0. -1.
        -11    1    3    3    0    0 -0.27824163719E+02  0.30329870603E+01  0.50987443218E+01  0.28449609683E+02  0.51100000000E-03 0.  1.
         12    1    3    3    0    0  0.38833046350E+02  0.84991191193E+01 -0.13106722601E+02  0.41857217920E+02  0.00000000000E+00 0. -1.
</event>
<event>
 7    1  0.3597718E-013  0.7246148E+02  0.7816164E-02  0.1226708E+00
        -11   -1    0    0    0    0  0.00000000000E+00  0.00000000000E+00  0.45593999997E+02  0.45594000000E+02  0.51100000000E-03 0.  1.
         11   -1    0    0    0    0 -0.00000000000E+00 -0.00000000000E+00 -0.45593999997E+02  0.45594000000E+02  0.51100000000E-03 0. -1.
    9900012    2    1    2    0    0 -0.93318134367E+01 -0.10954142298E+02  0.11983597927E+02  0.72461478839E+02  0.69999880863E+02 0.  0.
         12    1    1    2    0    0  0.93318134367E+01  0.10954142298E+02 -0.11983597927E+02  0.18726521161E+02  0.00000000000E+00 0. -1.
         11    1    3    3    0    0  0.10886234452E+02 -0.17617245974E+01 -0.54358346039E+01  0.12294798584E+02  0.51100000000E-03 0. -1.
        -11    1    3    3    0    0  0.18069194745E+00 -0.11927787940E+02  0.32520617871E+02  0.34639505795E+02  0.51100000000E-03 0.  1.
        -12    1    3    3    0    0 -0.20398739836E+02  0.27353702397E+01 -0.15101185340E+02  0.25527174461E+02  0.00000000000E+00 0.  1.
</event>
<event>
 7    1  0.3597718E-013  0.7246156E+02  0.7816164E-02  0.1226708E+00
        -11   -1    0    0    0    0  0.00000000000E+00  0.00000000000E+00  0.45593999997E+02  0.45594000000E+02  0.51100000000E-03 0. -1.
         11   -1    0    0    0    0 -0.00000000000E+00 -0.00000000000E+00 -0.45593999997E+02  0.45594000000E+02  0.51100000000E-03 0.  1.
    9900012    2    1    2    0    0 -0.13215920960E+02 -0.13027909302E+02 -0.25084646401E+01  0.72461564609E+02  0.69999992594E+02 0.  0.
         12    1    1    2    0    0  0.13215920960E+02  0.13027909302E+02  0.25084646401E+01  0.18726435391E+02  0.00000000000E+00 0. -1.
         11    1    3    3    0    0  0.16925709087E+02 -0.15127553841E+02  0.16406858097E+02  0.28009061145E+02  0.51100000000E-03 0. -1.
        -11    1    3    3    0    0  0.34725652956E+01 -0.17842706855E+01  0.22833007334E+01  0.45228082108E+01  0.51100000000E-03 0.  1.
        -12    1    3    3    0    0 -0.33614195343E+02  0.38839152248E+01 -0.21198623471E+02  0.39929695254E+02  0.00000000000E+00 0.  1.
</event>
<event>
 7    1  0.3597718E-013  0.7246154E+02  0.7816164E-02  0.1226708E+00
        -11   -1    0    0    0    0  0.00000000000E+00  0.00000000000E+00  0.45593999997E+02  0.45594000000E+02  0.51100000000E-03 0.  1.
         11   -1    0    0    0    0 -0.00000000000E+00 -0.00000000000E+00 -0.45593999997E+02  0.45594000000E+02  0.51100000000E-03 0. -1.
    9900012    2    1    2    0    0 -0.18658485835E+02  0.62811039847E+00  0.14650956680E+01  0.72461544873E+02  0.69999966884E+02 0.  0.
         12    1    1    2    0    0  0.18658485835E+02 -0.62811039847E+00 -0.14650956680E+01  0.18726455127E+02  0.00000000000E+00 0. -1.
         11    1    3    3    0    0  0.68510297024E+01  0.13053088572E+02 -0.71544777597E+01  0.16386161281E+02  0.51100000000E-03 0.  1.
        -11    1    3    3    0    0 -0.26123354390E+02  0.11091015017E+02 -0.51118512119E+01  0.28836977681E+02  0.51100000000E-03 0. -1.
        -12    1    3    3    0    0  0.61383885284E+00 -0.23515993191E+02  0.13731424640E+02  0.27238405910E+02  0.00000000000E+00 0.  1.
</event>
<event>
 7    1  0.3597718E-013  0.7246155E+02  0.7816164E-02  0.1226708E+00
        -11   -1    0    0    0    0  0.00000000000E+00  0.00000000000E+00  0.45593999997E+02  0.45594000000E+02  0.51100000000E-03 0. -1.
         11   -1    0    0    0    0 -0.00000000000E+00 -0.00000000000E+00 -0.45593999997E+02  0.45594000000E+02  0.51100000000E-03 0.  1.
    9900012    2    1    2    0    0 -0.12533924448E+02  0.49922437347E+01 -0.12986839596E+02  0.72461554468E+02  0.69999979383E+02 0.  0.
         12    1    1    2    0    0  0.12533924448E+02 -0.49922437347E+01  0.12986839596E+02  0.18726445532E+02  0.00000000000E+00 0. -1.
         11    1    3    3    0    0 -0.17786293132E+01  0.79206650744E+01 -0.11451162007E+02  0.14036722161E+02  0.51100000000E-03 0. -1.
        -11    1    3    3    0    0 -0.58697348986E+00  0.23396583368E+02 -0.14326660212E+02  0.27440806189E+02  0.51100000000E-03 0.  1.
        -12    1    3    3    0    0 -0.10168321645E+02 -0.26325004708E+02  0.12790982624E+02  0.30984026118E+02  0.00000000000E+00 0.  1.
</event>
<event>
 7    1  0.3597718E-013  0.7246157E+02  0.7816164E-02  0.1226708E+00
        -11   -1    0    0    0    0  0.00000000000E+00  0.00000000000E+00  0.45593999997E+02  0.45594000000E+02  0.51100000000E-03 0.  1.
         11   -1    0    0    0    0 -0.00000000000E+00 -0.00000000000E+00 -0.45593999997E+02  0.45594000000E+02  0.51100000000E-03 0. -1.
    9900012    2    1    2    0    0 -0.12131086574E+02 -0.14160911795E+02 -0.17275237111E+01  0.72461574219E+02  0.70000005113E+02 0.  0.
         12    1    1    2    0    0  0.12131086574E+02  0.14160911795E+02  0.17275237111E+01  0.18726425781E+02  0.00000000000E+00 0. -1.
         11    1    3    3    0    0 -0.94764612438E+01  0.14885921365E+02  0.30179883293E+01  0.17902575971E+02  0.51100000000E-03 0. -1.
        -11    1    3    3    0    0 -0.17230205647E+02 -0.19316938074E+01  0.10433989184E+02  0.20235601255E+02  0.51100000000E-03 0.  1.
        -12    1    3    3    0    0  0.14575580317E+02 -0.27115139353E+02 -0.15179501224E+02  0.34323396993E+02  0.00000000000E+00 0.  1.
</event>
<event>
 7    1  0.3597718E-013  0.7246158E+02  0.7816164E-02  0.1226708E+00
        -11   -1    0    0    0    0  0.00000000000E+00  0.00000000000E+00  0.45593999997E+02  0.45594000000E+02  0.51100000000E-03 0. -1.
         11   -1    0    0    0    0 -0.00000000000E+00 -0.00000000000E+00 -0.45593999997E+02  0.45594000000E+02  0.51100000000E-03 0.  1.
    9900012    2    1    2    0    0  0.76890902538E+01 -0.74783304735E+01 -0.15350279868E+02  0.72461584763E+02  0.70000018848E+02 0.  0.
         12    1    1    2    0    0 -0.76890902538E+01  0.74783304735E+01  0.15350279868E+02  0.18726415237E+02  0.00000000000E+00 0. -1.
         11    1    3    3    0    0 -0.12800699110E+02 -0.15164070764E+02 -0.12604825147E+02  0.23509329151E+02  0.51100000000E-03 0. -1.
        -11    1    3    3    0    0  0.66252170011E+01  0.83407878739E+01 -0.22450604956E+02  0.24849384416E+02  0.51100000000E-03 0.  1.
        -12    1    3    3    0    0  0.13864572363E+02 -0.65504758303E+00  0.19705150235E+02  0.24102871197E+02  0.00000000000E+00 0.  1.
</event>
<event>
 7    1  0.3597718E-013  0.7246157E+02  0.7816164E-02  0.1226708E+00
        -11   -1    0    0    0    0  0.00000000000E+00  0.00000000000E+00  0.45593999997E+02  0.45594000000E+02  0.51100000000E-03 0.  1.
         11   -1    0    0    0    0 -0.00000000000E+00 -0.00000000000E+00 -0.45593999997E+02  0.45594000000E+02  0.51100000000E-03 0. -1.
    9900012    2    1    2    0    0  0.16175269930E+02  0.12750600658E+01  0.93495507241E+01  0.72461568567E+02  0.69999997750E+02 0.  0.
         12    1    1    2    0    0 -0.16175269930E+02 -0.12750600658E+01 -0.93495507241E+01  0.18726431433E+02  0.00000000000E+00 0. -1.
         11    1    3    3    0    0 -0.61496821163E+01  0.52100569422E+01 -0.74240344052E+01  0.10958082432E+02  0.51100000000E-03 0. -1.
        -11    1    3    3    0    0  0.78270340032E+00  0.22774407707E+02  0.14718496247E+02  0.27127852901E+02  0.51100000000E-03 0.  1.
        -12    1    3    3    0    0  0.21542248646E+02 -0.26709404583E+02  0.20550888820E+01  0.34375633234E+02  0.00000000000E+00 0.  1.
</event>
<event>
 7    1  0.3597718E-013  0.7246151E+02  0.7816164E-02  0.1226708E+00
        -11   -1    0    0    0    0  0.00000000000E+00  0.00000000000E+00  0.45593999997E+02  0.45594000000E+02  0.51100000000E-03 0.  1.
         11   -1    0    0    0    0 -0.00000000000E+00 -0.00000000000E+00 -0.45593999997E+02  0.45594000000E+02  0.51100000000E-03 0. -1.
    9900012    2    1    2    0    0 -0.45179456523E+01 -0.18125557789E+02  0.13166745036E+01  0.72461513148E+02  0.69999925556E+02 0.  0.
         12    1    1    2    0    0  0.45179456523E+01  0.18125557789E+02 -0.13166745036E+01  0.18726486852E+02  0.00000000000E+00 0. -1.
         11    1    3    3    0    0  0.77358839747E+01  0.34821730417E+01  0.90237440645E+01  0.12385369884E+02  0.51100000000E-03 0. -1.
        -11    1    3    3    0    0  0.14795854118E+02 -0.10742340442E+02  0.14577033819E+02  0.23383863934E+02  0.51100000000E-03 0.  1.
         12    1    3    3    0    0 -0.27049683745E+02 -0.10865390388E+02 -0.22284103380E+02  0.36692279330E+02  0.00000000000E+00 0. -1.
</event>
<event>
 7    1  0.3597718E-013  0.7246100E+02  0.7816164E-02  0.1226710E+00
        -11   -1    0    0    0    0  0.00000000000E+00  0.00000000000E+00  0.45593999997E+02  0.45594000000E+02  0.51100000000E-03 0.  1.
         11   -1    0    0    0    0 -0.00000000000E+00 -0.00000000000E+00 -0.45593999997E+02  0.45594000000E+02  0.51100000000E-03 0. -1.
    9900012    2    1    2    0    0  0.62362621944E+01 -0.49499051848E+01  0.16950164812E+02  0.72460997713E+02  0.69999254102E+02 0.  0.
         12    1    1    2    0    0 -0.62362621944E+01  0.49499051848E+01 -0.16950164812E+02  0.18727002287E+02  0.00000000000E+00 0. -1.
         11    1    3    3    0    0  0.11209738924E+01 -0.15162285533E+02 -0.17990946628E+02  0.23554737228E+02  0.51100000000E-03 0. -1.
        -11    1    3    3    0    0 -0.23922819765E+01 -0.96575159469E+01  0.21710619490E+02  0.23881826275E+02  0.51100000000E-03 0.  1.
        -12    1    3    3    0    0  0.75075702785E+01  0.19869896295E+02  0.13230491951E+02  0.25024434210E+02  0.00000000000E+00 0.  1.
</event>
<event>
 7    1  0.3597718E-013  0.7246159E+02  0.7816164E-02  0.1226708E+00
        -11   -1    0    0    0    0  0.00000000000E+00  0.00000000000E+00  0.45593999997E+02  0.45594000000E+02  0.51100000000E-03 0. -1.
         11   -1    0    0    0    0 -0.00000000000E+00 -0.00000000000E+00 -0.45593999997E+02  0.45594000000E+02  0.51100000000E-03 0.  1.
    9900012    2    1    2    0    0 -0.45680496995E+01 -0.17772723246E+02 -0.37338688246E+01  0.72461586942E+02  0.70000021687E+02 0.  0.
         12    1    1    2    0    0  0.45680496995E+01  0.17772723246E+02  0.37338688246E+01  0.18726413058E+02  0.00000000000E+00 0. -1.
         11    1    3    3    0    0 -0.98440259879E+01  0.62409540747E+01 -0.24190197668E+02  0.26851815933E+02  0.51100000000E-03 0. -1.
        -11    1    3    3    0    0  0.12667090177E+02 -0.34878712532E+01 -0.31039768426E+01  0.13500188589E+02  0.51100000000E-03 0.  1.
        -12    1    3    3    0    0 -0.73911138886E+01 -0.20525806067E+02  0.23560305686E+02  0.32109582421E+02  0.00000000000E+00 0.  1.
</event>
<event>
 8    1  0.3597718E-013  0.7246154E+02  0.7816164E-02  0.1226708E+00
        -11   -1    0    0    0    0  0.00000000000E+00  0.00000000000E+00  0.45593999997E+02  0.45594000000E+02  0.51100000000E-03 0. -1.
         11   -1    0    0    0    0 -0.00000000000E+00 -0.00000000000E+00 -0.45593999997E+02  0.45594000000E+02  0.51100000000E-03 0.  1.
    9900012    2    1    2    0    0  0.11564695484E+02 -0.79854104034E+01 -0.12376248566E+02  0.72461535051E+02  0.69999954088E+02 0.  0.
         23    2    3    3    0    0  0.69275147208E+01 -0.12748769765E+02  0.93662271550E+00  0.57581159397E+02  0.55715267788E+02 0.  0.
         12    1    1    2    0    0 -0.11564695484E+02  0.79854104034E+01  0.12376248566E+02  0.18726464949E+02  0.00000000000E+00 0. -1.
         11    1    4    4    0    0  0.26099732097E+02  0.94629295697E+01  0.41239400538E+01  0.28066883215E+02  0.51100000000E-03 0. -1.
        -11    1    4    4    0    0 -0.19172217376E+02 -0.22211699335E+02 -0.31873173383E+01  0.29514276182E+02  0.51100000000E-03 0.  1.
         12    1    3    3    0    0  0.46371807628E+01  0.47633593620E+01 -0.13312871281E+02  0.14880375654E+02  0.00000000000E+00 0. -1.
</event>
<event>
 7    1  0.3597718E-013  0.7246159E+02  0.7816164E-02  0.1226708E+00
        -11   -1    0    0    0    0  0.00000000000E+00  0.00000000000E+00  0.45593999997E+02  0.45594000000E+02  0.51100000000E-03 0. -1.
         11   -1    0    0    0    0 -0.00000000000E+00 -0.00000000000E+00 -0.45593999997E+02  0.45594000000E+02  0.51100000000E-03 0.  1.
    9900012    2    1    2    0    0 -0.66606015818E+00 -0.79524972483E+01 -0.16940857548E+02  0.72461588089E+02  0.70000023181E+02 0.  0.
         12    1    1    2    0    0  0.66606015818E+00  0.79524972483E+01  0.16940857548E+02  0.18726411911E+02  0.00000000000E+00 0. -1.
         11    1    3    3    0    0  0.88865907068E+01  0.59432083727E+01 -0.15328697822E+02  0.18688557926E+02  0.51100000000E-03 0.  1.
        -11    1    3    3    0    0  0.13631772699E+02 -0.12502171451E+02  0.16132887826E+02  0.24543829933E+02  0.51100000000E-03 0. -1.
         12    1    3    3    0    0 -0.23184423564E+02 -0.13935341701E+01 -0.17745047552E+02  0.29229200230E+02  0.00000000000E+00 0. -1.
</event>
<event>
 7    1  0.3597718E-013  0.7246168E+02  0.7816164E-02  0.1226708E+00
        -11   -1    0    0    0    0  0.00000000000E+00  0.00000000000E+00  0.45593999997E+02  0.45594000000E+02  0.51100000000E-03 0. -1.
         11   -1    0    0    0    0 -0.00000000000E+00 -0.00000000000E+00 -0.45593999997E+02  0.45594000000E+02  0.51100000000E-03 0.  1.
    9900012    2    1    2    0    0  0.10958568816E+02 -0.14707457367E+02  0.37783191284E+01  0.72461675531E+02  0.70000137090E+02 0.  0.
         12    1    1    2    0    0 -0.10958568816E+02  0.14707457367E+02 -0.37783191284E+01  0.18726324469E+02  0.00000000000E+00 0. -1.
         11    1    3    3    0    0  0.90493023161E+00  0.54480315707E+01 -0.12904466666E+01  0.56714371706E+01  0.51100000000E-03 0. -1.
        -11    1    3    3    0    0 -0.24307612090E+02 -0.63875423782E+00 -0.72906915129E+01  0.25385472135E+02  0.51100000000E-03 0.  1.
         12    1    3    3    0    0  0.34361250675E+02 -0.19516734700E+02  0.12359457308E+02  0.41404766226E+02  0.00000000000E+00 0. -1.
</event>
<event>
 7    1  0.3597718E-013  0.7246154E+02  0.7816164E-02  0.1226708E+00
        -11   -1    0    0    0    0  0.00000000000E+00  0.00000000000E+00  0.45593999997E+02  0.45594000000E+02  0.51100000000E-03 0. -1.
         11   -1    0    0    0    0 -0.00000000000E+00 -0.00000000000E+00 -0.45593999997E+02  0.45594000000E+02  0.51100000000E-03 0.  1.
    9900012    2    1    2    0    0  0.17201007854E+02 -0.19595999255E+01  0.71390093040E+01  0.72461543931E+02  0.69999965657E+02 0.  0.
         12    1    1    2    0    0 -0.17201007854E+02  0.19595999255E+01 -0.71390093040E+01  0.18726456069E+02  0.00000000000E+00 0. -1.
         11    1    3    3    0    0 -0.87910285962E-01 -0.58099821564E+01  0.21541259145E+01  0.61970863793E+01  0.51100000000E-03 0. -1.
        -11    1    3    3    0    0  0.32471728909E+02 -0.19638542308E+02  0.59331950951E+00  0.37953096720E+02  0.51100000000E-03 0.  1.
         12    1    3    3    0    0 -0.15182810769E+02  0.23488924539E+02  0.43915638800E+01  0.28311360832E+02  0.00000000000E+00 0. -1.
</event>
<event>
 7    1  0.3597718E-013  0.7246157E+02  0.7816164E-02  0.1226708E+00
        -11   -1    0    0    0    0  0.00000000000E+00  0.00000000000E+00  0.45593999997E+02  0.45594000000E+02  0.51100000000E-03 0. -1.
         11   -1    0    0    0    0 -0.00000000000E+00 -0.00000000000E+00 -0.45593999997E+02  0.45594000000E+02  0.51100000000E-03 0.  1.
    9900012    2    1    2    0    0 -0.28630063846E+01  0.71170448656E+01 -0.17083029725E+02  0.72461573812E+02  0.70000004583E+02 0.  0.
         12    1    1    2    0    0  0.28630063846E+01 -0.71170448656E+01  0.17083029725E+02  0.18726426188E+02  0.00000000000E+00 0. -1.
         11    1    3    3    0    0 -0.24127064118E+01  0.23284475219E+02  0.16298914073E+02  0.28524420041E+02  0.51100000000E-03 0. -1.
        -11    1    3    3    0    0 -0.61437857405E+01  0.13251441358E+01 -0.55798086715E+00  0.63097902592E+01  0.51100000000E-03 0.  1.
        -12    1    3    3    0    0  0.56934857677E+01 -0.17492574489E+02 -0.32823962931E+02  0.37627363513E+02  0.00000000000E+00 0.  1.
</event>
<event>
 7    1  0.3597718E-013  0.7246159E+02  0.7816164E-02  0.1226708E+00
        -11   -1    0    0    0    0  0.00000000000E+00  0.00000000000E+00  0.45593999997E+02  0.45594000000E+02  0.51100000000E-03 0. -1.
         11   -1    0    0    0    0 -0.00000000000E+00 -0.00000000000E+00 -0.45593999997E+02  0.45594000000E+02  0.51100000000E-03 0.  1.
    9900012    2    1    2    0    0  0.80011929037E+01  0.16779630063E+02 -0.22590468017E+01  0.72461591765E+02  0.70000027969E+02 0.  0.
         12    1    1    2    0    0 -0.80011929037E+01 -0.16779630063E+02  0.22590468017E+01  0.18726408235E+02  0.00000000000E+00 0. -1.
         11    1    3    3    0    0 -0.15192516169E+01 -0.11252351199E+02  0.18260988719E+02  0.21503191443E+02  0.51100000000E-03 0. -1.
        -11    1    3    3    0    0 -0.10879009599E+02  0.56417391224E+01 -0.16274699500E+02  0.20372724763E+02  0.51100000000E-03 0.  1.
         12    1    3    3    0    0  0.20399454120E+02  0.22390242139E+02 -0.42453360210E+01  0.30585675559E+02  0.00000000000E+00 0. -1.
</event>
<event>
 7    1  0.3597718E-013  0.7246096E+02  0.7816164E-02  0.1226710E+00
        -11   -1    0    0    0    0  0.00000000000E+00  0.00000000000E+00  0.45593999997E+02  0.45594000000E+02  0.51100000000E-03 0.  1.
         11   -1    0    0    0    0 -0.00000000000E+00 -0.00000000000E+00 -0.45593999997E+02  0.45594000000E+02  0.51100000000E-03 0. -1.
    9900012    2    1    2    0    0  0.48286382267E+01  0.12067551598E+02  0.13481858524E+02  0.72460959178E+02  0.69999203903E+02 0.  0.
         12    1    1    2    0    0 -0.48286382267E+01 -0.12067551598E+02 -0.13481858524E+02  0.18727040822E+02  0.00000000000E+00 0. -1.
         11    1    3    3    0    0  0.15716696738E+02 -0.54905154410E+01 -0.41948788142E+01  0.17168498032E+02  0.51100000000E-03 0. -1.
        -11    1    3    3    0    0  0.96747603285E+01 -0.24721492709E+01  0.23915310303E+02  0.25916299438E+02  0.51100000000E-03 0.  1.
         12    1    3    3    0    0 -0.20562818839E+02  0.20030216310E+02 -0.62385729644E+01  0.29376161708E+02  0.00000000000E+00 0. -1.
</event>
<event>
 7    1  0.3597718E-013  0.7246154E+02  0.7816164E-02  0.1226708E+00
        -11   -1    0    0    0    0  0.00000000000E+00  0.00000000000E+00  0.45593999997E+02  0.45594000000E+02  0.51100000000E-03 0. -1.
         11   -1    0    0    0    0 -0.00000000000E+00 -0.00000000000E+00 -0.45593999997E+02  0.45594000000E+02  0.51100000000E-03 0.  1.
    9900012    2    1    2    0    0 -0.18576979216E+02 -0.22626664393E+01  0.67560928472E+00  0.72461541068E+02  0.69999961928E+02 0.  0.
         12    1    1    2    0    0  0.18576979216E+02  0.22626664393E+01 -0.67560928472E+00  0.18726458932E+02  0.00000000000E+00 0. -1.
         11    1    3    3    0    0 -0.23916191905E+02  0.13943474888E+02  0.89744339900E+01  0.29102322809E+02  0.51100000000E-03 0. -1.
        -11    1    3    3    0    0 -0.16183544102E+02 -0.12459590962E+02 -0.14995567535E+01  0.20479188884E+02  0.51100000000E-03 0.  1.
        -12    1    3    3    0    0  0.21522756791E+02 -0.37465503656E+01 -0.67992679519E+01  0.22880029375E+02  0.00000000000E+00 0.  1.
</event>
<event>
 7    1  0.3597718E-013  0.7246159E+02  0.7816164E-02  0.1226708E+00
        -11   -1    0    0    0    0  0.00000000000E+00  0.00000000000E+00  0.45593999997E+02  0.45594000000E+02  0.51100000000E-03 0. -1.
         11   -1    0    0    0    0 -0.00000000000E+00 -0.00000000000E+00 -0.45593999997E+02  0.45594000000E+02  0.51100000000E-03 0.  1.
    9900012    2    1    2    0    0 -0.14664966360E+02  0.63768592664E+01 -0.97443798661E+01  0.72461587865E+02  0.70000022890E+02 0.  0.
         12    1    1    2    0    0  0.14664966360E+02 -0.63768592664E+01  0.97443798661E+01  0.18726412135E+02  0.00000000000E+00 0. -1.
         11    1    3    3    0    0 -0.35591178395E+01  0.52023423684E+01 -0.24276794689E+01  0.67546512699E+01  0.51100000000E-03 0. -1.
        -11    1    3    3    0    0 -0.36755399811E+02  0.87618236238E+01  0.67188565620E+00  0.37791274113E+02  0.51100000000E-03 0.  1.
         12    1    3    3    0    0  0.25649551290E+02 -0.75873067257E+01 -0.79885860534E+01  0.27915662483E+02  0.00000000000E+00 0. -1.
</event>
<event>
 7    1  0.3597718E-013  0.7246161E+02  0.7816164E-02  0.1226708E+00
        -11   -1    0    0    0    0  0.00000000000E+00  0.00000000000E+00  0.45593999997E+02  0.45594000000E+02  0.51100000000E-03 0. -1.
         11   -1    0    0    0    0 -0.00000000000E+00 -0.00000000000E+00 -0.45593999997E+02  0.45594000000E+02  0.51100000000E-03 0.  1.
    9900012    2    1    2    0    0 -0.23825928552E+01 -0.18513276426E+02 -0.15032308188E+01  0.72461605376E+02  0.70000045700E+02 0.  0.
         12    1    1    2    0    0  0.23825928552E+01  0.18513276426E+02  0.15032308188E+01  0.18726394624E+02  0.00000000000E+00 0. -1.
         11    1    3    3    0    0 -0.29272747553E+01 -0.22872390611E+01 -0.17732014597E+01  0.41163872138E+01  0.51100000000E-03 0. -1.
        -11    1    3    3    0    0 -0.17198523046E+02 -0.25451154175E+02 -0.22473118915E+02  0.38060366759E+02  0.51100000000E-03 0.  1.
         12    1    3    3    0    0  0.17743204946E+02  0.92251168106E+01  0.22743089556E+02  0.30284851403E+02  0.00000000000E+00 0. -1.
</event>
<event>
 7    1  0.3597718E-013  0.7246157E+02  0.7816164E-02  0.1226708E+00
        -11   -1    0    0    0    0  0.00000000000E+00  0.00000000000E+00  0.45593999997E+02  0.45594000000E+02  0.51100000000E-03 0.  1.
         11   -1    0    0    0    0 -0.00000000000E+00 -0.00000000000E+00 -0.45593999997E+02  0.45594000000E+02  0.51100000000E-03 0. -1.
    9900012    2    1    2    0    0 -0.12153350811E+02 -0.93001245432E+01 -0.10792726591E+02  0.72461569487E+02  0.69999998949E+02 0.  0.
         12    1    1    2    0    0  0.12153350811E+02  0.93001245432E+01  0.10792726591E+02  0.18726430513E+02  0.00000000000E+00 0. -1.
         11    1    3    3    0    0 -0.16821454268E+02 -0.74940034856E+01  0.59066181789E+01  0.19339326527E+02  0.51100000000E-03 0. -1.
        -11    1    3    3    0    0  0.14127380498E+02 -0.11697690970E+02  0.11589516472E+02  0.21696445471E+02  0.51100000000E-03 0.  1.
         12    1    3    3    0    0 -0.94592770410E+01  0.98915699119E+01 -0.28288861243E+02  0.31425797490E+02  0.00000000000E+00 0. -1.
</event>
<event>
 7    1  0.3597718E-013  0.7246158E+02  0.7816164E-02  0.1226708E+00
        -11   -1    0    0    0    0  0.00000000000E+00  0.00000000000E+00  0.45593999997E+02  0.45594000000E+02  0.51100000000E-03 0. -1.
         11   -1    0    0    0    0 -0.00000000000E+00 -0.00000000000E+00 -0.45593999997E+02  0.45594000000E+02  0.51100000000E-03 0.  1.
    9900012    2    1    2    0    0  0.10645170806E+02 -0.45721539430E+01 -0.14712396071E+02  0.72461578791E+02  0.70000011068E+02 0.  0.
         12    1    1    2    0    0 -0.10645170806E+02  0.45721539430E+01  0.14712396071E+02  0.18726421209E+02  0.00000000000E+00 0. -1.
         11    1    3    3    0    0  0.45340774377E+01 -0.44422056674E+01 -0.26108404856E+02  0.26868938457E+02  0.51100000000E-03 0. -1.
        -11    1    3    3    0    0  0.13999964374E+02 -0.10660620564E+02 -0.10173909115E+02  0.20326245601E+02  0.51100000000E-03 0.  1.
         12    1    3    3    0    0 -0.78888710054E+01  0.10530672288E+02  0.21569917900E+02  0.25266394733E+02  0.00000000000E+00 0. -1.
</event>
<event>
 7    1  0.3597718E-013  0.7246154E+02  0.7816164E-02  0.1226708E+00
        -11   -1    0    0    0    0  0.00000000000E+00  0.00000000000E+00  0.45593999997E+02  0.45594000000E+02  0.51100000000E-03 0.  1.
         11   -1    0    0    0    0 -0.00000000000E+00 -0.00000000000E+00 -0.45593999997E+02  0.45594000000E+02  0.51100000000E-03 0. -1.
    9900012    2    1    2    0    0 -0.74313313201E+01  0.16802778133E+02  0.36224610888E+01  0.72461541112E+02  0.69999961984E+02 0.  0.
         12    1    1    2    0    0  0.74313313201E+01 -0.16802778133E+02 -0.36224610888E+01  0.18726458888E+02  0.00000000000E+00 0. -1.
         11    1    3    3    0    0 -0.19990319504E+02  0.30663495514E+02  0.13155248241E+02  0.38896315861E+02  0.51100000000E-03 0. -1.
        -11    1    3    3    0    0 -0.63679079272E+01  0.20097968569E+01 -0.52549759115E+01  0.84973117435E+01  0.51100000000E-03 0.  1.
         12    1    3    3    0    0  0.18926896111E+02 -0.15870514239E+02 -0.42778112405E+01  0.25067913507E+02  0.00000000000E+00 0. -1.
</event>
<event>
 7    1  0.3597718E-013  0.7246156E+02  0.7816164E-02  0.1226708E+00
        -11   -1    0    0    0    0  0.00000000000E+00  0.00000000000E+00  0.45593999997E+02  0.45594000000E+02  0.51100000000E-03 0.  1.
         11   -1    0    0    0    0 -0.00000000000E+00 -0.00000000000E+00 -0.45593999997E+02  0.45594000000E+02  0.51100000000E-03 0. -1.
    9900012    2    1    2    0    0 -0.17413979012E+02  0.53022683249E+01  0.43953053130E+01  0.72461563520E+02  0.69999991176E+02 0.  0.
         12    1    1    2    0    0  0.17413979012E+02 -0.53022683249E+01 -0.43953053130E+01  0.18726436480E+02  0.00000000000E+00 0. -1.
         11    1    3    3    0    0 -0.36936615378E+02  0.41301543447E+01 -0.80492880932E+01  0.38028446846E+02  0.51100000000E-03 0. -1.
        -11    1    3    3    0    0 -0.61537656679E+01 -0.40042288426E+00  0.88213130711E+00  0.62295526554E+01  0.51100000000E-03 0.  1.
         12    1    3    3    0    0  0.25676402033E+02  0.15725368645E+01  0.11562462099E+02  0.28203564019E+02  0.00000000000E+00 0. -1.
</event>
<event>
 7    1  0.3597718E-013  0.7246158E+02  0.7816164E-02  0.1226708E+00
        -11   -1    0    0    0    0  0.00000000000E+00  0.00000000000E+00  0.45593999997E+02  0.45594000000E+02  0.51100000000E-03 0.  1.
         11   -1    0    0    0    0 -0.00000000000E+00 -0.00000000000E+00 -0.45593999997E+02  0.45594000000E+02  0.51100000000E-03 0. -1.
    9900012    2    1    2    0    0 -0.10383884062E+02 -0.40400906324E+01  0.15050964821E+02  0.72461576888E+02  0.70000008589E+02 0.  0.
         12    1    1    2    0    0  0.10383884062E+02  0.40400906324E+01 -0.15050964821E+02  0.18726423112E+02  0.00000000000E+00 0. -1.
         11    1    3    3    0    0 -0.58405151586E+01  0.36597845220E+01  0.78243564220E+01  0.10427185322E+02  0.51100000000E-03 0. -1.
        -11    1    3    3    0    0 -0.22425238220E+02  0.17203975687E+02 -0.55774356680E+01  0.28809301927E+02  0.51100000000E-03 0.  1.
         12    1    3    3    0    0  0.17881869316E+02 -0.24903850841E+02  0.12804044068E+02  0.33225089638E+02  0.00000000000E+00 0. -1.
</event>
<event>
 7    1  0.3597718E-013  0.7246155E+02  0.7816164E-02  0.1226708E+00
        -11   -1    0    0    0    0  0.00000000000E+00  0.00000000000E+00  0.45593999997E+02  0.45594000000E+02  0.51100000000E-03 0.  1.
         11   -1    0    0    0    0 -0.00000000000E+00 -0.00000000000E+00 -0.45593999997E+02  0.45594000000E+02  0.51100000000E-03 0. -1.
    9900012    2    1    2    0    0 -0.16772479447E+02 -0.86488099922E+00 -0.82834594967E+01  0.72461553803E+02  0.69999978517E+02 0.  0.
         12    1    1    2    0    0  0.16772479447E+02  0.86488099922E+00  0.82834594967E+01  0.18726446197E+02  0.00000000000E+00 0. -1.
         11    1    3    3    0    0  0.69926213294E+01  0.46403780998E+01 -0.74845828483E+01  0.11244947427E+02  0.51100000000E-03 0. -1.
        -11    1    3    3    0    0  0.96798816512E+01  0.71336963957E+01  0.17358664916E+02  0.21116651746E+02  0.51100000000E-03 0.  1.
        -12    1    3    3    0    0 -0.33444982428E+02 -0.12638955495E+02 -0.18157541565E+02  0.40099954629E+02  0.00000000000E+00 0.  1.
</event>
<event>
 7    1  0.3597718E-013  0.7246154E+02  0.7816164E-02  0.1226708E+00
        -11   -1    0    0    0    0  0.00000000000E+00  0.00000000000E+00  0.45593999997E+02  0.45594000000E+02  0.51100000000E-03 0. -1.
         11   -1    0    0    0    0 -0.00000000000E+00 -0.00000000000E+00 -0.45593999997E+02  0.45594000000E+02  0.51100000000E-03 0.  1.
    9900012    2    1    2    0    0  0.17292939261E+01  0.20396595993E+01 -0.18534547489E+02  0.72461544933E+02  0.69999966962E+02 0.  0.
         12    1    1    2    0    0 -0.17292939261E+01 -0.20396595993E+01  0.18534547489E+02  0.18726455067E+02  0.00000000000E+00 0. -1.
         11    1    3    3    0    0  0.14330015265E+02 -0.22506590405E+02 -0.15438567829E+02  0.30826049472E+02  0.51100000000E-03 0. -1.
        -11    1    3    3    0    0 -0.56533724448E+01 -0.54323285468E+01  0.56263203000E+01  0.96501965690E+01  0.51100000000E-03 0.  1.
        -12    1    3    3    0    0 -0.69473488938E+01  0.29978578551E+02 -0.87222999600E+01  0.31985298892E+02  0.00000000000E+00 0.  1.
</event>
<event>
 7    1  0.3597718E-013  0.7246157E+02  0.7816164E-02  0.1226708E+00
        -11   -1    0    0    0    0  0.00000000000E+00  0.00000000000E+00  0.45593999997E+02  0.45594000000E+02  0.51100000000E-03 0. -1.
         11   -1    0    0    0    0 -0.00000000000E+00 -0.00000000000E+00 -0.45593999997E+02  0.45594000000E+02  0.51100000000E-03 0.  1.
    9900012    2    1    2    0    0  0.16406486836E+02 -0.88682105760E+01  0.16915081518E+01  0.72461570310E+02  0.70000000020E+02 0.  0.
         12    1    1    2    0    0 -0.16406486836E+02  0.88682105760E+01 -0.16915081518E+01  0.18726429690E+02  0.00000000000E+00 0. -1.
         11    1    3    3    0    0  0.69042461321E+01 -0.32740429923E+02 -0.74688466235E+01  0.34283932626E+02  0.51100000000E-03 0. -1.
        -11    1    3    3    0    0 -0.84506372709E+01  0.45099943265E+01  0.66355371934E+01  0.11652625164E+02  0.51100000000E-03 0.  1.
        -12    1    3    3    0    0  0.17952877975E+02  0.19362225020E+02  0.25248175819E+01  0.26525012519E+02  0.00000000000E+00 0.  1.
</event>
<event>
 7    1  0.3597718E-013  0.7246149E+02  0.7816164E-02  0.1226708E+00
        -11   -1    0    0    0    0  0.00000000000E+00  0.00000000000E+00  0.45593999997E+02  0.45594000000E+02  0.51100000000E-03 0. -1.
         11   -1    0    0    0    0 -0.00000000000E+00 -0.00000000000E+00 -0.45593999997E+02  0.45594000000E+02  0.51100000000E-03 0.  1.
    9900012    2    1    2    0    0  0.12658939029E+02 -0.12528304931E+01 -0.13742775286E+02  0.72461489537E+02  0.69999894798E+02 0.  0.
         12    1    1    2    0    0 -0.12658939029E+02  0.12528304931E+01  0.13742775286E+02  0.18726510463E+02  0.00000000000E+00 0. -1.
         11    1    3    3    0    0  0.14628446561E+02 -0.15298672969E+02 -0.44551702563E+01  0.21630750927E+02  0.51100000000E-03 0. -1.
        -11    1    3    3    0    0 -0.16433049623E+02 -0.11435999583E+02  0.23383871858E+00  0.20022035041E+02  0.51100000000E-03 0.  1.
        -12    1    3    3    0    0  0.14463542091E+02  0.25481842059E+02 -0.95214437479E+01  0.30808703569E+02  0.00000000000E+00 0.  1.
</event>
<event>
 7    1  0.3597718E-013  0.7246171E+02  0.7816164E-02  0.1226708E+00
        -11   -1    0    0    0    0  0.00000000000E+00  0.00000000000E+00  0.45593999997E+02  0.45594000000E+02  0.51100000000E-03 0.  1.
         11   -1    0    0    0    0 -0.00000000000E+00 -0.00000000000E+00 -0.45593999997E+02  0.45594000000E+02  0.51100000000E-03 0. -1.
    9900012    2    1    2    0    0  0.60972092197E+01 -0.17420982961E+02  0.31634336639E+01  0.72461710455E+02  0.70000182584E+02 0.  0.
         12    1    1    2    0    0 -0.60972092197E+01  0.17420982961E+02 -0.31634336639E+01  0.18726289545E+02  0.00000000000E+00 0. -1.
         11    1    3    3    0    0  0.18556981802E+02 -0.45680288229E+01 -0.87208654987E+01  0.21006712171E+02  0.51100000000E-03 0. -1.
        -11    1    3    3    0    0  0.14377562184E+02 -0.67778444656E+01  0.17210776787E+02  0.23427853249E+02  0.51100000000E-03 0.  1.
        -12    1    3    3    0    0 -0.26837334767E+02 -0.60751096725E+01 -0.53264776249E+01  0.28027145035E+02  0.00000000000E+00 0.  1.
</event>
<event>
 7    1  0.3597718E-013  0.7246154E+02  0.7816164E-02  0.1226708E+00
        -11   -1    0    0    0    0  0.00000000000E+00  0.00000000000E+00  0.45593999997E+02  0.45594000000E+02  0.51100000000E-03 0. -1.
         11   -1    0    0    0    0 -0.00000000000E+00 -0.00000000000E+00 -0.45593999997E+02  0.45594000000E+02  0.51100000000E-03 0.  1.
    9900012    2    1    2    0    0 -0.87570936660E+01  0.15947327725E+02  0.44358147240E+01  0.72461537352E+02  0.69999957087E+02 0.  0.
         12    1    1    2    0    0  0.87570936660E+01 -0.15947327725E+02 -0.44358147240E+01  0.18726462648E+02  0.00000000000E+00 0. -1.
         11    1    3    3    0    0 -0.12695796637E+02 -0.47478963132E+01  0.17309158187E+02  0.21984829521E+02  0.51100000000E-03 0. -1.
        -11    1    3    3    0    0 -0.16119569868E+01  0.14261006467E+02  0.15342686174E+02  0.21008872651E+02  0.51100000000E-03 0.  1.
        -12    1    3    3    0    0  0.55506599582E+01  0.64342175714E+01 -0.28216029637E+02  0.29467835180E+02  0.00000000000E+00 0.  1.
</event>
<event>
 7    1  0.3597718E-013  0.7246136E+02  0.7816164E-02  0.1226709E+00
        -11   -1    0    0    0    0  0.00000000000E+00  0.00000000000E+00  0.45593999997E+02  0.45594000000E+02  0.51100000000E-03 0. -1.
         11   -1    0    0    0    0 -0.00000000000E+00 -0.00000000000E+00 -0.45593999997E+02  0.45594000000E+02  0.51100000000E-03 0.  1.
    9900012    2    1    2    0    0 -0.88058477606E+01 -0.16391675886E+02  0.21112157490E+01  0.72461355210E+02  0.69999719812E+02 0.  0.
         12    1    1    2    0    0  0.88058477606E+01  0.16391675886E+02 -0.21112157490E+01  0.18726644790E+02  0.00000000000E+00 0. -1.
         11    1    3    3    0    0 -0.46045294725E+00 -0.23709747204E+01 -0.96993198926E+01  0.99955162289E+01  0.51100000000E-03 0. -1.
        -11    1    3    3    0    0 -0.22659286190E+02  0.29350980773E+01 -0.15250263585E+02  0.27470504019E+02  0.51100000000E-03 0.  1.
         12    1    3    3    0    0  0.14313891377E+02 -0.16955799243E+02  0.27060799227E+02  0.34995334962E+02  0.00000000000E+00 0. -1.
</event>
<event>
 7    1  0.3597718E-013  0.7246159E+02  0.7816164E-02  0.1226708E+00
        -11   -1    0    0    0    0  0.00000000000E+00  0.00000000000E+00  0.45593999997E+02  0.45594000000E+02  0.51100000000E-03 0.  1.
         11   -1    0    0    0    0 -0.00000000000E+00 -0.00000000000E+00 -0.45593999997E+02  0.45594000000E+02  0.51100000000E-03 0. -1.
    9900012    2    1    2    0    0  0.14138253312E+02 -0.12234781714E+02  0.10480558568E+01  0.72461587867E+02  0.70000022891E+02 0.  0.
         12    1    1    2    0    0 -0.14138253312E+02  0.12234781714E+02 -0.10480558568E+01  0.18726412133E+02  0.00000000000E+00 0. -1.
         11    1    3    3    0    0 -0.16499270057E+02 -0.12109073785E+02  0.22565255224E+02  0.30463852743E+02  0.51100000000E-03 0.  1.
        -11    1    3    3    0    0  0.53981442951E+00  0.28500221419E+01 -0.86617373669E+01  0.91345344874E+01  0.51100000000E-03 0. -1.
        -12    1    3    3    0    0  0.30097708939E+02 -0.29757300709E+01 -0.12855462001E+02  0.32863200637E+02  0.00000000000E+00 0.  1.
</event>
<event>
 7    1  0.3597718E-013  0.7246146E+02  0.7816164E-02  0.1226708E+00
        -11   -1    0    0    0    0  0.00000000000E+00  0.00000000000E+00  0.45593999997E+02  0.45594000000E+02  0.51100000000E-03 0. -1.
         11   -1    0    0    0    0 -0.00000000000E+00 -0.00000000000E+00 -0.45593999997E+02  0.45594000000E+02  0.51100000000E-03 0.  1.
    9900012    2    1    2    0    0 -0.11028366671E+02  0.48888664065E+01 -0.14323312283E+02  0.72461463723E+02  0.69999861171E+02 0.  0.
         12    1    1    2    0    0  0.11028366671E+02 -0.48888664065E+01  0.14323312283E+02  0.18726536277E+02  0.00000000000E+00 0. -1.
         11    1    3    3    0    0 -0.45742216537E+01 -0.16737786881E+02  0.84206613159E+01  0.19286901012E+02  0.51100000000E-03 0. -1.
        -11    1    3    3    0    0  0.72113963224E+01 -0.73417401172E+01 -0.18084444123E+02  0.20807510768E+02  0.51100000000E-03 0.  1.
         12    1    3    3    0    0 -0.13665541339E+02  0.28968393405E+02 -0.46595294760E+01  0.32367051943E+02  0.00000000000E+00 0. -1.
</event>
<event>
 7    1  0.3597718E-013  0.7246155E+02  0.7816164E-02  0.1226708E+00
        -11   -1    0    0    0    0  0.00000000000E+00  0.00000000000E+00  0.45593999997E+02  0.45594000000E+02  0.51100000000E-03 0.  1.
         11   -1    0    0    0    0 -0.00000000000E+00 -0.00000000000E+00 -0.45593999997E+02  0.45594000000E+02  0.51100000000E-03 0. -1.
    9900012    2    1    2    0    0 -0.12511116974E+02 -0.12625265764E+02  0.58952827763E+01  0.72461554994E+02  0.69999980069E+02 0.  0.
         12    1    1    2    0    0  0.12511116974E+02  0.12625265764E+02 -0.58952827763E+01  0.18726445006E+02  0.00000000000E+00 0. -1.
         11    1    3    3    0    0 -0.17205767970E+01  0.64723878060E+01  0.82405950534E+01  0.10618832117E+02  0.51100000000E-03 0. -1.
        -11    1    3    3    0    0 -0.24059669377E+02 -0.12193599365E+02  0.20953622199E+02  0.34155612123E+02  0.51100000000E-03 0.  1.
         12    1    3    3    0    0  0.13269129200E+02 -0.69040542053E+01 -0.23298934476E+02  0.27687110754E+02  0.00000000000E+00 0. -1.
</event>
<event>
 7    1  0.3597718E-013  0.7246159E+02  0.7816164E-02  0.1226708E+00
        -11   -1    0    0    0    0  0.00000000000E+00  0.00000000000E+00  0.45593999997E+02  0.45594000000E+02  0.51100000000E-03 0.  1.
         11   -1    0    0    0    0 -0.00000000000E+00 -0.00000000000E+00 -0.45593999997E+02  0.45594000000E+02  0.51100000000E-03 0. -1.
    9900012    2    1    2    0    0  0.77443845470E+01  0.15467546677E+02  0.71734160727E+01  0.72461591098E+02  0.70000027100E+02 0.  0.
         12    1    1    2    0    0 -0.77443845470E+01 -0.15467546677E+02 -0.71734160727E+01  0.18726408902E+02  0.00000000000E+00 0. -1.
         11    1    3    3    0    0  0.31586831250E+02 -0.63085286485E+01 -0.57871370043E+01  0.32726386863E+02  0.51100000000E-03 0. -1.
        -11    1    3    3    0    0 -0.71791565064E+00  0.11783985127E+02  0.99743023587E+00  0.11847893302E+02  0.51100000000E-03 0.  1.
        -12    1    3    3    0    0 -0.23124531053E+02  0.99920901987E+01  0.11963122841E+02  0.27887310933E+02  0.00000000000E+00 0.  1.
</event>
<event>
 7    1  0.3597718E-013  0.7246155E+02  0.7816164E-02  0.1226708E+00
        -11   -1    0    0    0    0  0.00000000000E+00  0.00000000000E+00  0.45593999997E+02  0.45594000000E+02  0.51100000000E-03 0.  1.
         11   -1    0    0    0    0 -0.00000000000E+00 -0.00000000000E+00 -0.45593999997E+02  0.45594000000E+02  0.51100000000E-03 0. -1.
    9900012    2    1    2    0    0  0.21436459961E+01 -0.13890154121E+02  0.12375308887E+02  0.72461551599E+02  0.69999975646E+02 0.  0.
         12    1    1    2    0    0 -0.21436459961E+01  0.13890154121E+02 -0.12375308887E+02  0.18726448401E+02  0.00000000000E+00 0. -1.
         11    1    3    3    0    0  0.23498230413E+02 -0.29260209381E+02  0.13791056551E+02  0.39981494803E+02  0.51100000000E-03 0. -1.
        -11    1    3    3    0    0  0.32549921688E+01  0.33824085204E+01 -0.19935163024E+01  0.50999773457E+01  0.51100000000E-03 0.  1.
        -12    1    3    3    0    0 -0.24609576586E+02  0.11987646740E+02  0.57776863898E+00  0.27380079450E+02  0.00000000000E+00 0.  1.
</event>
<event>
 7    1  0.3597718E-013  0.7246157E+02  0.7816164E-02  0.1226708E+00
        -11   -1    0    0    0    0  0.00000000000E+00  0.00000000000E+00  0.45593999997E+02  0.45594000000E+02  0.51100000000E-03 0.  1.
         11   -1    0    0    0    0 -0.00000000000E+00 -0.00000000000E+00 -0.45593999997E+02  0.45594000000E+02  0.51100000000E-03 0. -1.
    9900012    2    1    2    0    0  0.15692440558E+02 -0.84602330594E+01  0.57315698892E+01  0.72461571417E+02  0.70000001462E+02 0.  0.
         12    1    1    2    0    0 -0.15692440558E+02  0.84602330594E+01 -0.57315698892E+01  0.18726428583E+02  0.00000000000E+00 0. -1.
         11    1    3    3    0    0 -0.14763565484E+02 -0.35672231055E+01 -0.17845565675E+02  0.23433995840E+02  0.51100000000E-03 0. -1.
        -11    1    3    3    0    0 -0.45255186281E+01  0.45625106860E+01  0.15133203198E+01  0.66020422041E+01  0.51100000000E-03 0.  1.
        -12    1    3    3    0    0  0.34981524671E+02 -0.94555206399E+01  0.22063815244E+02  0.42425533373E+02  0.00000000000E+00 0.  1.
</event>
<event>
 7    1  0.3597718E-013  0.7246154E+02  0.7816164E-02  0.1226708E+00
        -11   -1    0    0    0    0  0.00000000000E+00  0.00000000000E+00  0.45593999997E+02  0.45594000000E+02  0.51100000000E-03 0.  1.
         11   -1    0    0    0    0 -0.00000000000E+00 -0.00000000000E+00 -0.45593999997E+02  0.45594000000E+02  0.51100000000E-03 0. -1.
    9900012    2    1    2    0    0  0.12792011399E+02 -0.60338356907E+01  0.12273454182E+02  0.72461537272E+02  0.69999956982E+02 0.  0.
         12    1    1    2    0    0 -0.12792011399E+02  0.60338356907E+01 -0.12273454182E+02  0.18726462728E+02  0.00000000000E+00 0. -1.
         11    1    3    3    0    0 -0.13458838701E+02  0.29510224237E+01 -0.18761237509E+02  0.23277304519E+02  0.51100000000E-03 0. -1.
        -11    1    3    3    0    0 -0.45731006213E+01  0.24980406363E+01  0.51625038598E+01  0.73351825251E+01  0.51100000000E-03 0.  1.
        -12    1    3    3    0    0  0.30823950721E+02 -0.11482898751E+02  0.25872187831E+02  0.41849050228E+02  0.00000000000E+00 0.  1.
</event>
<event>
 7    1  0.3838168E-013  0.7246158E+02  0.7816164E-02  0.1226708E+00
        -11   -1    0    0    0    0  0.00000000000E+00  0.00000000000E+00  0.45593999997E+02  0.45594000000E+02  0.51100000000E-03 0.  1.
         11   -1    0    0    0    0 -0.00000000000E+00 -0.00000000000E+00 -0.45593999997E+02  0.45594000000E+02  0.51100000000E-03 0. -1.
    9900012    2    1    2    0    0  0.12174936587E+02 -0.16066029115E+01  0.14137493467E+02  0.72461575479E+02  0.70000006754E+02 0.  0.
         12    1    1    2    0    0 -0.12174936587E+02  0.16066029115E+01 -0.14137493467E+02  0.18726424521E+02  0.00000000000E+00 0. -1.
         11    1    3    3    0    0  0.14958155929E+02 -0.84485426608E+01  0.10371598130E+02  0.20067245698E+02  0.51100000000E-03 0. -1.
        -11    1    3    3    0    0  0.21256917023E+01  0.49938480603E+01  0.27529149387E+02  0.28059065378E+02  0.51100000000E-03 0.  1.
         12    1    3    3    0    0 -0.49089110437E+01  0.18480916890E+01 -0.23763254050E+02  0.24335264403E+02  0.00000000000E+00 0. -1.
</event>
<event>
 7    1  0.3597718E-013  0.7246175E+02  0.7816164E-02  0.1226708E+00
        -11   -1    0    0    0    0  0.00000000000E+00  0.00000000000E+00  0.45593999997E+02  0.45594000000E+02  0.51100000000E-03 0. -1.
         11   -1    0    0    0    0 -0.00000000000E+00 -0.00000000000E+00 -0.45593999997E+02  0.45594000000E+02  0.51100000000E-03 0.  1.
    9900012    2    1    2    0    0  0.17318602711E+02 -0.60386851377E+01  0.37779041112E+01  0.72461754313E+02  0.70000239718E+02 0.  0.
         12    1    1    2    0    0 -0.17318602711E+02  0.60386851377E+01 -0.37779041112E+01  0.18726245687E+02  0.00000000000E+00 0. -1.
         11    1    3    3    0    0 -0.42319993371E+01  0.15295871680E+02 -0.11768424271E+01  0.15914096494E+02  0.51100000000E-03 0. -1.
        -11    1    3    3    0    0  0.17091992980E+02  0.59836755554E+01 -0.14093497345E+02  0.22947053511E+02  0.51100000000E-03 0.  1.
         12    1    3    3    0    0  0.44586090685E+01 -0.27318232374E+02  0.19048243883E+02  0.33600604308E+02  0.00000000000E+00 0. -1.
</event>
<event>
 7    1  0.3597718E-013  0.7246157E+02  0.7816164E-02  0.1226708E+00
        -11   -1    0    0    0    0  0.00000000000E+00  0.00000000000E+00  0.45593999997E+02  0.45594000000E+02  0.51100000000E-03 0.  1.
         11   -1    0    0    0    0 -0.00000000000E+00 -0.00000000000E+00 -0.45593999997E+02  0.45594000000E+02  0.51100000000E-03 0. -1.
    9900012    2    1    2    0    0  0.92740834104E+01  0.70778632316E+01  0.14648359062E+02  0.72461569634E+02  0.69999999140E+02 0.  0.
         12    1    1    2    0    0 -0.92740834104E+01 -0.70778632316E+01 -0.14648359062E+02  0.18726430366E+02  0.00000000000E+00 0. -1.
         11    1    3    3    0    0  0.16988423319E+02 -0.16721028066E+02 -0.46473146389E+01  0.24285733261E+02  0.51100000000E-03 0. -1.
        -11    1    3    3    0    0  0.63211579803E+01  0.15596240245E+02 -0.62033569570E+01  0.17935478410E+02  0.51100000000E-03 0.  1.
        -12    1    3    3    0    0 -0.14035497889E+02  0.82026510521E+01  0.25499030658E+02  0.30240357963E+02  0.00000000000E+00 0.  1.
</event>
<event>
 7    1  0.3597718E-013  0.7246156E+02  0.7816164E-02  0.1226708E+00
        -11   -1    0    0    0    0  0.00000000000E+00  0.00000000000E+00  0.45593999997E+02  0.45594000000E+02  0.51100000000E-03 0.  1.
         11   -1    0    0    0    0 -0.00000000000E+00 -0.00000000000E+00 -0.45593999997E+02  0.45594000000E+02  0.51100000000E-03 0. -1.
    9900012    2    1    2    0    0 -0.12836242422E+02 -0.10974704581E+02  0.80911356053E+01  0.72461555181E+02  0.69999980312E+02 0.  0.
         12    1    1    2    0    0  0.12836242422E+02  0.10974704581E+02 -0.80911356053E+01  0.18726444819E+02  0.00000000000E+00 0. -1.
         11    1    3    3    0    0  0.10072885043E+01  0.16035651417E+02  0.80651272368E+01  0.17977848150E+02  0.51100000000E-03 0. -1.
        -11    1    3    3    0    0  0.37081233646E+01 -0.25682424861E+02  0.16190711557E+02  0.30585556503E+02  0.51100000000E-03 0.  1.
         12    1    3    3    0    0 -0.17551654291E+02 -0.13279311372E+01 -0.16164703189E+02  0.23898150528E+02  0.00000000000E+00 0. -1.
</event>
<event>
 7    1  0.3597718E-013  0.7246157E+02  0.7816164E-02  0.1226708E+00
        -11   -1    0    0    0    0  0.00000000000E+00  0.00000000000E+00  0.45593999997E+02  0.45594000000E+02  0.51100000000E-03 0. -1.
         11   -1    0    0    0    0 -0.00000000000E+00 -0.00000000000E+00 -0.45593999997E+02  0.45594000000E+02  0.51100000000E-03 0.  1.
    9900012    2    1    2    0    0 -0.27980374765E+01 -0.16270227335E+02 -0.88391155105E+01  0.72461567498E+02  0.69999996357E+02 0.  0.
         12    1    1    2    0    0  0.27980374765E+01  0.16270227335E+02  0.88391155105E+01  0.18726432502E+02  0.00000000000E+00 0. -1.
         11    1    3    3    0    0 -0.40555144310E+01 -0.67738909953E+01  0.20654611176E+02  0.22112117936E+02  0.51100000000E-03 0. -1.
        -11    1    3    3    0    0  0.12549171195E+02 -0.12286102541E+02  0.11227779899E+01  0.17598029548E+02  0.51100000000E-03 0.  1.
        -12    1    3    3    0    0 -0.11291694240E+02  0.27897662010E+01 -0.30616504677E+02  0.32751420013E+02  0.00000000000E+00 0.  1.
</event>
<event>
 7    1  0.3597718E-013  0.7246158E+02  0.7816164E-02  0.1226708E+00
        -11   -1    0    0    0    0  0.00000000000E+00  0.00000000000E+00  0.45593999997E+02  0.45594000000E+02  0.51100000000E-03 0. -1.
         11   -1    0    0    0    0 -0.00000000000E+00 -0.00000000000E+00 -0.45593999997E+02  0.45594000000E+02  0.51100000000E-03 0.  1.
    9900012    2    1    2    0    0 -0.10424237886E+02  0.68864598721E+01 -0.13949582556E+02  0.72461576995E+02  0.70000008729E+02 0.  0.
         12    1    1    2    0    0  0.10424237886E+02 -0.68864598721E+01  0.13949582556E+02  0.18726423005E+02  0.00000000000E+00 0. -1.
         11    1    3    3    0    0 -0.51150383075E+01 -0.27158579014E+00 -0.63566477320E+01  0.81635988619E+01  0.51100000000E-03 0. -1.
        -11    1    3    3    0    0  0.65977592546E+01  0.22756473277E+02 -0.27530991913E+02  0.36322761723E+02  0.51100000000E-03 0.  1.
         12    1    3    3    0    0 -0.11906958833E+02 -0.15598427615E+02  0.19938057089E+02  0.27975216410E+02  0.00000000000E+00 0. -1.
</event>
<event>
 7    1  0.3597718E-013  0.7246163E+02  0.7816164E-02  0.1226708E+00
        -11   -1    0    0    0    0  0.00000000000E+00  0.00000000000E+00  0.45593999997E+02  0.45594000000E+02  0.51100000000E-03 0. -1.
         11   -1    0    0    0    0 -0.00000000000E+00 -0.00000000000E+00 -0.45593999997E+02  0.45594000000E+02  0.51100000000E-03 0.  1.
    9900012    2    1    2    0    0  0.18101968662E+02  0.10330583910E+01  0.46828024306E+01  0.72461625079E+02  0.70000071367E+02 0.  0.
         12    1    1    2    0    0 -0.18101968662E+02 -0.10330583910E+01 -0.46828024306E+01  0.18726374921E+02  0.00000000000E+00 0. -1.
         11    1    3    3    0    0  0.11796114954E+01  0.37907695915E+01 -0.21559383101E+02  0.21921870753E+02  0.51100000000E-03 0.  1.
        -11    1    3    3    0    0 -0.12475403025E+02  0.14110587261E+01  0.32013189654E+01  0.12956666652E+02  0.51100000000E-03 0. -1.
         12    1    3    3    0    0  0.29397760191E+02 -0.41687699266E+01  0.23040866566E+02  0.37583087674E+02  0.00000000000E+00 0. -1.
</event>
<event>
 7    1  0.3597718E-013  0.7246149E+02  0.7816164E-02  0.1226708E+00
        -11   -1    0    0    0    0  0.00000000000E+00  0.00000000000E+00  0.45593999997E+02  0.45594000000E+02  0.51100000000E-03 0. -1.
         11   -1    0    0    0    0 -0.00000000000E+00 -0.00000000000E+00 -0.45593999997E+02  0.45594000000E+02  0.51100000000E-03 0.  1.
    9900012    2    1    2    0    0  0.10720629307E+02  0.47568338560E+01  0.14598723089E+02  0.72461492667E+02  0.69999898876E+02 0.  0.
         12    1    1    2    0    0 -0.10720629307E+02 -0.47568338560E+01 -0.14598723089E+02  0.18726507333E+02  0.00000000000E+00 0. -1.
         11    1    3    3    0    0  0.67348017022E+01  0.75746175814E+01 -0.55411664430E+01  0.11551489570E+02  0.51100000000E-03 0. -1.
        -11    1    3    3    0    0 -0.16714271761E+02 -0.72070989201E+01 -0.12450425333E+02  0.22052715175E+02  0.51100000000E-03 0.  1.
         12    1    3    3    0    0  0.20700099366E+02  0.43893151947E+01  0.32590314865E+02  0.38857287922E+02  0.00000000000E+00 0. -1.
</event>
<event>
 7    1  0.3597718E-013  0.7246158E+02  0.7816164E-02  0.1226708E+00
        -11   -1    0    0    0    0  0.00000000000E+00  0.00000000000E+00  0.45593999997E+02  0.45594000000E+02  0.51100000000E-03 0. -1.
         11   -1    0    0    0    0 -0.00000000000E+00 -0.00000000000E+00 -0.45593999997E+02  0.45594000000E+02  0.51100000000E-03 0.  1.
    9900012    2    1    2    0    0  0.11683603894E+02 -0.20383778213E+01 -0.14491973460E+02  0.72461578056E+02  0.70000010110E+02 0.  0.
         12    1    1    2    0    0 -0.11683603894E+02  0.20383778213E+01  0.14491973460E+02  0.18726421944E+02  0.00000000000E+00 0. -1.
         11    1    3    3    0    0 -0.34069282573E+01 -0.23220245618E+01 -0.46759781360E+01  0.62340781199E+01  0.51100000000E-03 0. -1.
        -11    1    3    3    0    0  0.11051380254E+02 -0.28738434425E+02 -0.18178237655E+02  0.35755823906E+02  0.51100000000E-03 0.  1.
         12    1    3    3    0    0  0.40391518965E+01  0.29022081166E+02  0.83622423310E+01  0.30471676029E+02  0.00000000000E+00 0. -1.
</event>
<event>
 7    1  0.3597718E-013  0.7246203E+02  0.7816164E-02  0.1226707E+00
        -11   -1    0    0    0    0  0.00000000000E+00  0.00000000000E+00  0.45593999997E+02  0.45594000000E+02  0.51100000000E-03 0.  1.
         11   -1    0    0    0    0 -0.00000000000E+00 -0.00000000000E+00 -0.45593999997E+02  0.45594000000E+02  0.51100000000E-03 0. -1.
    9900012    2    1    2    0    0  0.46324885533E+01 -0.18128458483E+02  0.74897260559E+00  0.72462030943E+02  0.70000600078E+02 0.  0.
         12    1    1    2    0    0 -0.46324885533E+01  0.18128458483E+02 -0.74897260559E+00  0.18725969057E+02  0.00000000000E+00 0. -1.
         11    1    3    3    0    0 -0.77758934927E+01 -0.38305210964E+00  0.76640661765E+00  0.78229551893E+01  0.51100000000E-03 0. -1.
        -11    1    3    3    0    0  0.44731767649E+01  0.22267433951E+02  0.57822037460E+01  0.23436761840E+02  0.51100000000E-03 0.  1.
         12    1    3    3    0    0  0.79352052811E+01 -0.40012840324E+02 -0.57996377581E+01  0.41202313913E+02  0.00000000000E+00 0. -1.
</event>
<event>
 7    1  0.3597718E-013  0.7246134E+02  0.7816164E-02  0.1226709E+00
        -11   -1    0    0    0    0  0.00000000000E+00  0.00000000000E+00  0.45593999997E+02  0.45594000000E+02  0.51100000000E-03 0. -1.
         11   -1    0    0    0    0 -0.00000000000E+00 -0.00000000000E+00 -0.45593999997E+02  0.45594000000E+02  0.51100000000E-03 0.  1.
    9900012    2    1    2    0    0  0.15406907463E+02  0.36854199901E+01 -0.99866210326E+01  0.72461342057E+02  0.69999702677E+02 0.  0.
         12    1    1    2    0    0 -0.15406907463E+02 -0.36854199901E+01  0.99866210326E+01  0.18726657943E+02  0.00000000000E+00 0. -1.
         11    1    3    3    0    0  0.80774935041E+01 -0.11392692693E+00  0.15519399387E+02  0.17496017782E+02  0.51100000000E-03 0. -1.
        -11    1    3    3    0    0  0.39985846467E+01  0.22733834964E+02 -0.72214002545E-01  0.23082918933E+02  0.51100000000E-03 0.  1.
        -12    1    3    3    0    0  0.33308293123E+01 -0.18934488047E+02 -0.25433806417E+02  0.31882405341E+02  0.00000000000E+00 0.  1.
</event>
<event>
 7    1  0.3597718E-013  0.7246151E+02  0.7816164E-02  0.1226708E+00
        -11   -1    0    0    0    0  0.00000000000E+00  0.00000000000E+00  0.45593999997E+02  0.45594000000E+02  0.51100000000E-03 0. -1.
         11   -1    0    0    0    0 -0.00000000000E+00 -0.00000000000E+00 -0.45593999997E+02  0.45594000000E+02  0.51100000000E-03 0.  1.
    9900012    2    1    2    0    0 -0.16581752341E+02  0.68595993539E+01  0.53546910666E+01  0.72461512598E+02  0.69999924840E+02 0.  0.
         12    1    1    2    0    0  0.16581752341E+02 -0.68595993539E+01 -0.53546910666E+01  0.18726487402E+02  0.00000000000E+00 0. -1.
         11    1    3    3    0    0  0.18231600907E+02  0.59772760612E+01  0.41128385521E+01  0.19622297061E+02  0.51100000000E-03 0. -1.
        -11    1    3    3    0    0  0.32088520173E+01  0.12372180174E+02  0.28145762767E+01  0.13087758150E+02  0.51100000000E-03 0.  1.
         12    1    3    3    0    0 -0.38022205265E+02 -0.11489856881E+02 -0.15727237622E+01  0.39751457387E+02  0.00000000000E+00 0. -1.
</event>
<event>
 7    1  0.3597718E-013  0.7246163E+02  0.7816164E-02  0.1226708E+00
        -11   -1    0    0    0    0  0.00000000000E+00  0.00000000000E+00  0.45593999997E+02  0.45594000000E+02  0.51100000000E-03 0. -1.
         11   -1    0    0    0    0 -0.00000000000E+00 -0.00000000000E+00 -0.45593999997E+02  0.45594000000E+02  0.51100000000E-03 0.  1.
    9900012    2    1    2    0    0 -0.46618503451E+01  0.16624170939E+02  0.72512660571E+01  0.72461634429E+02  0.70000083547E+02 0.  0.
         12    1    1    2    0    0  0.46618503451E+01 -0.16624170939E+02 -0.72512660571E+01  0.18726365571E+02  0.00000000000E+00 0. -1.
         11    1    3    3    0    0 -0.81075863200E+01  0.12017040601E+02  0.78746359631E+01  0.16497033447E+02  0.51100000000E-03 0. -1.
        -11    1    3    3    0    0  0.22200152129E+02  0.12206311842E+02 -0.16508757363E+02  0.30238714808E+02  0.51100000000E-03 0.  1.
         12    1    3    3    0    0 -0.18754416154E+02 -0.75991815030E+01  0.15885387457E+02  0.25725886174E+02  0.00000000000E+00 0. -1.
</event>
<event>
 7    1  0.3597718E-013  0.7246147E+02  0.7816164E-02  0.1226708E+00
        -11   -1    0    0    0    0  0.00000000000E+00  0.00000000000E+00  0.45593999997E+02  0.45594000000E+02  0.51100000000E-03 0. -1.
         11   -1    0    0    0    0 -0.00000000000E+00 -0.00000000000E+00 -0.45593999997E+02  0.45594000000E+02  0.51100000000E-03 0.  1.
    9900012    2    1    2    0    0 -0.61474818269E+01 -0.17680659085E+02 -0.53446197595E+00  0.72461471008E+02  0.69999870661E+02 0.  0.
         12    1    1    2    0    0  0.61474818269E+01  0.17680659085E+02  0.53446197595E+00  0.18726528992E+02  0.00000000000E+00 0. -1.
         11    1    3    3    0    0  0.10083270652E+02 -0.30025566014E+02  0.16489553693E+02  0.35708715221E+02  0.51100000000E-03 0. -1.
        -11    1    3    3    0    0 -0.75108271964E+00 -0.67940187378E+01 -0.20275247723E-01  0.68354390647E+01  0.51100000000E-03 0.  1.
        -12    1    3    3    0    0 -0.15479669759E+02  0.19138925667E+02 -0.17003740421E+02  0.29917316722E+02  0.00000000000E+00 0.  1.
</event>
<event>
 7    1  0.3597718E-013  0.7246161E+02  0.7816164E-02  0.1226708E+00
        -11   -1    0    0    0    0  0.00000000000E+00  0.00000000000E+00  0.45593999997E+02  0.45594000000E+02  0.51100000000E-03 0. -1.
         11   -1    0    0    0    0 -0.00000000000E+00 -0.00000000000E+00 -0.45593999997E+02  0.45594000000E+02  0.51100000000E-03 0.  1.
    9900012    2    1    2    0    0 -0.14337669832E+02 -0.15352867089E+01  0.11947884153E+02  0.72461606401E+02  0.70000047035E+02 0.  0.
         12    1    1    2    0    0  0.14337669832E+02  0.15352867089E+01 -0.11947884153E+02  0.18726393599E+02  0.00000000000E+00 0. -1.
         11    1    3    3    0    0  0.29939433685E+01  0.17836058892E+02  0.67651813308E+01  0.19309489180E+02  0.51100000000E-03 0. -1.
        -11    1    3    3    0    0 -0.17421877884E+02  0.12220858814E+02  0.12734947854E+01  0.21318841628E+02  0.51100000000E-03 0.  1.
         12    1    3    3    0    0  0.90264682956E-01 -0.31592204415E+02  0.39092080369E+01  0.31833275593E+02  0.00000000000E+00 0. -1.
</event>
<event>
 7    1  0.3597718E-013  0.7246156E+02  0.7816164E-02  0.1226708E+00
        -11   -1    0    0    0    0  0.00000000000E+00  0.00000000000E+00  0.45593999997E+02  0.45594000000E+02  0.51100000000E-03 0.  1.
         11   -1    0    0    0    0 -0.00000000000E+00 -0.00000000000E+00 -0.45593999997E+02  0.45594000000E+02  0.51100000000E-03 0. -1.
    9900012    2    1    2    0    0 -0.62260785422E+00  0.15207785586E+02  0.10909406652E+02  0.72461560496E+02  0.69999987236E+02 0.  0.
         12    1    1    2    0    0  0.62260785422E+00 -0.15207785586E+02 -0.10909406652E+02  0.18726439504E+02  0.00000000000E+00 0. -1.
         11    1    3    3    0    0 -0.12689084305E+01 -0.92440633515E+00 -0.48384820901E+00  0.16427918395E+01  0.51100000000E-03 0. -1.
        -11    1    3    3    0    0 -0.31970384907E+02 -0.20675029564E+01  0.95173846511E+01  0.33420961842E+02  0.51100000000E-03 0.  1.
         12    1    3    3    0    0  0.32616685483E+02  0.18199694878E+02  0.18758702097E+01  0.37397806815E+02  0.00000000000E+00 0. -1.
</event>
<event>
 7    1  0.3597718E-013  0.7246162E+02  0.7816164E-02  0.1226708E+00
        -11   -1    0    0    0    0  0.00000000000E+00  0.00000000000E+00  0.45593999997E+02  0.45594000000E+02  0.51100000000E-03 0.  1.
         11   -1    0    0    0    0 -0.00000000000E+00 -0.00000000000E+00 -0.45593999997E+02  0.45594000000E+02  0.51100000000E-03 0. -1.
    9900012    2    1    2    0    0 -0.60589814484E+01  0.17073667963E+02 -0.47387479974E+01  0.72461624844E+02  0.70000071061E+02 0.  0.
         12    1    1    2    0    0  0.60589814484E+01 -0.17073667963E+02  0.47387479974E+01  0.18726375156E+02  0.00000000000E+00 0. -1.
         11    1    3    3    0    0  0.21635853682E+01  0.71864320448E+00 -0.66303739643E+01  0.70113771021E+01  0.51100000000E-03 0. -1.
        -11    1    3    3    0    0 -0.23234742093E+02 -0.11648837783E+02 -0.14431162447E+02  0.29728893549E+02  0.51100000000E-03 0.  1.
        -12    1    3    3    0    0  0.15012175277E+02  0.28003862542E+02  0.16322788414E+02  0.35721354193E+02  0.00000000000E+00 0.  1.
</event>
<event>
 7    1  0.3597718E-013  0.7246157E+02  0.7816164E-02  0.1226708E+00
        -11   -1    0    0    0    0  0.00000000000E+00  0.00000000000E+00  0.45593999997E+02  0.45594000000E+02  0.51100000000E-03 0. -1.
         11   -1    0    0    0    0 -0.00000000000E+00 -0.00000000000E+00 -0.45593999997E+02  0.45594000000E+02  0.51100000000E-03 0.  1.
    9900012    2    1    2    0    0  0.12820733555E+02 -0.13580206255E+02  0.13733384998E+01  0.72461567626E+02  0.69999996524E+02 0.  0.
         12    1    1    2    0    0 -0.12820733555E+02  0.13580206255E+02 -0.13733384998E+01  0.18726432374E+02  0.00000000000E+00 0. -1.
         11    1    3    3    0    0  0.11361746675E+01  0.60746623894E+01  0.38833955563E+01  0.72988476712E+01  0.51100000000E-03 0. -1.
        -11    1    3    3    0    0  0.11168883447E+02  0.19941738441E+02  0.79585530477E+01  0.24202385345E+02  0.51100000000E-03 0.  1.
         12    1    3    3    0    0  0.51567544066E+00 -0.39596607085E+02 -0.10468610104E+02  0.40960334610E+02  0.00000000000E+00 0. -1.
</event>
<event>
 7    1  0.3597718E-013  0.7246151E+02  0.7816164E-02  0.1226708E+00
        -11   -1    0    0    0    0  0.00000000000E+00  0.00000000000E+00  0.45593999997E+02  0.45594000000E+02  0.51100000000E-03 0. -1.
         11   -1    0    0    0    0 -0.00000000000E+00 -0.00000000000E+00 -0.45593999997E+02  0.45594000000E+02  0.51100000000E-03 0.  1.
    9900012    2    1    2    0    0 -0.59756610539E+01  0.13778551219E+02 -0.11185895536E+02  0.72461514540E+02  0.69999927370E+02 0.  0.
         12    1    1    2    0    0  0.59756610539E+01 -0.13778551219E+02  0.11185895536E+02  0.18726485460E+02  0.00000000000E+00 0. -1.
         11    1    3    3    0    0 -0.17917798275E+02  0.17273869240E+02 -0.14850944290E+01  0.24932700601E+02  0.51100000000E-03 0.  1.
        -11    1    3    3    0    0 -0.39597738762E+01 -0.21802380862E+02 -0.63379933168E+01  0.23047641527E+02  0.51100000000E-03 0. -1.
         12    1    3    3    0    0  0.15901911097E+02  0.18307062842E+02 -0.33628077903E+01  0.24481172412E+02  0.00000000000E+00 0. -1.
</event>
<event>
 7    1  0.3597718E-013  0.7246156E+02  0.7816164E-02  0.1226708E+00
        -11   -1    0    0    0    0  0.00000000000E+00  0.00000000000E+00  0.45593999997E+02  0.45594000000E+02  0.51100000000E-03 0.  1.
         11   -1    0    0    0    0 -0.00000000000E+00 -0.00000000000E+00 -0.45593999997E+02  0.45594000000E+02  0.51100000000E-03 0. -1.
    9900012    2    1    2    0    0 -0.57566002335E+01  0.83512504696E+01  0.15741592732E+02  0.72461559537E+02  0.69999985987E+02 0.  0.
         12    1    1    2    0    0  0.57566002335E+01 -0.83512504696E+01 -0.15741592732E+02  0.18726440463E+02  0.00000000000E+00 0. -1.
         11    1    3    3    0    0 -0.21688886092E+01  0.66748299730E+01 -0.22500057494E+01  0.73702075344E+01  0.51100000000E-03 0. -1.
        -11    1    3    3    0    0  0.18744091094E+02  0.22993091593E+02  0.17025702498E+02  0.34203768181E+02  0.51100000000E-03 0.  1.
        -12    1    3    3    0    0 -0.22331802718E+02 -0.21316671097E+02  0.96589598396E+00  0.30887583822E+02  0.00000000000E+00 0.  1.
</event>
<event>
 7    1  0.3597718E-013  0.7246157E+02  0.7816164E-02  0.1226708E+00
        -11   -1    0    0    0    0  0.00000000000E+00  0.00000000000E+00  0.45593999997E+02  0.45594000000E+02  0.51100000000E-03 0. -1.
         11   -1    0    0    0    0 -0.00000000000E+00 -0.00000000000E+00 -0.45593999997E+02  0.45594000000E+02  0.51100000000E-03 0.  1.
    9900012    2    1    2    0    0  0.18563551250E+02 -0.11617321209E+01 -0.21735016873E+01  0.72461570385E+02  0.70000000119E+02 0.  0.
         12    1    1    2    0    0 -0.18563551250E+02  0.11617321209E+01  0.21735016873E+01  0.18726429615E+02  0.00000000000E+00 0. -1.
         11    1    3    3    0    0  0.16699605248E+02 -0.69163469786E+01  0.14939627890E+02  0.23450056561E+02  0.51100000000E-03 0. -1.
        -11    1    3    3    0    0 -0.10565436047E+02 -0.14806891459E+02  0.20144447818E+01  0.18301105475E+02  0.51100000000E-03 0.  1.
        -12    1    3    3    0    0  0.12429382049E+02  0.20561506317E+02 -0.19127574359E+02  0.30710408350E+02  0.00000000000E+00 0.  1.
</event>
<event>
 7    1  0.3597718E-013  0.7246149E+02  0.7816164E-02  0.1226708E+00
        -11   -1    0    0    0    0  0.00000000000E+00  0.00000000000E+00  0.45593999997E+02  0.45594000000E+02  0.51100000000E-03 0.  1.
         11   -1    0    0    0    0 -0.00000000000E+00 -0.00000000000E+00 -0.45593999997E+02  0.45594000000E+02  0.51100000000E-03 0. -1.
    9900012    2    1    2    0    0 -0.10957146252E+02  0.13086632422E+02  0.77047423483E+01  0.72461493204E+02  0.69999899575E+02 0.  0.
         12    1    1    2    0    0  0.10957146252E+02 -0.13086632422E+02 -0.77047423483E+01  0.18726506796E+02  0.00000000000E+00 0. -1.
         11    1    3    3    0    0  0.18028942561E+02  0.65127048728E+01 -0.80792952047E+00  0.19186214974E+02  0.51100000000E-03 0. -1.
        -11    1    3    3    0    0  0.33466220403E+01 -0.13793594626E+02  0.42992676938E+01  0.14830604666E+02  0.51100000000E-03 0.  1.
         12    1    3    3    0    0 -0.32332710854E+02  0.20367522175E+02  0.42134041749E+01  0.38444673564E+02  0.00000000000E+00 0. -1.
</event>
<event>
 7    1  0.3597718E-013  0.7246154E+02  0.7816164E-02  0.1226708E+00
        -11   -1    0    0    0    0  0.00000000000E+00  0.00000000000E+00  0.45593999997E+02  0.45594000000E+02  0.51100000000E-03 0.  1.
         11   -1    0    0    0    0 -0.00000000000E+00 -0.00000000000E+00 -0.45593999997E+02  0.45594000000E+02  0.51100000000E-03 0. -1.
    9900012    2    1    2    0    0 -0.17935323460E+02 -0.50466482938E+01 -0.18804008327E+01  0.72461537603E+02  0.69999957413E+02 0.  0.
         12    1    1    2    0    0  0.17935323460E+02  0.50466482938E+01  0.18804008327E+01  0.18726462397E+02  0.00000000000E+00 0. -1.
         11    1    3    3    0    0  0.14850648812E+02 -0.88122716292E+00 -0.17992717565E+02  0.23346439067E+02  0.51100000000E-03 0. -1.
        -11    1    3    3    0    0  0.40699336563E+01  0.39834328274E+01 -0.33911060367E+01  0.66280990842E+01  0.51100000000E-03 0.  1.
        -12    1    3    3    0    0 -0.36855905929E+02 -0.81488539582E+01  0.19503422769E+02  0.42486999452E+02  0.00000000000E+00 0.  1.
</event>
<event>
 7    1  0.3597718E-013  0.7246163E+02  0.7816164E-02  0.1226708E+00
        -11   -1    0    0    0    0  0.00000000000E+00  0.00000000000E+00  0.45593999997E+02  0.45594000000E+02  0.51100000000E-03 0. -1.
         11   -1    0    0    0    0 -0.00000000000E+00 -0.00000000000E+00 -0.45593999997E+02  0.45594000000E+02  0.51100000000E-03 0.  1.
    9900012    2    1    2    0    0  0.15130588982E+02 -0.11028584404E+02 -0.33521967052E+00  0.72461634385E+02  0.70000083490E+02 0.  0.
         12    1    1    2    0    0 -0.15130588982E+02  0.11028584404E+02  0.33521967052E+00  0.18726365615E+02  0.00000000000E+00 0. -1.
         11    1    3    3    0    0  0.51793472244E+01  0.20090105542E+02  0.11065125731E+02  0.23513293815E+02  0.51100000000E-03 0. -1.
        -11    1    3    3    0    0  0.35048043468E+01  0.36695442605E+01 -0.12562654228E+02  0.13548781868E+02  0.51100000000E-03 0.  1.
        -12    1    3    3    0    0  0.64464374109E+01 -0.34788234207E+02  0.11623088266E+01  0.35399558702E+02  0.00000000000E+00 0.  1.
</event>
<event>
 7    1  0.3597718E-013  0.7246157E+02  0.7816164E-02  0.1226708E+00
        -11   -1    0    0    0    0  0.00000000000E+00  0.00000000000E+00  0.45593999997E+02  0.45594000000E+02  0.51100000000E-03 0.  1.
         11   -1    0    0    0    0 -0.00000000000E+00 -0.00000000000E+00 -0.45593999997E+02  0.45594000000E+02  0.51100000000E-03 0. -1.
    9900012    2    1    2    0    0  0.16758830360E+02 -0.60398850844E+01  0.57741382398E+01  0.72461567364E+02  0.69999996183E+02 0.  0.
         12    1    1    2    0    0 -0.16758830360E+02  0.60398850844E+01 -0.57741382398E+01  0.18726432636E+02  0.00000000000E+00 0. -1.
         11    1    3    3    0    0  0.14573495673E+02 -0.13451813502E+02  0.31096058365E+01  0.20075051964E+02  0.51100000000E-03 0. -1.
        -11    1    3    3    0    0  0.17169966508E+02  0.12487587797E+02 -0.16963980848E+02  0.27175802570E+02  0.51100000000E-03 0.  1.
         12    1    3    3    0    0 -0.14984631821E+02 -0.50756593787E+01  0.19628513251E+02  0.25210712830E+02  0.00000000000E+00 0. -1.
</event>
<event>
 7    1  0.3597718E-013  0.7246161E+02  0.7816164E-02  0.1226708E+00
        -11   -1    0    0    0    0  0.00000000000E+00  0.00000000000E+00  0.45593999997E+02  0.45594000000E+02  0.51100000000E-03 0.  1.
         11   -1    0    0    0    0 -0.00000000000E+00 -0.00000000000E+00 -0.45593999997E+02  0.45594000000E+02  0.51100000000E-03 0. -1.
    9900012    2    1    2    0    0  0.16888459291E+02  0.76267523983E+01  0.27000317633E+01  0.72461612711E+02  0.70000055255E+02 0.  0.
         12    1    1    2    0    0 -0.16888459291E+02 -0.76267523983E+01 -0.27000317633E+01  0.18726387289E+02  0.00000000000E+00 0. -1.
         11    1    3    3    0    0  0.18874330746E+02 -0.13018179584E+02  0.13673501427E+01  0.22969175159E+02  0.51100000000E-03 0. -1.
        -11    1    3    3    0    0  0.16521938105E+02 -0.54504952266E+01 -0.91023112306E+00  0.17421563016E+02  0.51100000000E-03 0.  1.
         12    1    3    3    0    0 -0.18507809560E+02  0.26095427209E+02  0.22429127436E+01  0.32070874536E+02  0.00000000000E+00 0. -1.
</event>
<event>
 7    1  0.3597718E-013  0.7246160E+02  0.7816164E-02  0.1226708E+00
        -11   -1    0    0    0    0  0.00000000000E+00  0.00000000000E+00  0.45593999997E+02  0.45594000000E+02  0.51100000000E-03 0. -1.
         11   -1    0    0    0    0 -0.00000000000E+00 -0.00000000000E+00 -0.45593999997E+02  0.45594000000E+02  0.51100000000E-03 0.  1.
    9900012    2    1    2    0    0  0.18281443254E+02 -0.29587946848E+00 -0.40471239267E+01  0.72461603545E+02  0.70000043315E+02 0.  0.
         12    1    1    2    0    0 -0.18281443254E+02  0.29587946848E+00  0.40471239267E+01  0.18726396455E+02  0.00000000000E+00 0. -1.
         11    1    3    3    0    0  0.22088054455E+02 -0.10569544226E+02  0.26759343380E+01  0.24632459065E+02  0.51100000000E-03 0. -1.
        -11    1    3    3    0    0 -0.25879460228E+01  0.44735186479E+01 -0.26594841957E+02  0.27092350446E+02  0.51100000000E-03 0.  1.
         12    1    3    3    0    0 -0.12186651779E+01  0.58001461100E+01  0.19871783692E+02  0.20736794034E+02  0.00000000000E+00 0. -1.
</event>
<event>
 7    1  0.3597718E-013  0.7246158E+02  0.7816164E-02  0.1226708E+00
        -11   -1    0    0    0    0  0.00000000000E+00  0.00000000000E+00  0.45593999997E+02  0.45594000000E+02  0.51100000000E-03 0. -1.
         11   -1    0    0    0    0 -0.00000000000E+00 -0.00000000000E+00 -0.45593999997E+02  0.45594000000E+02  0.51100000000E-03 0.  1.
    9900012    2    1    2    0    0  0.51155226457E+01 -0.15581184186E+02 -0.90408547680E+01  0.72461576756E+02  0.70000008418E+02 0.  0.
         12    1    1    2    0    0 -0.51155226457E+01  0.15581184186E+02  0.90408547680E+01  0.18726423244E+02  0.00000000000E+00 0. -1.
         11    1    3    3    0    0  0.96694750895E+00 -0.13956979368E+02 -0.11147723057E+02  0.17888655349E+02  0.51100000000E-03 0. -1.
        -11    1    3    3    0    0 -0.10910775749E+02  0.13655059254E+02 -0.18057151310E+02  0.25130984548E+02  0.51100000000E-03 0.  1.
         12    1    3    3    0    0  0.15059350886E+02 -0.15279264071E+02  0.20164019599E+02  0.29441936860E+02  0.00000000000E+00 0. -1.
</event>
<event>
 7    1  0.3597718E-013  0.7246156E+02  0.7816164E-02  0.1226708E+00
        -11   -1    0    0    0    0  0.00000000000E+00  0.00000000000E+00  0.45593999997E+02  0.45594000000E+02  0.51100000000E-03 0.  1.
         11   -1    0    0    0    0 -0.00000000000E+00 -0.00000000000E+00 -0.45593999997E+02  0.45594000000E+02  0.51100000000E-03 0. -1.
    9900012    2    1    2    0    0  0.17918666025E+02 -0.48641695814E+01 -0.24373786693E+01  0.72461560066E+02  0.69999986676E+02 0.  0.
         12    1    1    2    0    0 -0.17918666025E+02  0.48641695814E+01  0.24373786693E+01  0.18726439934E+02  0.00000000000E+00 0. -1.
         11    1    3    3    0    0  0.61456464413E+01 -0.75914984631E+00 -0.24466023139E+02  0.25237503188E+02  0.51100000000E-03 0. -1.
        -11    1    3    3    0    0  0.10343964135E+02 -0.19005709652E+02  0.13290058358E+01  0.21679041727E+02  0.51100000000E-03 0.  1.
         12    1    3    3    0    0  0.14290554481E+01  0.14900689917E+02  0.20699638634E+02  0.25545015151E+02  0.00000000000E+00 0. -1.
</event>
<event>
 7    1  0.3597718E-013  0.7246154E+02  0.7816164E-02  0.1226708E+00
        -11   -1    0    0    0    0  0.00000000000E+00  0.00000000000E+00  0.45593999997E+02  0.45594000000E+02  0.51100000000E-03 0.  1.
         11   -1    0    0    0    0 -0.00000000000E+00 -0.00000000000E+00 -0.45593999997E+02  0.45594000000E+02  0.51100000000E-03 0. -1.
    9900012    2    1    2    0    0  0.13685443973E+02  0.11403362539E+02  0.57751298636E+01  0.72461543344E+02  0.69999964892E+02 0.  0.
         12    1    1    2    0    0 -0.13685443973E+02 -0.11403362539E+02 -0.57751298636E+01  0.18726456656E+02  0.00000000000E+00 0. -1.
         11    1    3    3    0    0  0.68646156089E+01 -0.13688747448E+02 -0.21748009411E+01  0.15467207684E+02  0.51100000000E-03 0. -1.
        -11    1    3    3    0    0  0.99249292057E+01  0.33353977209E+00  0.24914854277E+02  0.26820988655E+02  0.51100000000E-03 0.  1.
         12    1    3    3    0    0 -0.31041008412E+01  0.24758570214E+02 -0.16964923472E+02  0.30173347005E+02  0.00000000000E+00 0. -1.
</event>
<event>
 7    1  0.3597718E-013  0.7246165E+02  0.7816164E-02  0.1226708E+00
        -11   -1    0    0    0    0  0.00000000000E+00  0.00000000000E+00  0.45593999997E+02  0.45594000000E+02  0.51100000000E-03 0. -1.
         11   -1    0    0    0    0 -0.00000000000E+00 -0.00000000000E+00 -0.45593999997E+02  0.45594000000E+02  0.51100000000E-03 0.  1.
    9900012    2    1    2    0    0 -0.12166233687E+02 -0.14234006471E+02  0.22820340195E+00  0.72461648002E+02  0.70000101229E+02 0.  0.
         12    1    1    2    0    0  0.12166233687E+02  0.14234006471E+02 -0.22820340195E+00  0.18726351998E+02  0.00000000000E+00 0. -1.
         11    1    3    3    0    0 -0.62648940777E+01 -0.15558637488E+02 -0.31026595958E+01  0.17057156712E+02  0.51100000000E-03 0. -1.
        -11    1    3    3    0    0 -0.30252312766E+01 -0.18493459243E+02 -0.18114185738E+02  0.26063073193E+02  0.51100000000E-03 0.  1.
         12    1    3    3    0    0 -0.28761083323E+01  0.19818090259E+02  0.21445048736E+02  0.29341418097E+02  0.00000000000E+00 0. -1.
</event>
<event>
 7    1  0.3597718E-013  0.7246160E+02  0.7816164E-02  0.1226708E+00
        -11   -1    0    0    0    0  0.00000000000E+00  0.00000000000E+00  0.45593999997E+02  0.45594000000E+02  0.51100000000E-03 0. -1.
         11   -1    0    0    0    0 -0.00000000000E+00 -0.00000000000E+00 -0.45593999997E+02  0.45594000000E+02  0.51100000000E-03 0.  1.
    9900012    2    1    2    0    0 -0.16229529079E+02 -0.79582211420E+01 -0.48935794284E+01  0.72461601053E+02  0.70000040069E+02 0.  0.
         12    1    1    2    0    0  0.16229529079E+02  0.79582211420E+01  0.48935794284E+01  0.18726398947E+02  0.00000000000E+00 0. -1.
         11    1    3    3    0    0  0.77280635080E+01 -0.20568069570E+02  0.23740823431E+00  0.21973275003E+02  0.51100000000E-03 0. -1.
        -11    1    3    3    0    0  0.84429472201E+01  0.14905667038E+02  0.19570992844E+01  0.17242172296E+02  0.51100000000E-03 0.  1.
         12    1    3    3    0    0 -0.32400539808E+02 -0.22958186100E+01 -0.70880869472E+01  0.33246153755E+02  0.00000000000E+00 0. -1.
</event>
<event>
 7    1  0.3597718E-013  0.7246160E+02  0.7816164E-02  0.1226708E+00
        -11   -1    0    0    0    0  0.00000000000E+00  0.00000000000E+00  0.45593999997E+02  0.45594000000E+02  0.51100000000E-03 0. -1.
         11   -1    0    0    0    0 -0.00000000000E+00 -0.00000000000E+00 -0.45593999997E+02  0.45594000000E+02  0.51100000000E-03 0.  1.
    9900012    2    1    2    0    0 -0.94826370760E+00 -0.94053550938E+01 -0.16165339773E+02  0.72461598358E+02  0.70000036558E+02 0.  0.
         12    1    1    2    0    0  0.94826370760E+00  0.94053550938E+01  0.16165339773E+02  0.18726401642E+02  0.00000000000E+00 0. -1.
         11    1    3    3    0    0  0.87064372809E+01  0.72159870351E+01 -0.23761625925E+02  0.26315155061E+02  0.51100000000E-03 0.  1.
        -11    1    3    3    0    0 -0.14994946872E+02 -0.16156678934E+02 -0.12504872687E+02  0.25342820424E+02  0.51100000000E-03 0. -1.
         12    1    3    3    0    0  0.53402458830E+01 -0.46466319517E+00  0.20101158839E+02  0.20803622873E+02  0.00000000000E+00 0. -1.
</event>
<event>
 7    1  0.3597718E-013  0.7246160E+02  0.7816164E-02  0.1226708E+00
        -11   -1    0    0    0    0  0.00000000000E+00  0.00000000000E+00  0.45593999997E+02  0.45594000000E+02  0.51100000000E-03 0.  1.
         11   -1    0    0    0    0 -0.00000000000E+00 -0.00000000000E+00 -0.45593999997E+02  0.45594000000E+02  0.51100000000E-03 0. -1.
    9900012    2    1    2    0    0 -0.11908701307E+02  0.95706695196E+01  0.10828806787E+02  0.72461603168E+02  0.70000042825E+02 0.  0.
         12    1    1    2    0    0  0.11908701307E+02 -0.95706695196E+01 -0.10828806787E+02  0.18726396832E+02  0.00000000000E+00 0. -1.
         11    1    3    3    0    0  0.14105353131E+02  0.21194779092E+02  0.11832972731E+01  0.25486856228E+02  0.51100000000E-03 0. -1.
        -11    1    3    3    0    0 -0.22686666764E+02  0.93387934678E+01  0.29059188919E+01  0.24705106297E+02  0.51100000000E-03 0.  1.
        -12    1    3    3    0    0 -0.33273876737E+01 -0.20962903041E+02  0.67395906220E+01  0.22269640643E+02  0.00000000000E+00 0.  1.
</event>
<event>
 7    1  0.3597718E-013  0.7246152E+02  0.7816164E-02  0.1226708E+00
        -11   -1    0    0    0    0  0.00000000000E+00  0.00000000000E+00  0.45593999997E+02  0.45594000000E+02  0.51100000000E-03 0. -1.
         11   -1    0    0    0    0 -0.00000000000E+00 -0.00000000000E+00 -0.45593999997E+02  0.45594000000E+02  0.51100000000E-03 0.  1.
    9900012    2    1    2    0    0 -0.10822623956E+02  0.36170785593E+01 -0.14848183797E+02  0.72461521189E+02  0.69999936031E+02 0.  0.
         12    1    1    2    0    0  0.10822623956E+02 -0.36170785593E+01  0.14848183797E+02  0.18726478811E+02  0.00000000000E+00 0. -1.
         11    1    3    3    0    0 -0.29352539657E+02  0.46437715875E+01  0.53863635851E+01  0.30201806432E+02  0.51100000000E-03 0. -1.
        -11    1    3    3    0    0 -0.37894406720E+01 -0.52865542274E+01 -0.18339259223E+02  0.19458569971E+02  0.51100000000E-03 0.  1.
        -12    1    3    3    0    0  0.22319356373E+02  0.42598611992E+01 -0.18952881598E+01  0.22801144786E+02  0.00000000000E+00 0.  1.
</event>
<event>
 7    1  0.3597718E-013  0.7246156E+02  0.7816164E-02  0.1226708E+00
        -11   -1    0    0    0    0  0.00000000000E+00  0.00000000000E+00  0.45593999997E+02  0.45594000000E+02  0.51100000000E-03 0. -1.
         11   -1    0    0    0    0 -0.00000000000E+00 -0.00000000000E+00 -0.45593999997E+02  0.45594000000E+02  0.51100000000E-03 0.  1.
    9900012    2    1    2    0    0 -0.17557418697E+02  0.27320896879E+01  0.59120383488E+01  0.72461562463E+02  0.69999989799E+02 0.  0.
         12    1    1    2    0    0  0.17557418697E+02 -0.27320896879E+01 -0.59120383488E+01  0.18726437537E+02  0.00000000000E+00 0. -1.
         11    1    3    3    0    0  0.67948301913E+01  0.71886373624E+01 -0.31049150561E+01  0.10367580346E+02  0.51100000000E-03 0. -1.
        -11    1    3    3    0    0  0.20204261430E+01  0.19377552036E+02 -0.98710563995E+01  0.21840544852E+02  0.51100000000E-03 0.  1.
         12    1    3    3    0    0 -0.26372675031E+02 -0.23834099711E+02  0.18888009805E+02  0.40253437266E+02  0.00000000000E+00 0. -1.
</event>
<event>
 7    1  0.3597718E-013  0.7246177E+02  0.7816164E-02  0.1226707E+00
        -11   -1    0    0    0    0  0.00000000000E+00  0.00000000000E+00  0.45593999997E+02  0.45594000000E+02  0.51100000000E-03 0.  1.
         11   -1    0    0    0    0 -0.00000000000E+00 -0.00000000000E+00 -0.45593999997E+02  0.45594000000E+02  0.51100000000E-03 0. -1.
    9900012    2    1    2    0    0  0.13253709169E+02 -0.92895916086E+01  0.94188318200E+01  0.72461769417E+02  0.70000259394E+02 0.  0.
         12    1    1    2    0    0 -0.13253709169E+02  0.92895916086E+01 -0.94188318200E+01  0.18726230583E+02  0.00000000000E+00 0. -1.
         11    1    3    3    0    0  0.14419858411E+02  0.41418251945E+01  0.71053205917E+01  0.16600379921E+02  0.51100000000E-03 0. -1.
        -11    1    3    3    0    0 -0.15539179022E+02  0.14390409804E+02  0.10289877965E+02  0.23546370587E+02  0.51100000000E-03 0.  1.
        -12    1    3    3    0    0  0.14373029780E+02 -0.27821826607E+02 -0.79763667363E+01  0.32315018910E+02  0.00000000000E+00 0.  1.
</event>
<event>
 7    1  0.3597718E-013  0.7246153E+02  0.7816164E-02  0.1226708E+00
        -11   -1    0    0    0    0  0.00000000000E+00  0.00000000000E+00  0.45593999997E+02  0.45594000000E+02  0.51100000000E-03 0.  1.
         11   -1    0    0    0    0 -0.00000000000E+00 -0.00000000000E+00 -0.45593999997E+02  0.45594000000E+02  0.51100000000E-03 0. -1.
    9900012    2    1    2    0    0 -0.27691900014E+01  0.17227070546E+02 -0.68000143714E+01  0.72461532947E+02  0.69999951348E+02 0.  0.
         12    1    1    2    0    0  0.27691900014E+01 -0.17227070546E+02  0.68000143714E+01  0.18726467053E+02  0.00000000000E+00 0. -1.
         11    1    3    3    0    0  0.73988761839E+01 -0.13495439424E+02 -0.13193930983E+02  0.20271903440E+02  0.51100000000E-03 0. -1.
        -11    1    3    3    0    0  0.15760256467E+01 -0.20621922766E+01  0.15884277518E+02  0.16094929833E+02  0.51100000000E-03 0.  1.
        -12    1    3    3    0    0 -0.11744091832E+02  0.32784702247E+02 -0.94903609061E+01  0.36094699673E+02  0.00000000000E+00 0.  1.
</event>
<event>
 7    1  0.3597718E-013  0.7246156E+02  0.7816164E-02  0.1226708E+00
        -11   -1    0    0    0    0  0.00000000000E+00  0.00000000000E+00  0.45593999997E+02  0.45594000000E+02  0.51100000000E-03 0. -1.
         11   -1    0    0    0    0 -0.00000000000E+00 -0.00000000000E+00 -0.45593999997E+02  0.45594000000E+02  0.51100000000E-03 0.  1.
    9900012    2    1    2    0    0 -0.14415225488E+02  0.63624329260E+01 -0.10119297842E+02  0.72461562340E+02  0.69999989639E+02 0.  0.
         12    1    1    2    0    0  0.14415225488E+02 -0.63624329260E+01  0.10119297842E+02  0.18726437660E+02  0.00000000000E+00 0. -1.
         11    1    3    3    0    0  0.33551448249E+01  0.32962590982E+01  0.12280613056E+02  0.13150504863E+02  0.51100000000E-03 0. -1.
        -11    1    3    3    0    0  0.10993056109E+02  0.84185213042E+01  0.89050821451E+01  0.16462662963E+02  0.51100000000E-03 0.  1.
        -12    1    3    3    0    0 -0.28763426422E+02 -0.53523474764E+01 -0.31304993044E+02  0.42848394515E+02  0.00000000000E+00 0.  1.
</event>
<event>
 7    1  0.3597718E-013  0.7246158E+02  0.7816164E-02  0.1226708E+00
        -11   -1    0    0    0    0  0.00000000000E+00  0.00000000000E+00  0.45593999997E+02  0.45594000000E+02  0.51100000000E-03 0.  1.
         11   -1    0    0    0    0 -0.00000000000E+00 -0.00000000000E+00 -0.45593999997E+02  0.45594000000E+02  0.51100000000E-03 0. -1.
    9900012    2    1    2    0    0 -0.11300794710E+02 -0.62335741804E+01  0.13568838134E+02  0.72461580789E+02  0.70000013672E+02 0.  0.
         12    1    1    2    0    0  0.11300794710E+02  0.62335741804E+01 -0.13568838134E+02  0.18726419211E+02  0.00000000000E+00 0. -1.
         11    1    3    3    0    0 -0.19062008131E+02 -0.12106716857E+01  0.74827586098E-01  0.19100562278E+02  0.51100000000E-03 0. -1.
        -11    1    3    3    0    0 -0.32473504922E+01  0.20391071835E+02  0.15159053979E+02  0.25615191071E+02  0.51100000000E-03 0.  1.
        -12    1    3    3    0    0  0.11008563914E+02 -0.25413974330E+02 -0.16650434306E+01  0.27745827440E+02  0.00000000000E+00 0.  1.
</event>
<event>
 7    1  0.3597718E-013  0.7246196E+02  0.7816164E-02  0.1226707E+00
        -11   -1    0    0    0    0  0.00000000000E+00  0.00000000000E+00  0.45593999997E+02  0.45594000000E+02  0.51100000000E-03 0. -1.
         11   -1    0    0    0    0 -0.00000000000E+00 -0.00000000000E+00 -0.45593999997E+02  0.45594000000E+02  0.51100000000E-03 0.  1.
    9900012    2    1    2    0    0  0.59651496627E+01 -0.16500454909E+02  0.65434372232E+01  0.72461959485E+02  0.70000506991E+02 0.  0.
         12    1    1    2    0    0 -0.59651496627E+01  0.16500454909E+02 -0.65434372232E+01  0.18726040515E+02  0.00000000000E+00 0. -1.
         11    1    3    3    0    0 -0.98777592141E+01  0.87599193007E+00  0.15516071335E+02  0.18414286814E+02  0.51100000000E-03 0. -1.
        -11    1    3    3    0    0 -0.10633036300E+02 -0.20529166152E+02 -0.13838069979E+02  0.26944392828E+02  0.51100000000E-03 0.  1.
        -12    1    3    3    0    0  0.26475945177E+02  0.31527193133E+01  0.48654358675E+01  0.27103279843E+02  0.00000000000E+00 0.  1.
</event>
<event>
 7    1  0.3597718E-013  0.7246228E+02  0.7816164E-02  0.1226706E+00
        -11   -1    0    0    0    0  0.00000000000E+00  0.00000000000E+00  0.45593999997E+02  0.45594000000E+02  0.51100000000E-03 0.  1.
         11   -1    0    0    0    0 -0.00000000000E+00 -0.00000000000E+00 -0.45593999997E+02  0.45594000000E+02  0.51100000000E-03 0. -1.
    9900012    2    1    2    0    0 -0.50933649173E+01 -0.13861521583E+02  0.11513829461E+02  0.72462284643E+02  0.70000930565E+02 0.  0.
         12    1    1    2    0    0  0.50933649173E+01  0.13861521583E+02 -0.11513829461E+02  0.18725715357E+02  0.00000000000E+00 0. -1.
         11    1    3    3    0    0  0.11494829033E+02  0.28601590823E+01  0.72401679280E+01  0.13882782011E+02  0.51100000000E-03 0. -1.
        -11    1    3    3    0    0  0.19101692206E+02 -0.43033864814E+01 -0.37805018202E+01  0.19942065455E+02  0.51100000000E-03 0.  1.
        -12    1    3    3    0    0 -0.35689886156E+02 -0.12418294184E+02  0.80541633528E+01  0.38637437177E+02  0.00000000000E+00 0.  1.
</event>
<event>
 7    1  0.3597718E-013  0.7246158E+02  0.7816164E-02  0.1226708E+00
        -11   -1    0    0    0    0  0.00000000000E+00  0.00000000000E+00  0.45593999997E+02  0.45594000000E+02  0.51100000000E-03 0. -1.
         11   -1    0    0    0    0 -0.00000000000E+00 -0.00000000000E+00 -0.45593999997E+02  0.45594000000E+02  0.51100000000E-03 0.  1.
    9900012    2    1    2    0    0 -0.63786830681E+01 -0.14791981902E+02 -0.95492720065E+01  0.72461576900E+02  0.70000008605E+02 0.  0.
         12    1    1    2    0    0  0.63786830681E+01  0.14791981902E+02  0.95492720065E+01  0.18726423100E+02  0.00000000000E+00 0. -1.
         11    1    3    3    0    0  0.83210616650E+01  0.20145508941E+02 -0.19608109111E+02  0.29318245870E+02  0.51100000000E-03 0. -1.
        -11    1    3    3    0    0 -0.79348855229E+01 -0.15995224504E+02 -0.43785567339E+01  0.18384269757E+02  0.51100000000E-03 0.  1.
        -12    1    3    3    0    0 -0.67648592101E+01 -0.18942266340E+02  0.14437393839E+02  0.24759061272E+02  0.00000000000E+00 0.  1.
</event>
<event>
 7    1  0.3597718E-013  0.7246169E+02  0.7816164E-02  0.1226708E+00
        -11   -1    0    0    0    0  0.00000000000E+00  0.00000000000E+00  0.45593999997E+02  0.45594000000E+02  0.51100000000E-03 0. -1.
         11   -1    0    0    0    0 -0.00000000000E+00 -0.00000000000E+00 -0.45593999997E+02  0.45594000000E+02  0.51100000000E-03 0.  1.
    9900012    2    1    2    0    0  0.33305224753E+01 -0.74878097887E+01 -0.16837906293E+02  0.72461687931E+02  0.70000153243E+02 0.  0.
         12    1    1    2    0    0 -0.33305224753E+01  0.74878097887E+01  0.16837906293E+02  0.18726312069E+02  0.00000000000E+00 0. -1.
         11    1    3    3    0    0  0.22996469421E+01  0.47591183011E+01  0.24805626629E+02  0.25362505708E+02  0.51100000000E-03 0. -1.
        -11    1    3    3    0    0 -0.77030611320E+01 -0.10100067755E+01 -0.15038085696E+02  0.16926348873E+02  0.51100000000E-03 0.  1.
        -12    1    3    3    0    0  0.87339366652E+01 -0.11236921314E+02 -0.26605447225E+02  0.30172833350E+02  0.00000000000E+00 0.  1.
</event>
<event>
 7    1  0.3597718E-013  0.7246144E+02  0.7816164E-02  0.1226708E+00
        -11   -1    0    0    0    0  0.00000000000E+00  0.00000000000E+00  0.45593999997E+02  0.45594000000E+02  0.51100000000E-03 0.  1.
         11   -1    0    0    0    0 -0.00000000000E+00 -0.00000000000E+00 -0.45593999997E+02  0.45594000000E+02  0.51100000000E-03 0. -1.
    9900012    2    1    2    0    0  0.13753841920E+02  0.10533265554E+02 -0.71109890768E+01  0.72461440881E+02  0.69999831415E+02 0.  0.
         12    1    1    2    0    0 -0.13753841920E+02 -0.10533265554E+02  0.71109890768E+01  0.18726559119E+02  0.00000000000E+00 0. -1.
         11    1    3    3    0    0  0.10003311451E+02  0.12045352158E+02 -0.26650944812E+02  0.30910024397E+02  0.51100000000E-03 0. -1.
        -11    1    3    3    0    0  0.55316280390E+01  0.16660535308E+02  0.14047855222E+02  0.22483651441E+02  0.51100000000E-03 0.  1.
        -12    1    3    3    0    0 -0.17810975706E+01 -0.18172621912E+02  0.54921005131E+01  0.19067765044E+02  0.00000000000E+00 0.  1.
</event>
<event>
 7    1  0.3597718E-013  0.7246156E+02  0.7816164E-02  0.1226708E+00
        -11   -1    0    0    0    0  0.00000000000E+00  0.00000000000E+00  0.45593999997E+02  0.45594000000E+02  0.51100000000E-03 0. -1.
         11   -1    0    0    0    0 -0.00000000000E+00 -0.00000000000E+00 -0.45593999997E+02  0.45594000000E+02  0.51100000000E-03 0.  1.
    9900012    2    1    2    0    0 -0.18022198308E+01  0.20113006019E+01 -0.18530686944E+02  0.72461556529E+02  0.69999982069E+02 0.  0.
         12    1    1    2    0    0  0.18022198308E+01 -0.20113006019E+01  0.18530686944E+02  0.18726443471E+02  0.00000000000E+00 0. -1.
         11    1    3    3    0    0 -0.17553696250E+02 -0.16698911549E+02 -0.25566809929E+02  0.35222828807E+02  0.51100000000E-03 0. -1.
        -11    1    3    3    0    0 -0.18561263990E+01 -0.14432777868E+00 -0.74314953861E+01  0.76611461056E+01  0.51100000000E-03 0.  1.
         12    1    3    3    0    0  0.17607602819E+02  0.18854539930E+02  0.14467618371E+02  0.29577581617E+02  0.00000000000E+00 0. -1.
</event>
<event>
 7    1  0.3597718E-013  0.7246163E+02  0.7816164E-02  0.1226708E+00
        -11   -1    0    0    0    0  0.00000000000E+00  0.00000000000E+00  0.45593999997E+02  0.45594000000E+02  0.51100000000E-03 0. -1.
         11   -1    0    0    0    0 -0.00000000000E+00 -0.00000000000E+00 -0.45593999997E+02  0.45594000000E+02  0.51100000000E-03 0.  1.
    9900012    2    1    2    0    0 -0.10682233191E+02 -0.14537379564E+02 -0.50230948497E+01  0.72461628424E+02  0.70000075725E+02 0.  0.
         12    1    1    2    0    0  0.10682233191E+02  0.14537379564E+02  0.50230948497E+01  0.18726371576E+02  0.00000000000E+00 0. -1.
         11    1    3    3    0    0 -0.31866109339E+01 -0.28325592274E+02 -0.10057577213E+02  0.30226619503E+02  0.51100000000E-03 0.  1.
        -11    1    3    3    0    0 -0.18620747675E+01  0.13868839915E+02 -0.15534869097E+02  0.20907993715E+02  0.51100000000E-03 0. -1.
         12    1    3    3    0    0 -0.56335474893E+01 -0.80627205139E-01  0.20569351461E+02  0.21327015206E+02  0.00000000000E+00 0. -1.
</event>
<event>
 7    1  0.3597718E-013  0.7246153E+02  0.7816164E-02  0.1226708E+00
        -11   -1    0    0    0    0  0.00000000000E+00  0.00000000000E+00  0.45593999997E+02  0.45594000000E+02  0.51100000000E-03 0. -1.
         11   -1    0    0    0    0 -0.00000000000E+00 -0.00000000000E+00 -0.45593999997E+02  0.45594000000E+02  0.51100000000E-03 0.  1.
    9900012    2    1    2    0    0 -0.75406237157E+01 -0.15115775586E+02  0.80828853895E+01  0.72461529061E+02  0.69999946287E+02 0.  0.
         12    1    1    2    0    0  0.75406237157E+01  0.15115775586E+02 -0.80828853895E+01  0.18726470939E+02  0.00000000000E+00 0. -1.
         11    1    3    3    0    0 -0.78468930858E-01  0.59330358984E+01 -0.15291114091E+01  0.61274182416E+01  0.51100000000E-03 0. -1.
        -11    1    3    3    0    0  0.67333900120E+01  0.19223450383E+02  0.11867517711E+02  0.23573662476E+02  0.51100000000E-03 0.  1.
         12    1    3    3    0    0 -0.14195544797E+02 -0.40272261867E+02 -0.22555209122E+01  0.42760448344E+02  0.00000000000E+00 0. -1.
</event>
<event>
 7    1  0.3597718E-013  0.7246156E+02  0.7816164E-02  0.1226708E+00
        -11   -1    0    0    0    0  0.00000000000E+00  0.00000000000E+00  0.45593999997E+02  0.45594000000E+02  0.51100000000E-03 0.  1.
         11   -1    0    0    0    0 -0.00000000000E+00 -0.00000000000E+00 -0.45593999997E+02  0.45594000000E+02  0.51100000000E-03 0. -1.
    9900012    2    1    2    0    0  0.13070233855E+02  0.64508944087E+01 -0.11757323152E+02  0.72461556146E+02  0.69999981569E+02 0.  0.
         12    1    1    2    0    0 -0.13070233855E+02 -0.64508944087E+01  0.11757323152E+02  0.18726443854E+02  0.00000000000E+00 0. -1.
         11    1    3    3    0    0 -0.24498618701E+01 -0.66732325167E+01  0.24181571582E+01  0.75087508753E+01  0.51100000000E-03 0. -1.
        -11    1    3    3    0    0  0.56260274731E+01 -0.21845066742E+02  0.60590330495E+01  0.23357461502E+02  0.51100000000E-03 0.  1.
         12    1    3    3    0    0  0.98940682525E+01  0.34969193667E+02 -0.20234513360E+02  0.41595343768E+02  0.00000000000E+00 0. -1.
</event>
<event>
 7    1  0.3597718E-013  0.7246134E+02  0.7816164E-02  0.1226709E+00
        -11   -1    0    0    0    0  0.00000000000E+00  0.00000000000E+00  0.45593999997E+02  0.45594000000E+02  0.51100000000E-03 0.  1.
         11   -1    0    0    0    0 -0.00000000000E+00 -0.00000000000E+00 -0.45593999997E+02  0.45594000000E+02  0.51100000000E-03 0. -1.
    9900012    2    1    2    0    0 -0.24832754020E+01  0.17403584774E+02  0.64526182353E+01  0.72461342482E+02  0.69999703231E+02 0.  0.
         12    1    1    2    0    0  0.24832754020E+01 -0.17403584774E+02 -0.64526182353E+01  0.18726657518E+02  0.00000000000E+00 0. -1.
         11    1    3    3    0    0  0.50337425476E+01  0.40755518329E+02 -0.56669058418E+01  0.41454368411E+02  0.51100000000E-03 0. -1.
        -11    1    3    3    0    0 -0.25447576850E+01 -0.31392703095E+01 -0.32060189012E+01  0.51584268152E+01  0.51100000000E-03 0.  1.
        -12    1    3    3    0    0 -0.49722602645E+01 -0.20212663245E+02  0.15325542978E+02  0.25848547255E+02  0.00000000000E+00 0.  1.
</event>
<event>
 7    1  0.3597718E-013  0.7246158E+02  0.7816164E-02  0.1226708E+00
        -11   -1    0    0    0    0  0.00000000000E+00  0.00000000000E+00  0.45593999997E+02  0.45594000000E+02  0.51100000000E-03 0.  1.
         11   -1    0    0    0    0 -0.00000000000E+00 -0.00000000000E+00 -0.45593999997E+02  0.45594000000E+02  0.51100000000E-03 0. -1.
    9900012    2    1    2    0    0 -0.10802617962E+02  0.11470670133E+02  0.10119589944E+02  0.72461576722E+02  0.70000008374E+02 0.  0.
         12    1    1    2    0    0  0.10802617962E+02 -0.11470670133E+02 -0.10119589944E+02  0.18726423278E+02  0.00000000000E+00 0. -1.
         11    1    3    3    0    0  0.11864299517E+02  0.10058163609E+01  0.25562771411E+02  0.28199797021E+02  0.51100000000E-03 0. -1.
        -11    1    3    3    0    0 -0.41251761887E+00  0.10371034255E+02  0.71070467004E+01  0.12579293914E+02  0.51100000000E-03 0.  1.
        -12    1    3    3    0    0 -0.22254399860E+02  0.93819517167E-01 -0.22550228168E+02  0.31682485787E+02  0.00000000000E+00 0.  1.
</event>
<event>
 7    1  0.3597718E-013  0.7246157E+02  0.7816164E-02  0.1226708E+00
        -11   -1    0    0    0    0  0.00000000000E+00  0.00000000000E+00  0.45593999997E+02  0.45594000000E+02  0.51100000000E-03 0.  1.
         11   -1    0    0    0    0 -0.00000000000E+00 -0.00000000000E+00 -0.45593999997E+02  0.45594000000E+02  0.51100000000E-03 0. -1.
    9900012    2    1    2    0    0 -0.16429231277E+02 -0.89776454390E+01 -0.40183524330E+00  0.72461568691E+02  0.69999997912E+02 0.  0.
         12    1    1    2    0    0  0.16429231277E+02  0.89776454390E+01  0.40183524330E+00  0.18726431309E+02  0.00000000000E+00 0. -1.
         11    1    3    3    0    0  0.83774857919E+01 -0.25336103137E+02 -0.10805076173E+02  0.28789756194E+02  0.51100000000E-03 0. -1.
        -11    1    3    3    0    0 -0.41749351442E+01 -0.46529812908E+01 -0.70645182492E+01  0.94333311563E+01  0.51100000000E-03 0.  1.
        -12    1    3    3    0    0 -0.20631781925E+02  0.21011438989E+02  0.17467759179E+02  0.34238481341E+02  0.00000000000E+00 0.  1.
</event>
<event>
 7    1  0.3597718E-013  0.7246157E+02  0.7816164E-02  0.1226708E+00
        -11   -1    0    0    0    0  0.00000000000E+00  0.00000000000E+00  0.45593999997E+02  0.45594000000E+02  0.51100000000E-03 0.  1.
         11   -1    0    0    0    0 -0.00000000000E+00 -0.00000000000E+00 -0.45593999997E+02  0.45594000000E+02  0.51100000000E-03 0. -1.
    9900012    2    1    2    0    0  0.27304483021E+01 -0.40846892382E+01  0.18070397758E+02  0.72461566564E+02  0.69999995141E+02 0.  0.
         12    1    1    2    0    0 -0.27304483021E+01  0.40846892382E+01 -0.18070397758E+02  0.18726433436E+02  0.00000000000E+00 0. -1.
         11    1    3    3    0    0  0.37420762630E+01  0.22390178046E+02 -0.30112118542E+01  0.22899576520E+02  0.51100000000E-03 0. -1.
        -11    1    3    3    0    0  0.16606912666E+02 -0.18739246184E+02  0.79672456382E+01  0.26275956675E+02  0.51100000000E-03 0.  1.
        -12    1    3    3    0    0 -0.17618540627E+02 -0.77356211001E+01  0.13114363974E+02  0.23286033369E+02  0.00000000000E+00 0.  1.
</event>
<event>
 7    1  0.3597718E-013  0.7246169E+02  0.7816164E-02  0.1226708E+00
        -11   -1    0    0    0    0  0.00000000000E+00  0.00000000000E+00  0.45593999997E+02  0.45594000000E+02  0.51100000000E-03 0.  1.
         11   -1    0    0    0    0 -0.00000000000E+00 -0.00000000000E+00 -0.45593999997E+02  0.45594000000E+02  0.51100000000E-03 0. -1.
    9900012    2    1    2    0    0 -0.11033936253E+02  0.13279004840E+02  0.72522486500E+01  0.72461686181E+02  0.70000150963E+02 0.  0.
         12    1    1    2    0    0  0.11033936253E+02 -0.13279004840E+02 -0.72522486500E+01  0.18726313819E+02  0.00000000000E+00 0. -1.
         11    1    3    3    0    0 -0.22337018504E+02 -0.67869733101E+00 -0.40244500753E+01  0.22706810088E+02  0.51100000000E-03 0. -1.
        -11    1    3    3    0    0  0.23142053039E+01  0.14854079714E+02 -0.15441516204E+02  0.21550862008E+02  0.51100000000E-03 0.  1.
        -12    1    3    3    0    0  0.89888769470E+01 -0.89637754265E+00  0.26718214930E+02  0.28204014085E+02  0.00000000000E+00 0.  1.
</event>
<event>
 7    1  0.3597718E-013  0.7246188E+02  0.7816164E-02  0.1226707E+00
        -11   -1    0    0    0    0  0.00000000000E+00  0.00000000000E+00  0.45593999997E+02  0.45594000000E+02  0.51100000000E-03 0.  1.
         11   -1    0    0    0    0 -0.00000000000E+00 -0.00000000000E+00 -0.45593999997E+02  0.45594000000E+02  0.51100000000E-03 0. -1.
    9900012    2    1    2    0    0  0.19200553323E+00 -0.12275087636E+01  0.18684853313E+02  0.72461884887E+02  0.70000409814E+02 0.  0.
         12    1    1    2    0    0 -0.19200553323E+00  0.12275087636E+01 -0.18684853313E+02  0.18726115113E+02  0.00000000000E+00 0. -1.
         11    1    3    3    0    0  0.11889624704E+02  0.71857477685E+01  0.31313277021E+01  0.14240904467E+02  0.51100000000E-03 0. -1.
        -11    1    3    3    0    0 -0.15925509196E+02 -0.28657312818E+02  0.76034277274E+00  0.32793925390E+02  0.51100000000E-03 0.  1.
         12    1    3    3    0    0  0.42278900251E+01  0.20244056286E+02  0.14793182838E+02  0.25427055029E+02  0.00000000000E+00 0. -1.
</event>
<event>
 7    1  0.3597718E-013  0.7246083E+02  0.7816164E-02  0.1226710E+00
        -11   -1    0    0    0    0  0.00000000000E+00  0.00000000000E+00  0.45593999997E+02  0.45594000000E+02  0.51100000000E-03 0.  1.
         11   -1    0    0    0    0 -0.00000000000E+00 -0.00000000000E+00 -0.45593999997E+02  0.45594000000E+02  0.51100000000E-03 0. -1.
    9900012    2    1    2    0    0  0.18030453123E+01  0.14653607043E+02  0.11520747338E+02  0.72460832809E+02  0.69999039282E+02 0.  0.
         12    1    1    2    0    0 -0.18030453123E+01 -0.14653607043E+02 -0.11520747338E+02  0.18727167191E+02  0.00000000000E+00 0. -1.
         11    1    3    3    0    0  0.10479003105E+02 -0.20725525234E+02  0.11692225292E+01  0.23253472513E+02  0.51100000000E-03 0. -1.
        -11    1    3    3    0    0  0.11492651284E+02  0.16485574472E+02  0.73960616117E+01  0.21413942347E+02  0.51100000000E-03 0.  1.
        -12    1    3    3    0    0 -0.20168609077E+02  0.18893557805E+02  0.29554631969E+01  0.27793417950E+02  0.00000000000E+00 0.  1.
</event>
<event>
 7    1  0.3597718E-013  0.7246154E+02  0.7816164E-02  0.1226708E+00
        -11   -1    0    0    0    0  0.00000000000E+00  0.00000000000E+00  0.45593999997E+02  0.45594000000E+02  0.51100000000E-03 0. -1.
         11   -1    0    0    0    0 -0.00000000000E+00 -0.00000000000E+00 -0.45593999997E+02  0.45594000000E+02  0.51100000000E-03 0.  1.
    9900012    2    1    2    0    0 -0.22259714208E+01  0.18163323948E+02 -0.39773004121E+01  0.72461542669E+02  0.69999964013E+02 0.  0.
         12    1    1    2    0    0  0.22259714208E+01 -0.18163323948E+02  0.39773004121E+01  0.18726457331E+02  0.00000000000E+00 0. -1.
         11    1    3    3    0    0 -0.12057524071E+02 -0.74468126593E+01 -0.18157228071E+01  0.14287608445E+02  0.51100000000E-03 0. -1.
        -11    1    3    3    0    0  0.30079812695E+02  0.19645555379E+02 -0.67926262824E+01  0.36563407254E+02  0.51100000000E-03 0.  1.
         12    1    3    3    0    0 -0.20248260045E+02  0.59645812284E+01  0.46310486774E+01  0.21610526970E+02  0.00000000000E+00 0. -1.
</event>
<event>
 7    1  0.3597718E-013  0.7246157E+02  0.7816164E-02  0.1226708E+00
        -11   -1    0    0    0    0  0.00000000000E+00  0.00000000000E+00  0.45593999997E+02  0.45594000000E+02  0.51100000000E-03 0. -1.
         11   -1    0    0    0    0 -0.00000000000E+00 -0.00000000000E+00 -0.45593999997E+02  0.45594000000E+02  0.51100000000E-03 0.  1.
    9900012    2    1    2    0    0 -0.56581218834E+01  0.13666030612E+02 -0.11484974056E+02  0.72461565075E+02  0.69999993201E+02 0.  0.
         12    1    1    2    0    0  0.56581218834E+01 -0.13666030612E+02  0.11484974056E+02  0.18726434925E+02  0.00000000000E+00 0. -1.
         11    1    3    3    0    0 -0.12203196196E+02  0.15418798866E+02 -0.65882124696E+01  0.20737933833E+02  0.51100000000E-03 0. -1.
        -11    1    3    3    0    0 -0.11434343861E+02  0.10768131825E+01 -0.23215074530E+02  0.25900645395E+02  0.51100000000E-03 0.  1.
        -12    1    3    3    0    0  0.17979418173E+02 -0.28295814364E+01  0.18318312944E+02  0.25822985848E+02  0.00000000000E+00 0.  1.
</event>
<event>
 7    1  0.3597718E-013  0.7246157E+02  0.7816164E-02  0.1226708E+00
        -11   -1    0    0    0    0  0.00000000000E+00  0.00000000000E+00  0.45593999997E+02  0.45594000000E+02  0.51100000000E-03 0. -1.
         11   -1    0    0    0    0 -0.00000000000E+00 -0.00000000000E+00 -0.45593999997E+02  0.45594000000E+02  0.51100000000E-03 0.  1.
    9900012    2    1    2    0    0  0.83016970200E+01 -0.16296005715E+02 -0.40250723412E+01  0.72461569934E+02  0.69999999530E+02 0.  0.
         12    1    1    2    0    0 -0.83016970200E+01  0.16296005715E+02  0.40250723412E+01  0.18726430066E+02  0.00000000000E+00 0. -1.
         11    1    3    3    0    0  0.21766745579E+02 -0.22346786801E+02  0.89602226896E+00  0.31208539690E+02  0.51100000000E-03 0. -1.
        -11    1    3    3    0    0  0.51009195620E+01 -0.12233534856E+02  0.37766103832E+01  0.13781928083E+02  0.51100000000E-03 0.  1.
        -12    1    3    3    0    0 -0.18565968121E+02  0.18284315942E+02 -0.86977049934E+01  0.27471102160E+02  0.00000000000E+00 0.  1.
</event>
<event>
 7    1  0.3597718E-013  0.7246166E+02  0.7816164E-02  0.1226708E+00
        -11   -1    0    0    0    0  0.00000000000E+00  0.00000000000E+00  0.45593999997E+02  0.45594000000E+02  0.51100000000E-03 0.  1.
         11   -1    0    0    0    0 -0.00000000000E+00 -0.00000000000E+00 -0.45593999997E+02  0.45594000000E+02  0.51100000000E-03 0. -1.
    9900012    2    1    2    0    0  0.18052903280E+01 -0.76873404452E+01  0.16980028217E+02  0.72461664679E+02  0.70000122954E+02 0.  0.
         12    1    1    2    0    0 -0.18052903280E+01  0.76873404452E+01 -0.16980028217E+02  0.18726335321E+02  0.00000000000E+00 0. -1.
         11    1    3    3    0    0  0.83744641603E+01  0.62259999862E+01 -0.24412156466E+01  0.10717007973E+02  0.51100000000E-03 0. -1.
        -11    1    3    3    0    0  0.11332826814E+02  0.66540782962E+01  0.29799879997E+02  0.32569043118E+02  0.51100000000E-03 0.  1.
         12    1    3    3    0    0 -0.17902000646E+02 -0.20567418728E+02 -0.10378636133E+02  0.29175613588E+02  0.00000000000E+00 0. -1.
</event>
<event>
 7    1  0.3597718E-013  0.7246155E+02  0.7816164E-02  0.1226708E+00
        -11   -1    0    0    0    0  0.00000000000E+00  0.00000000000E+00  0.45593999997E+02  0.45594000000E+02  0.51100000000E-03 0. -1.
         11   -1    0    0    0    0 -0.00000000000E+00 -0.00000000000E+00 -0.45593999997E+02  0.45594000000E+02  0.51100000000E-03 0.  1.
    9900012    2    1    2    0    0  0.59793090893E+01 -0.83338511974E+01 -0.15667632003E+02  0.72461550642E+02  0.69999974400E+02 0.  0.
         12    1    1    2    0    0 -0.59793090893E+01  0.83338511974E+01  0.15667632003E+02  0.18726449358E+02  0.00000000000E+00 0. -1.
         11    1    3    3    0    0  0.13708353555E+02 -0.19065587824E+02  0.44268008204E+01  0.23895860773E+02  0.51100000000E-03 0. -1.
        -11    1    3    3    0    0  0.16519036665E+02  0.40517564934E+01 -0.10934218264E+01  0.17043792846E+02  0.51100000000E-03 0.  1.
        -12    1    3    3    0    0 -0.24248081131E+02  0.66799801336E+01 -0.19001010997E+02  0.31521897024E+02  0.00000000000E+00 0.  1.
</event>
<event>
 7    1  0.3597718E-013  0.7246203E+02  0.7816164E-02  0.1226707E+00
        -11   -1    0    0    0    0  0.00000000000E+00  0.00000000000E+00  0.45593999997E+02  0.45594000000E+02  0.51100000000E-03 0.  1.
         11   -1    0    0    0    0 -0.00000000000E+00 -0.00000000000E+00 -0.45593999997E+02  0.45594000000E+02  0.51100000000E-03 0. -1.
    9900012    2    1    2    0    0  0.11486612451E+02  0.80348921918E+01  0.12416124039E+02  0.72462031553E+02  0.70000600872E+02 0.  0.
         12    1    1    2    0    0 -0.11486612451E+02 -0.80348921918E+01 -0.12416124039E+02  0.18725968447E+02  0.00000000000E+00 0. -1.
         11    1    3    3    0    0 -0.43275910028E+01  0.13250921311E+02  0.46458942870E+01  0.14693511951E+02  0.51100000000E-03 0. -1.
        -11    1    3    3    0    0  0.13290448237E+02  0.24218684868E+02  0.52336837928E+01  0.28117115026E+02  0.51100000000E-03 0.  1.
         12    1    3    3    0    0  0.25237552166E+01 -0.29434713987E+02  0.25365459591E+01  0.29651404576E+02  0.00000000000E+00 0. -1.
</event>
<event>
 7    1  0.3597718E-013  0.7246159E+02  0.7816164E-02  0.1226708E+00
        -11   -1    0    0    0    0  0.00000000000E+00  0.00000000000E+00  0.45593999997E+02  0.45594000000E+02  0.51100000000E-03 0.  1.
         11   -1    0    0    0    0 -0.00000000000E+00 -0.00000000000E+00 -0.45593999997E+02  0.45594000000E+02  0.51100000000E-03 0. -1.
    9900012    2    1    2    0    0 -0.29864588154E+01  0.17592726780E+02 -0.56793912001E+01  0.72461589339E+02  0.70000024810E+02 0.  0.
         12    1    1    2    0    0  0.29864588154E+01 -0.17592726780E+02  0.56793912001E+01  0.18726410661E+02  0.00000000000E+00 0. -1.
         11    1    3    3    0    0 -0.63006651893E+01  0.18795179292E+02  0.22144142313E+01  0.19946447731E+02  0.51100000000E-03 0.  1.
        -11    1    3    3    0    0 -0.12905558092E+02  0.20078258395E+02 -0.95474035447E+01  0.25706862985E+02  0.51100000000E-03 0. -1.
         12    1    3    3    0    0  0.16219764466E+02 -0.21280710906E+02  0.16535981134E+01  0.26808278623E+02  0.00000000000E+00 0. -1.
</event>
<event>
 7    1  0.3597718E-013  0.7246157E+02  0.7816164E-02  0.1226708E+00
        -11   -1    0    0    0    0  0.00000000000E+00  0.00000000000E+00  0.45593999997E+02  0.45594000000E+02  0.51100000000E-03 0.  1.
         11   -1    0    0    0    0 -0.00000000000E+00 -0.00000000000E+00 -0.45593999997E+02  0.45594000000E+02  0.51100000000E-03 0. -1.
    9900012    2    1    2    0    0 -0.58297416940E+01  0.17772904733E+02 -0.90405362837E+00  0.72461565641E+02  0.69999993938E+02 0.  0.
         12    1    1    2    0    0  0.58297416940E+01 -0.17772904733E+02  0.90405362837E+00  0.18726434359E+02  0.00000000000E+00 0. -1.
         11    1    3    3    0    0 -0.20566909319E+02 -0.75187241295E+01 -0.91582766938E+01  0.23736111807E+02  0.51100000000E-03 0. -1.
        -11    1    3    3    0    0 -0.30012377553E+01  0.24911456645E+02  0.15574427708E+02  0.29532201051E+02  0.51100000000E-03 0.  1.
        -12    1    3    3    0    0  0.17738405380E+02  0.38017221718E+00 -0.73202046426E+01  0.19193252782E+02  0.00000000000E+00 0.  1.
</event>
<event>
 7    1  0.3597718E-013  0.7246161E+02  0.7816164E-02  0.1226708E+00
        -11   -1    0    0    0    0  0.00000000000E+00  0.00000000000E+00  0.45593999997E+02  0.45594000000E+02  0.51100000000E-03 0.  1.
         11   -1    0    0    0    0 -0.00000000000E+00 -0.00000000000E+00 -0.45593999997E+02  0.45594000000E+02  0.51100000000E-03 0. -1.
    9900012    2    1    2    0    0  0.21633622960E+01  0.12965648374E+02  0.13337525078E+02  0.72461608212E+02  0.70000049395E+02 0.  0.
         12    1    1    2    0    0 -0.21633622960E+01 -0.12965648374E+02 -0.13337525078E+02  0.18726391788E+02  0.00000000000E+00 0. -1.
         11    1    3    3    0    0 -0.11328517506E+02 -0.21580218730E+02 -0.55594825087E+01  0.24998979886E+02  0.51100000000E-03 0. -1.
        -11    1    3    3    0    0 -0.29141230853E+01 -0.19615067165E+01  0.14197783585E+01  0.37888511192E+01  0.51100000000E-03 0.  1.
        -12    1    3    3    0    0  0.16406002887E+02  0.36507373821E+02  0.17477229228E+02  0.43673777207E+02  0.00000000000E+00 0.  1.
</event>
<event>
 7    1  0.3597718E-013  0.7246155E+02  0.7816164E-02  0.1226708E+00
        -11   -1    0    0    0    0  0.00000000000E+00  0.00000000000E+00  0.45593999997E+02  0.45594000000E+02  0.51100000000E-03 0. -1.
         11   -1    0    0    0    0 -0.00000000000E+00 -0.00000000000E+00 -0.45593999997E+02  0.45594000000E+02  0.51100000000E-03 0.  1.
    9900012    2    1    2    0    0 -0.11658807185E+02 -0.81334712390E+01 -0.12190104747E+02  0.72461553645E+02  0.69999978311E+02 0.  0.
         12    1    1    2    0    0  0.11658807185E+02  0.81334712390E+01  0.12190104747E+02  0.18726446355E+02  0.00000000000E+00 0. -1.
         11    1    3    3    0    0  0.16009860532E+02  0.34457141523E+01  0.89334205262E+01  0.18654612911E+02  0.51100000000E-03 0. -1.
        -11    1    3    3    0    0 -0.35971415859E+01  0.13893926189E+02 -0.76079351206E+01  0.16243807731E+02  0.51100000000E-03 0.  1.
        -12    1    3    3    0    0 -0.24071526131E+02 -0.25473111580E+02 -0.13515590152E+02  0.37563133003E+02  0.00000000000E+00 0.  1.
</event>
<event>
 7    1  0.3597718E-013  0.7246165E+02  0.7816164E-02  0.1226708E+00
        -11   -1    0    0    0    0  0.00000000000E+00  0.00000000000E+00  0.45593999997E+02  0.45594000000E+02  0.51100000000E-03 0.  1.
         11   -1    0    0    0    0 -0.00000000000E+00 -0.00000000000E+00 -0.45593999997E+02  0.45594000000E+02  0.51100000000E-03 0. -1.
    9900012    2    1    2    0    0 -0.17428197106E+02  0.36423503864E+01 -0.58023686076E+01  0.72461648189E+02  0.70000101472E+02 0.  0.
         12    1    1    2    0    0  0.17428197106E+02 -0.36423503864E+01  0.58023686076E+01  0.18726351811E+02  0.00000000000E+00 0. -1.
         11    1    3    3    0    0  0.16307643414E+02  0.23950289193E+01  0.10935512774E+02  0.19780314384E+02  0.51100000000E-03 0. -1.
        -11    1    3    3    0    0 -0.92630860052E+01 -0.11594492947E+02  0.68514423019E+01  0.16345619931E+02  0.51100000000E-03 0.  1.
        -12    1    3    3    0    0 -0.24472754514E+02  0.12841814414E+02 -0.23589323684E+02  0.36335713875E+02  0.00000000000E+00 0.  1.
</event>
<event>
 7    1  0.3597718E-013  0.7246148E+02  0.7816164E-02  0.1226708E+00
        -11   -1    0    0    0    0  0.00000000000E+00  0.00000000000E+00  0.45593999997E+02  0.45594000000E+02  0.51100000000E-03 0.  1.
         11   -1    0    0    0    0 -0.00000000000E+00 -0.00000000000E+00 -0.45593999997E+02  0.45594000000E+02  0.51100000000E-03 0. -1.
    9900012    2    1    2    0    0  0.90033847218E+01  0.12321168532E+02  0.10854044706E+02  0.72461483588E+02  0.69999887049E+02 0.  0.
         12    1    1    2    0    0 -0.90033847218E+01 -0.12321168532E+02 -0.10854044706E+02  0.18726516412E+02  0.00000000000E+00 0. -1.
         11    1    3    3    0    0  0.14511820631E+02  0.11533533077E+02 -0.14677248851E+01  0.18594879399E+02  0.51100000000E-03 0. -1.
        -11    1    3    3    0    0  0.16059302417E+02  0.99478649210E+01  0.21572194985E+02  0.28674392885E+02  0.51100000000E-03 0.  1.
         12    1    3    3    0    0 -0.21567738326E+02 -0.91602294661E+01 -0.92504253938E+01  0.25192211303E+02  0.00000000000E+00 0. -1.
</event>
<event>
 7    1  0.3597718E-013  0.7246170E+02  0.7816164E-02  0.1226708E+00
        -11   -1    0    0    0    0  0.00000000000E+00  0.00000000000E+00  0.45593999997E+02  0.45594000000E+02  0.51100000000E-03 0.  1.
         11   -1    0    0    0    0 -0.00000000000E+00 -0.00000000000E+00 -0.45593999997E+02  0.45594000000E+02  0.51100000000E-03 0. -1.
    9900012    2    1    2    0    0 -0.19656012755E+01 -0.56083615686E+01  0.17758291522E+02  0.72461702298E+02  0.70000171959E+02 0.  0.
         12    1    1    2    0    0  0.19656012755E+01  0.56083615686E+01 -0.17758291522E+02  0.18726297702E+02  0.00000000000E+00 0. -1.
         11    1    3    3    0    0  0.68194301658E+01 -0.87309259542E+01 -0.16167172330E+02  0.19598753971E+02  0.51100000000E-03 0. -1.
        -11    1    3    3    0    0 -0.70814938477E+01 -0.53284275644E+01 -0.68406321456E+01  0.11195264349E+02  0.51100000000E-03 0.  1.
        -12    1    3    3    0    0 -0.17035375936E+01  0.84509919499E+01  0.40766095997E+02  0.41667683978E+02  0.00000000000E+00 0.  1.
</event>
<event>
 7    1  0.3597718E-013  0.7246158E+02  0.7816164E-02  0.1226708E+00
        -11   -1    0    0    0    0  0.00000000000E+00  0.00000000000E+00  0.45593999997E+02  0.45594000000E+02  0.51100000000E-03 0. -1.
         11   -1    0    0    0    0 -0.00000000000E+00 -0.00000000000E+00 -0.45593999997E+02  0.45594000000E+02  0.51100000000E-03 0.  1.
    9900012    2    1    2    0    0  0.61245432297E+01 -0.16861198321E+02 -0.53729770184E+01  0.72461576940E+02  0.70000008657E+02 0.  0.
         12    1    1    2    0    0 -0.61245432297E+01  0.16861198321E+02  0.53729770184E+01  0.18726423060E+02  0.00000000000E+00 0. -1.
         11    1    3    3    0    0  0.28385532783E+00  0.24558407024E+00 -0.12354170877E+02  0.12359871509E+02  0.51100000000E-03 0. -1.
        -11    1    3    3    0    0 -0.24800481116E+02 -0.14770181248E+02  0.51122423414E+01  0.29314793871E+02  0.51100000000E-03 0.  1.
         12    1    3    3    0    0  0.30641169018E+02 -0.23366011430E+01  0.18689515175E+01  0.30786911561E+02  0.00000000000E+00 0. -1.
</event>
<event>
 7    1  0.3597718E-013  0.7246158E+02  0.7816164E-02  0.1226708E+00
        -11   -1    0    0    0    0  0.00000000000E+00  0.00000000000E+00  0.45593999997E+02  0.45594000000E+02  0.51100000000E-03 0. -1.
         11   -1    0    0    0    0 -0.00000000000E+00 -0.00000000000E+00 -0.45593999997E+02  0.45594000000E+02  0.51100000000E-03 0.  1.
    9900012    2    1    2    0    0  0.17785916710E+02  0.36693749284E+01 -0.45689689588E+01  0.72461584888E+02  0.70000019011E+02 0.  0.
         12    1    1    2    0    0 -0.17785916710E+02 -0.36693749284E+01  0.45689689588E+01  0.18726415112E+02  0.00000000000E+00 0. -1.
         11    1    3    3    0    0 -0.95533389308E+01 -0.84698267711E+01  0.16208776783E+01  0.12869790013E+02  0.51100000000E-03 0.  1.
        -11    1    3    3    0    0 -0.15718481904E+01 -0.25267864377E+01  0.18565485551E+02  0.18802462882E+02  0.51100000000E-03 0. -1.
        -12    1    3    3    0    0  0.28911103831E+02  0.14665988137E+02 -0.24755332188E+02  0.40789331994E+02  0.00000000000E+00 0.  1.
</event>
<event>
 7    1  0.3597718E-013  0.7246158E+02  0.7816164E-02  0.1226708E+00
        -11   -1    0    0    0    0  0.00000000000E+00  0.00000000000E+00  0.45593999997E+02  0.45594000000E+02  0.51100000000E-03 0.  1.
         11   -1    0    0    0    0 -0.00000000000E+00 -0.00000000000E+00 -0.45593999997E+02  0.45594000000E+02  0.51100000000E-03 0. -1.
    9900012    2    1    2    0    0  0.53579452847E+01 -0.11317484091E+02  0.13924292396E+02  0.72461576355E+02  0.70000007895E+02 0.  0.
         12    1    1    2    0    0 -0.53579452847E+01  0.11317484091E+02 -0.13924292396E+02  0.18726423645E+02  0.00000000000E+00 0. -1.
         11    1    3    3    0    0  0.12493168266E+02  0.16524140005E+02  0.44394797527E+01  0.21185736639E+02  0.51100000000E-03 0. -1.
        -11    1    3    3    0    0  0.52136485760E+01  0.95605572095E+01  0.34828157647E+01  0.11433126936E+02  0.51100000000E-03 0.  1.
        -12    1    3    3    0    0 -0.12348871557E+02 -0.37402181305E+02  0.60019968785E+01  0.39842712779E+02  0.00000000000E+00 0.  1.
</event>
<event>
 7    1  0.3597718E-013  0.7246158E+02  0.7816164E-02  0.1226708E+00
        -11   -1    0    0    0    0  0.00000000000E+00  0.00000000000E+00  0.45593999997E+02  0.45594000000E+02  0.51100000000E-03 0.  1.
         11   -1    0    0    0    0 -0.00000000000E+00 -0.00000000000E+00 -0.45593999997E+02  0.45594000000E+02  0.51100000000E-03 0. -1.
    9900012    2    1    2    0    0  0.23230405431E+01 -0.32695724060E+01  0.18291856294E+02  0.72461584759E+02  0.70000018843E+02 0.  0.
         12    1    1    2    0    0 -0.23230405431E+01  0.32695724060E+01 -0.18291856294E+02  0.18726415241E+02  0.00000000000E+00 0. -1.
         11    1    3    3    0    0  0.19850904700E+01  0.97854542083E+00 -0.18268232386E+02  0.18401805620E+02  0.51100000000E-03 0. -1.
        -11    1    3    3    0    0  0.14324666598E+02 -0.15727475927E+02  0.15662025885E+02  0.26416824700E+02  0.51100000000E-03 0.  1.
        -12    1    3    3    0    0 -0.13986716525E+02  0.11479358100E+02  0.20898062795E+02  0.27642954439E+02  0.00000000000E+00 0.  1.
</event>
<event>
 7    1  0.3597718E-013  0.7246149E+02  0.7816164E-02  0.1226708E+00
        -11   -1    0    0    0    0  0.00000000000E+00  0.00000000000E+00  0.45593999997E+02  0.45594000000E+02  0.51100000000E-03 0. -1.
         11   -1    0    0    0    0 -0.00000000000E+00 -0.00000000000E+00 -0.45593999997E+02  0.45594000000E+02  0.51100000000E-03 0.  1.
    9900012    2    1    2    0    0  0.70843904256E+01 -0.11310595323E+02 -0.13136356612E+02  0.72461494204E+02  0.69999900879E+02 0.  0.
         12    1    1    2    0    0 -0.70843904256E+01  0.11310595323E+02  0.13136356612E+02  0.18726505796E+02  0.00000000000E+00 0. -1.
         11    1    3    3    0    0 -0.77048651001E+01 -0.19967933879E+02  0.84424593824E+01  0.23007791078E+02  0.51100000000E-03 0. -1.
        -11    1    3    3    0    0  0.76158019791E+01 -0.60156724859E+00  0.11812581311E+02  0.14067672175E+02  0.51100000000E-03 0.  1.
        -12    1    3    3    0    0  0.71734535466E+01  0.92589058042E+01 -0.33391397305E+02  0.35386030951E+02  0.00000000000E+00 0.  1.
</event>
<event>
 7    1  0.3936472E-013  0.7246148E+02  0.7816164E-02  0.1226708E+00
        -11   -1    0    0    0    0  0.00000000000E+00  0.00000000000E+00  0.45593999997E+02  0.45594000000E+02  0.51100000000E-03 0. -1.
         11   -1    0    0    0    0 -0.00000000000E+00 -0.00000000000E+00 -0.45593999997E+02  0.45594000000E+02  0.51100000000E-03 0.  1.
    9900012    2    1    2    0    0 -0.58038007765E+01  0.12411026155E+02 -0.12765775415E+02  0.72461476147E+02  0.69999877356E+02 0.  0.
         12    1    1    2    0    0  0.58038007765E+01 -0.12411026155E+02  0.12765775415E+02  0.18726523853E+02  0.00000000000E+00 0. -1.
         11    1    3    3    0    0  0.85498568713E+00  0.50053297532E+01 -0.12189520385E+02  0.13204875385E+02  0.51100000000E-03 0. -1.
        -11    1    3    3    0    0  0.85631348840E+00  0.21496951132E+02 -0.23150998672E+02  0.31604128220E+02  0.51100000000E-03 0.  1.
         12    1    3    3    0    0 -0.75150999521E+01 -0.14091254731E+02  0.22574743642E+02  0.27652472542E+02  0.00000000000E+00 0. -1.
</event>
<event>
 7    1  0.3597718E-013  0.7246151E+02  0.7816164E-02  0.1226708E+00
        -11   -1    0    0    0    0  0.00000000000E+00  0.00000000000E+00  0.45593999997E+02  0.45594000000E+02  0.51100000000E-03 0.  1.
         11   -1    0    0    0    0 -0.00000000000E+00 -0.00000000000E+00 -0.45593999997E+02  0.45594000000E+02  0.51100000000E-03 0. -1.
    9900012    2    1    2    0    0  0.44570679395E+01  0.62212681405E+01 -0.17091283401E+02  0.72461505395E+02  0.69999915457E+02 0.  0.
         12    1    1    2    0    0 -0.44570679395E+01 -0.62212681405E+01  0.17091283401E+02  0.18726494605E+02  0.00000000000E+00 0. -1.
         11    1    3    3    0    0  0.27898765488E+02  0.12531871733E+02 -0.59102155952E+00  0.30589838699E+02  0.51100000000E-03 0. -1.
        -11    1    3    3    0    0 -0.61565037004E+00  0.10229866561E+02 -0.53156571254E+01  0.11544929890E+02  0.51100000000E-03 0.  1.
        -12    1    3    3    0    0 -0.22826047178E+02 -0.16540470153E+02 -0.11184604716E+02  0.30326736806E+02  0.00000000000E+00 0.  1.
</event>
<event>
 7    1  0.3597718E-013  0.7246156E+02  0.7816164E-02  0.1226708E+00
        -11   -1    0    0    0    0  0.00000000000E+00  0.00000000000E+00  0.45593999997E+02  0.45594000000E+02  0.51100000000E-03 0.  1.
         11   -1    0    0    0    0 -0.00000000000E+00 -0.00000000000E+00 -0.45593999997E+02  0.45594000000E+02  0.51100000000E-03 0. -1.
    9900012    2    1    2    0    0  0.10661111323E+02  0.12111423373E+02  0.95044070675E+01  0.72461558147E+02  0.69999984175E+02 0.  0.
         12    1    1    2    0    0 -0.10661111323E+02 -0.12111423373E+02 -0.95044070675E+01  0.18726441853E+02  0.00000000000E+00 0. -1.
         11    1    3    3    0    0 -0.18932294119E+01 -0.55000513508E+01  0.13551639748E+01  0.59725498849E+01  0.51100000000E-03 0. -1.
        -11    1    3    3    0    0 -0.15192863353E+02  0.27656139327E+01 -0.19308984202E+02  0.24724655477E+02  0.51100000000E-03 0.  1.
         12    1    3    3    0    0  0.27747204088E+02  0.14845860792E+02  0.27458227295E+02  0.41764352785E+02  0.00000000000E+00 0. -1.
</event>
<event>
 7    1  0.3597718E-013  0.7246198E+02  0.7816164E-02  0.1226707E+00
        -11   -1    0    0    0    0  0.00000000000E+00  0.00000000000E+00  0.45593999997E+02  0.45594000000E+02  0.51100000000E-03 0.  1.
         11   -1    0    0    0    0 -0.00000000000E+00 -0.00000000000E+00 -0.45593999997E+02  0.45594000000E+02  0.51100000000E-03 0. -1.
    9900012    2    1    2    0    0  0.55676883967E+01  0.57975257375E+01  0.16913113607E+02  0.72461978782E+02  0.70000532129E+02 0.  0.
         12    1    1    2    0    0 -0.55676883967E+01 -0.57975257375E+01 -0.16913113607E+02  0.18726021218E+02  0.00000000000E+00 0. -1.
         11    1    3    3    0    0  0.29572351351E+01 -0.75851596780E+01  0.17815790128E+01  0.83339013089E+01  0.51100000000E-03 0. -1.
        -11    1    3    3    0    0 -0.10407452976E+02 -0.14044616638E+02  0.26469082634E+02  0.31720319509E+02  0.51100000000E-03 0.  1.
         12    1    3    3    0    0  0.13017906238E+02  0.27427302053E+02 -0.11337548040E+02  0.32407757965E+02  0.00000000000E+00 0. -1.
</event>
<event>
 7    1  0.3597718E-013  0.7246163E+02  0.7816164E-02  0.1226708E+00
        -11   -1    0    0    0    0  0.00000000000E+00  0.00000000000E+00  0.45593999997E+02  0.45594000000E+02  0.51100000000E-03 0. -1.
         11   -1    0    0    0    0 -0.00000000000E+00 -0.00000000000E+00 -0.45593999997E+02  0.45594000000E+02  0.51100000000E-03 0.  1.
    9900012    2    1    2    0    0 -0.52711275784E+01 -0.17719707152E+02  0.29839690182E+01  0.72461631463E+02  0.70000079683E+02 0.  0.
         12    1    1    2    0    0  0.52711275784E+01  0.17719707152E+02 -0.29839690182E+01  0.18726368537E+02  0.00000000000E+00 0. -1.
         11    1    3    3    0    0 -0.11801082918E+02 -0.13301169411E+01  0.48241202995E+01  0.12818225542E+02  0.51100000000E-03 0. -1.
        -11    1    3    3    0    0 -0.21526305742E+02 -0.21260444700E+02 -0.60605409803E+01  0.30856417566E+02  0.51100000000E-03 0.  1.
         12    1    3    3    0    0  0.28056261082E+02  0.48708544898E+01  0.42203896991E+01  0.28786988355E+02  0.00000000000E+00 0. -1.
</event>
<event>
 7    1  0.3597718E-013  0.7246158E+02  0.7816164E-02  0.1226708E+00
        -11   -1    0    0    0    0  0.00000000000E+00  0.00000000000E+00  0.45593999997E+02  0.45594000000E+02  0.51100000000E-03 0. -1.
         11   -1    0    0    0    0 -0.00000000000E+00 -0.00000000000E+00 -0.45593999997E+02  0.45594000000E+02  0.51100000000E-03 0.  1.
    9900012    2    1    2    0    0  0.15833874043E+02 -0.64593115597E+01 -0.76318221198E+01  0.72461575304E+02  0.70000006526E+02 0.  0.
         12    1    1    2    0    0 -0.15833874043E+02  0.64593115597E+01  0.76318221198E+01  0.18726424696E+02  0.00000000000E+00 0. -1.
         11    1    3    3    0    0  0.92219096266E+01 -0.70995866704E+01 -0.32977040724E+01  0.12096387910E+02  0.51100000000E-03 0. -1.
        -11    1    3    3    0    0 -0.24794625161E+01 -0.26175861199E+02  0.10604259507E+02  0.28350904110E+02  0.51100000000E-03 0.  1.
         12    1    3    3    0    0  0.90914269324E+01  0.26816136310E+02 -0.14938377554E+02  0.32014283284E+02  0.00000000000E+00 0. -1.
</event>
<event>
 7    1  0.3597718E-013  0.7246161E+02  0.7816164E-02  0.1226708E+00
        -11   -1    0    0    0    0  0.00000000000E+00  0.00000000000E+00  0.45593999997E+02  0.45594000000E+02  0.51100000000E-03 0. -1.
         11   -1    0    0    0    0 -0.00000000000E+00 -0.00000000000E+00 -0.45593999997E+02  0.45594000000E+02  0.51100000000E-03 0.  1.
    9900012    2    1    2    0    0 -0.11087703563E+02  0.14634523158E+02 -0.36839066324E+01  0.72461612029E+02  0.70000054368E+02 0.  0.
         12    1    1    2    0    0  0.11087703563E+02 -0.14634523158E+02  0.36839066324E+01  0.18726387971E+02  0.00000000000E+00 0. -1.
         11    1    3    3    0    0  0.37889922803E+01 -0.16820399171E+01 -0.92718490934E+01  0.10156421942E+02  0.51100000000E-03 0. -1.
        -11    1    3    3    0    0 -0.13087211483E+02  0.19286773568E+02 -0.23448828360E+02  0.33062097496E+02  0.51100000000E-03 0.  1.
         12    1    3    3    0    0 -0.17894843597E+01 -0.29702104936E+01  0.29036770821E+02  0.29243092592E+02  0.00000000000E+00 0. -1.
</event>
<event>
 7    1  0.3597718E-013  0.7246156E+02  0.7816164E-02  0.1226708E+00
        -11   -1    0    0    0    0  0.00000000000E+00  0.00000000000E+00  0.45593999997E+02  0.45594000000E+02  0.51100000000E-03 0. -1.
         11   -1    0    0    0    0 -0.00000000000E+00 -0.00000000000E+00 -0.45593999997E+02  0.45594000000E+02  0.51100000000E-03 0.  1.
    9900012    2    1    2    0    0 -0.11805738170E+02  0.10895942172E+02 -0.96219858638E+01  0.72461558226E+02  0.69999984278E+02 0.  0.
         12    1    1    2    0    0  0.11805738170E+02 -0.10895942172E+02  0.96219858638E+01  0.18726441774E+02  0.00000000000E+00 0. -1.
         11    1    3    3    0    0  0.17822191662E+01 -0.19392558103E+01  0.48191580672E+01  0.54919307162E+01  0.51100000000E-03 0. -1.
        -11    1    3    3    0    0  0.14754168714E+02  0.28982858748E+02 -0.42699827689E+01  0.32801285779E+02  0.51100000000E-03 0.  1.
         12    1    3    3    0    0 -0.28342126050E+02 -0.16147660765E+02 -0.10171161162E+02  0.34168341730E+02  0.00000000000E+00 0. -1.
</event>
<event>
 7    1  0.3597718E-013  0.7246154E+02  0.7816164E-02  0.1226708E+00
        -11   -1    0    0    0    0  0.00000000000E+00  0.00000000000E+00  0.45593999997E+02  0.45594000000E+02  0.51100000000E-03 0.  1.
         11   -1    0    0    0    0 -0.00000000000E+00 -0.00000000000E+00 -0.45593999997E+02  0.45594000000E+02  0.51100000000E-03 0. -1.
    9900012    2    1    2    0    0 -0.36065812833E+01 -0.62100330127E+01  0.17294753034E+02  0.72461536878E+02  0.69999956469E+02 0.  0.
         12    1    1    2    0    0  0.36065812833E+01  0.62100330127E+01 -0.17294753034E+02  0.18726463122E+02  0.00000000000E+00 0. -1.
         11    1    3    3    0    0 -0.66586888216E+01 -0.36890954791E+01 -0.10877543452E+01  0.76896535718E+01  0.51100000000E-03 0. -1.
        -11    1    3    3    0    0  0.74864031369E+00  0.10024626996E+02  0.39139048213E+02  0.40409388811E+02  0.51100000000E-03 0.  1.
         12    1    3    3    0    0  0.23034672247E+01 -0.12545564530E+02 -0.20756540835E+02  0.24362494495E+02  0.00000000000E+00 0. -1.
</event>
<event>
 7    1  0.3597718E-013  0.7246151E+02  0.7816164E-02  0.1226708E+00
        -11   -1    0    0    0    0  0.00000000000E+00  0.00000000000E+00  0.45593999997E+02  0.45594000000E+02  0.51100000000E-03 0. -1.
         11   -1    0    0    0    0 -0.00000000000E+00 -0.00000000000E+00 -0.45593999997E+02  0.45594000000E+02  0.51100000000E-03 0.  1.
    9900012    2    1    2    0    0  0.11325136285E+02  0.11773376476E+02 -0.91547944806E+01  0.72461511608E+02  0.69999923550E+02 0.  0.
         12    1    1    2    0    0 -0.11325136285E+02 -0.11773376476E+02  0.91547944806E+01  0.18726488392E+02  0.00000000000E+00 0. -1.
         11    1    3    3    0    0  0.17673914028E+02  0.14294165248E+02 -0.76097925128E+01  0.23970801813E+02  0.51100000000E-03 0. -1.
        -11    1    3    3    0    0 -0.15205812666E+02  0.17735365573E+02 -0.91816195306E+01  0.25101037196E+02  0.51100000000E-03 0.  1.
        -12    1    3    3    0    0  0.88570349233E+01 -0.20256154345E+02  0.76366175628E+01  0.23389672599E+02  0.00000000000E+00 0.  1.
</event>
<event>
 7    1  0.3597718E-013  0.7246156E+02  0.7816164E-02  0.1226708E+00
        -11   -1    0    0    0    0  0.00000000000E+00  0.00000000000E+00  0.45593999997E+02  0.45594000000E+02  0.51100000000E-03 0. -1.
         11   -1    0    0    0    0 -0.00000000000E+00 -0.00000000000E+00 -0.45593999997E+02  0.45594000000E+02  0.51100000000E-03 0.  1.
    9900012    2    1    2    0    0 -0.89199338201E+01  0.14218240983E+02 -0.83039734956E+01  0.72461559553E+02  0.69999986008E+02 0.  0.
         12    1    1    2    0    0  0.89199338201E+01 -0.14218240983E+02  0.83039734956E+01  0.18726440447E+02  0.00000000000E+00 0. -1.
         11    1    3    3    0    0 -0.12079651033E+02  0.18071524564E+02 -0.12897531493E+02  0.25275369197E+02  0.51100000000E-03 0. -1.
        -11    1    3    3    0    0  0.39257268648E+01  0.21332949211E+02  0.34371843333E+01  0.21961791590E+02  0.51100000000E-03 0.  1.
         12    1    3    3    0    0 -0.76600965227E+00 -0.25186232793E+02  0.11563736642E+01  0.25224398766E+02  0.00000000000E+00 0. -1.
</event>
<event>
 7    1  0.3597718E-013  0.7246163E+02  0.7816164E-02  0.1226708E+00
        -11   -1    0    0    0    0  0.00000000000E+00  0.00000000000E+00  0.45593999997E+02  0.45594000000E+02  0.51100000000E-03 0. -1.
         11   -1    0    0    0    0 -0.00000000000E+00 -0.00000000000E+00 -0.45593999997E+02  0.45594000000E+02  0.51100000000E-03 0.  1.
    9900012    2    1    2    0    0  0.14781686042E+01 -0.12072317270E+02 -0.14239067742E+02  0.72461631509E+02  0.70000079744E+02 0.  0.
         12    1    1    2    0    0 -0.14781686042E+01  0.12072317270E+02  0.14239067742E+02  0.18726368491E+02  0.00000000000E+00 0. -1.
         11    1    3    3    0    0 -0.25204414764E+02 -0.11647858367E+02 -0.28732802567E+01  0.27913990540E+02  0.51100000000E-03 0. -1.
        -11    1    3    3    0    0  0.90447928722E+01 -0.15103757097E+02  0.24313972247E+01  0.17771984956E+02  0.51100000000E-03 0.  1.
        -12    1    3    3    0    0  0.17637790496E+02  0.14679298194E+02 -0.13797184710E+02  0.26775656014E+02  0.00000000000E+00 0.  1.
</event>
<event>
 7    1  0.3597718E-013  0.7246157E+02  0.7816164E-02  0.1226708E+00
        -11   -1    0    0    0    0  0.00000000000E+00  0.00000000000E+00  0.45593999997E+02  0.45594000000E+02  0.51100000000E-03 0.  1.
         11   -1    0    0    0    0 -0.00000000000E+00 -0.00000000000E+00 -0.45593999997E+02  0.45594000000E+02  0.51100000000E-03 0. -1.
    9900012    2    1    2    0    0 -0.48200886423E+01 -0.17713341298E+02  0.36991128225E+01  0.72461570812E+02  0.70000000675E+02 0.  0.
         12    1    1    2    0    0  0.48200886423E+01  0.17713341298E+02 -0.36991128225E+01  0.18726429188E+02  0.00000000000E+00 0. -1.
         11    1    3    3    0    0 -0.54574064947E+01  0.13057142759E+02 -0.15966862289E+02  0.21335720150E+02  0.51100000000E-03 0. -1.
        -11    1    3    3    0    0 -0.80966218225E+01 -0.12241625158E+02 -0.79893023495E+01  0.16710524340E+02  0.51100000000E-03 0.  1.
         12    1    3    3    0    0  0.87339396749E+01 -0.18528858900E+02  0.27655277461E+02  0.34415326322E+02  0.00000000000E+00 0. -1.
</event>
<event>
 7    1  0.3597718E-013  0.7246156E+02  0.7816164E-02  0.1226708E+00
        -11   -1    0    0    0    0  0.00000000000E+00  0.00000000000E+00  0.45593999997E+02  0.45594000000E+02  0.51100000000E-03 0. -1.
         11   -1    0    0    0    0 -0.00000000000E+00 -0.00000000000E+00 -0.45593999997E+02  0.45594000000E+02  0.51100000000E-03 0.  1.
    9900012    2    1    2    0    0  0.12436477760E+02 -0.13478185502E+02 -0.37884207747E+01  0.72461558921E+02  0.69999985184E+02 0.  0.
         12    1    1    2    0    0 -0.12436477760E+02  0.13478185502E+02  0.37884207747E+01  0.18726441079E+02  0.00000000000E+00 0. -1.
         11    1    3    3    0    0  0.20060616198E+02  0.19969068107E+02 -0.69683799746E+01  0.29150477236E+02  0.51100000000E-03 0. -1.
        -11    1    3    3    0    0  0.80514513588E+01 -0.21768277464E+02 -0.13370124170E+01  0.23248040244E+02  0.51100000000E-03 0.  1.
        -12    1    3    3    0    0 -0.15675589797E+02 -0.11678976145E+02  0.45169716170E+01  0.20063041441E+02  0.00000000000E+00 0.  1.
</event>
<event>
 7    1  0.3597718E-013  0.7246152E+02  0.7816164E-02  0.1226708E+00
        -11   -1    0    0    0    0  0.00000000000E+00  0.00000000000E+00  0.45593999997E+02  0.45594000000E+02  0.51100000000E-03 0.  1.
         11   -1    0    0    0    0 -0.00000000000E+00 -0.00000000000E+00 -0.45593999997E+02  0.45594000000E+02  0.51100000000E-03 0. -1.
    9900012    2    1    2    0    0 -0.15585959897E+02 -0.10359033929E+02 -0.67029280638E+00  0.72461520824E+02  0.69999935556E+02 0.  0.
         12    1    1    2    0    0  0.15585959897E+02  0.10359033929E+02  0.67029280638E+00  0.18726479176E+02  0.00000000000E+00 0. -1.
         11    1    3    3    0    0 -0.21948490463E+02  0.38690374900E+00 -0.12913275932E+02  0.25468384787E+02  0.51100000000E-03 0. -1.
        -11    1    3    3    0    0 -0.10992371323E+02  0.23744148683E+01 -0.10595175326E+02  0.15450819192E+02  0.51100000000E-03 0.  1.
        -12    1    3    3    0    0  0.17354901888E+02 -0.13120352547E+02  0.22838158452E+02  0.31542316845E+02  0.00000000000E+00 0.  1.
</event>
<event>
 7    1  0.3597718E-013  0.7246174E+02  0.7816164E-02  0.1226708E+00
        -11   -1    0    0    0    0  0.00000000000E+00  0.00000000000E+00  0.45593999997E+02  0.45594000000E+02  0.51100000000E-03 0. -1.
         11   -1    0    0    0    0 -0.00000000000E+00 -0.00000000000E+00 -0.45593999997E+02  0.45594000000E+02  0.51100000000E-03 0.  1.
    9900012    2    1    2    0    0 -0.14131634921E+02  0.12064030077E+02 -0.23299902158E+01  0.72461740853E+02  0.70000222184E+02 0.  0.
         12    1    1    2    0    0  0.14131634921E+02 -0.12064030077E+02  0.23299902158E+01  0.18726259147E+02  0.00000000000E+00 0. -1.
         11    1    3    3    0    0 -0.29821060755E+02  0.18047761502E+02  0.19492727379E+02  0.39937248037E+02  0.51100000000E-03 0. -1.
        -11    1    3    3    0    0 -0.35654469114E+01 -0.14713541742E+01 -0.14204810482E+01  0.41103602583E+01  0.51100000000E-03 0.  1.
        -12    1    3    3    0    0  0.19254872745E+02 -0.45123772512E+01 -0.20402236547E+02  0.28414132558E+02  0.00000000000E+00 0.  1.
</event>
<event>
 7    1  0.3597718E-013  0.7246155E+02  0.7816164E-02  0.1226708E+00
        -11   -1    0    0    0    0  0.00000000000E+00  0.00000000000E+00  0.45593999997E+02  0.45594000000E+02  0.51100000000E-03 0.  1.
         11   -1    0    0    0    0 -0.00000000000E+00 -0.00000000000E+00 -0.45593999997E+02  0.45594000000E+02  0.51100000000E-03 0. -1.
    9900012    2    1    2    0    0 -0.14645313271E+02  0.36242639925E+01  0.11093216476E+02  0.72461549667E+02  0.69999973129E+02 0.  0.
         12    1    1    2    0    0  0.14645313271E+02 -0.36242639925E+01 -0.11093216476E+02  0.18726450333E+02  0.00000000000E+00 0. -1.
         11    1    3    3    0    0  0.20280305530E+02 -0.16178245181E+02  0.23641473859E+01  0.26050251490E+02  0.51100000000E-03 0. -1.
        -11    1    3    3    0    0 -0.92581576967E+01  0.27262425524E+01  0.12011161455E+02  0.15408240722E+02  0.51100000000E-03 0.  1.
        -12    1    3    3    0    0 -0.25667461105E+02  0.17076266621E+02 -0.32820923645E+01  0.31003057455E+02  0.00000000000E+00 0.  1.
</event>
<event>
 7    1  0.3597718E-013  0.7246153E+02  0.7816164E-02  0.1226708E+00
        -11   -1    0    0    0    0  0.00000000000E+00  0.00000000000E+00  0.45593999997E+02  0.45594000000E+02  0.51100000000E-03 0.  1.
         11   -1    0    0    0    0 -0.00000000000E+00 -0.00000000000E+00 -0.45593999997E+02  0.45594000000E+02  0.51100000000E-03 0. -1.
    9900012    2    1    2    0    0 -0.30615748552E+01  0.34361131301E+01  0.18152153343E+02  0.72461527160E+02  0.69999943810E+02 0.  0.
         12    1    1    2    0    0  0.30615748552E+01 -0.34361131301E+01 -0.18152153343E+02  0.18726472840E+02  0.00000000000E+00 0. -1.
         11    1    3    3    0    0 -0.20996183363E+01  0.20448621859E+01 -0.13882870424E+01  0.32430232331E+01  0.51100000000E-03 0. -1.
        -11    1    3    3    0    0 -0.32473544082E+02  0.94148502134E+01  0.83134244385E+01  0.34817861737E+02  0.51100000000E-03 0.  1.
         12    1    3    3    0    0  0.31511587563E+02 -0.80235992692E+01  0.11227015947E+02  0.34400642190E+02  0.00000000000E+00 0. -1.
</event>
<event>
 7    1  0.3597718E-013  0.7246152E+02  0.7816164E-02  0.1226708E+00
        -11   -1    0    0    0    0  0.00000000000E+00  0.00000000000E+00  0.45593999997E+02  0.45594000000E+02  0.51100000000E-03 0.  1.
         11   -1    0    0    0    0 -0.00000000000E+00 -0.00000000000E+00 -0.45593999997E+02  0.45594000000E+02  0.51100000000E-03 0. -1.
    9900012    2    1    2    0    0 -0.26107614207E+01 -0.17927242109E+02  0.47411891502E+01  0.72461522505E+02  0.69999937745E+02 0.  0.
         12    1    1    2    0    0  0.26107614207E+01  0.17927242109E+02 -0.47411891502E+01  0.18726477495E+02  0.00000000000E+00 0. -1.
         11    1    3    3    0    0 -0.55257536217E+01  0.18037223969E+01 -0.20021281524E+02  0.20847999465E+02  0.51100000000E-03 0. -1.
        -11    1    3    3    0    0  0.71343222476E+01 -0.10385303089E+02 -0.95446693904E+01  0.15806764002E+02  0.51100000000E-03 0.  1.
        -12    1    3    3    0    0 -0.42193300466E+01 -0.93456614162E+01  0.34307140065E+02  0.35806759037E+02  0.00000000000E+00 0.  1.
</event>
<event>
 7    1  0.3597718E-013  0.7246155E+02  0.7816164E-02  0.1226708E+00
        -11   -1    0    0    0    0  0.00000000000E+00  0.00000000000E+00  0.45593999997E+02  0.45594000000E+02  0.51100000000E-03 0. -1.
         11   -1    0    0    0    0 -0.00000000000E+00 -0.00000000000E+00 -0.45593999997E+02  0.45594000000E+02  0.51100000000E-03 0.  1.
    9900012    2    1    2    0    0  0.16523442797E+02 -0.47057803860E+01 -0.74505997802E+01  0.72461548975E+02  0.69999972228E+02 0.  0.
         12    1    1    2    0    0 -0.16523442797E+02  0.47057803860E+01  0.74505997802E+01  0.18726451025E+02  0.00000000000E+00 0. -1.
         11    1    3    3    0    0  0.11949889591E+02 -0.83383198429E+01  0.64390722026E+01  0.15930759245E+02  0.51100000000E-03 0. -1.
        -11    1    3    3    0    0  0.86812421279E+01 -0.23715874165E+02 -0.13999349137E+02  0.28875394868E+02  0.51100000000E-03 0.  1.
         12    1    3    3    0    0 -0.41076889219E+01  0.27348413621E+02  0.10967715403E+00  0.27655394862E+02  0.00000000000E+00 0. -1.
</event>
<event>
 7    1  0.3597718E-013  0.7246152E+02  0.7816164E-02  0.1226708E+00
        -11   -1    0    0    0    0  0.00000000000E+00  0.00000000000E+00  0.45593999997E+02  0.45594000000E+02  0.51100000000E-03 0.  1.
         11   -1    0    0    0    0 -0.00000000000E+00 -0.00000000000E+00 -0.45593999997E+02  0.45594000000E+02  0.51100000000E-03 0. -1.
    9900012    2    1    2    0    0 -0.16858182877E+02 -0.79044140174E+01 -0.20007425966E+01  0.72461519770E+02  0.69999934183E+02 0.  0.
         12    1    1    2    0    0  0.16858182877E+02  0.79044140174E+01  0.20007425966E+01  0.18726480230E+02  0.00000000000E+00 0. -1.
         11    1    3    3    0    0 -0.24779972317E+02 -0.44944488816E+01  0.17925368472E+02  0.30912229520E+02  0.51100000000E-03 0. -1.
        -11    1    3    3    0    0 -0.11037653396E+02  0.18681471952E+00  0.31382841861E+01  0.11476651084E+02  0.51100000000E-03 0.  1.
         12    1    3    3    0    0  0.18959442835E+02 -0.35967798553E+01 -0.23064395254E+02  0.30072639166E+02  0.00000000000E+00 0. -1.
</event>
<event>
 7    1  0.3597718E-013  0.7246157E+02  0.7816164E-02  0.1226708E+00
        -11   -1    0    0    0    0  0.00000000000E+00  0.00000000000E+00  0.45593999997E+02  0.45594000000E+02  0.51100000000E-03 0. -1.
         11   -1    0    0    0    0 -0.00000000000E+00 -0.00000000000E+00 -0.45593999997E+02  0.45594000000E+02  0.51100000000E-03 0.  1.
    9900012    2    1    2    0    0  0.55929051655E+01 -0.73228442367E+01 -0.16302589832E+02  0.72461572921E+02  0.70000003422E+02 0.  0.
         12    1    1    2    0    0 -0.55929051655E+01  0.73228442367E+01  0.16302589832E+02  0.18726427079E+02  0.00000000000E+00 0. -1.
         11    1    3    3    0    0 -0.17685057439E+02  0.20885366045E+02 -0.66032746033E+01  0.28152495577E+02  0.51100000000E-03 0. -1.
        -11    1    3    3    0    0  0.31469245596E+01  0.20155006160E+01 -0.69497655252E+01  0.78907932449E+01  0.51100000000E-03 0.  1.
        -12    1    3    3    0    0  0.20131038045E+02 -0.30223710898E+02 -0.27495497034E+01  0.36418284100E+02  0.00000000000E+00 0.  1.
</event>
<event>
 7    1  0.3597718E-013  0.7246155E+02  0.7816164E-02  0.1226708E+00
        -11   -1    0    0    0    0  0.00000000000E+00  0.00000000000E+00  0.45593999997E+02  0.45594000000E+02  0.51100000000E-03 0. -1.
         11   -1    0    0    0    0 -0.00000000000E+00 -0.00000000000E+00 -0.45593999997E+02  0.45594000000E+02  0.51100000000E-03 0.  1.
    9900012    2    1    2    0    0  0.14408575427E+02  0.10164584732E+02  0.63050750628E+01  0.72461553456E+02  0.69999978065E+02 0.  0.
         12    1    1    2    0    0 -0.14408575427E+02 -0.10164584732E+02 -0.63050750628E+01  0.18726446544E+02  0.00000000000E+00 0. -1.
         11    1    3    3    0    0 -0.84577030861E+01 -0.69399601210E+01  0.49555696458E+01  0.12010556138E+02  0.51100000000E-03 0. -1.
        -11    1    3    3    0    0  0.39051415165E+00 -0.14987367786E+02 -0.11847314295E+02  0.19108441870E+02  0.51100000000E-03 0.  1.
        -12    1    3    3    0    0  0.22475764361E+02  0.32091912639E+02  0.13196819712E+02  0.41342555448E+02  0.00000000000E+00 0.  1.
</event>
<event>
 7    1  0.3597718E-013  0.7246156E+02  0.7816164E-02  0.1226708E+00
        -11   -1    0    0    0    0  0.00000000000E+00  0.00000000000E+00  0.45593999997E+02  0.45594000000E+02  0.51100000000E-03 0. -1.
         11   -1    0    0    0    0 -0.00000000000E+00 -0.00000000000E+00 -0.45593999997E+02  0.45594000000E+02  0.51100000000E-03 0.  1.
    9900012    2    1    2    0    0  0.32197731570E+01  0.30801154070E+01 -0.18188605336E+02  0.72461563762E+02  0.69999991490E+02 0.  0.
         12    1    1    2    0    0 -0.32197731570E+01 -0.30801154070E+01  0.18188605336E+02  0.18726436238E+02  0.00000000000E+00 0. -1.
         11    1    3    3    0    0  0.25845741387E+02 -0.90252633287E+01  0.16583560953E+01  0.27426408281E+02  0.51100000000E-03 0. -1.
        -11    1    3    3    0    0  0.77802325228E+01  0.26372210888E+00 -0.42334514917E+01  0.88613587701E+01  0.51100000000E-03 0.  1.
         12    1    3    3    0    0 -0.30406200752E+02  0.11841656627E+02 -0.15613509940E+02  0.36173796711E+02  0.00000000000E+00 0. -1.
</event>
<event>
 7    1  0.3597718E-013  0.7246158E+02  0.7816164E-02  0.1226708E+00
        -11   -1    0    0    0    0  0.00000000000E+00  0.00000000000E+00  0.45593999997E+02  0.45594000000E+02  0.51100000000E-03 0. -1.
         11   -1    0    0    0    0 -0.00000000000E+00 -0.00000000000E+00 -0.45593999997E+02  0.45594000000E+02  0.51100000000E-03 0.  1.
    9900012    2    1    2    0    0 -0.71703600903E+01 -0.41510869839E+01 -0.16793848447E+02  0.72461576619E+02  0.70000008239E+02 0.  0.
         12    1    1    2    0    0  0.71703600903E+01  0.41510869839E+01  0.16793848447E+02  0.18726423381E+02  0.00000000000E+00 0. -1.
         11    1    3    3    0    0 -0.25740050931E+02  0.23569646082E+02 -0.58923252592E+01  0.35394885726E+02  0.51100000000E-03 0. -1.
        -11    1    3    3    0    0  0.12752024843E+01 -0.72528373222E+01  0.15394880172E+01  0.75232848021E+01  0.51100000000E-03 0.  1.
        -12    1    3    3    0    0  0.17294488356E+02 -0.20467895743E+02 -0.12441011205E+02  0.29543406091E+02  0.00000000000E+00 0.  1.
</event>
<event>
 7    1  0.3597718E-013  0.7246149E+02  0.7816164E-02  0.1226708E+00
        -11   -1    0    0    0    0  0.00000000000E+00  0.00000000000E+00  0.45593999997E+02  0.45594000000E+02  0.51100000000E-03 0. -1.
         11   -1    0    0    0    0 -0.00000000000E+00 -0.00000000000E+00 -0.45593999997E+02  0.45594000000E+02  0.51100000000E-03 0.  1.
    9900012    2    1    2    0    0 -0.12502529458E+02  0.46994758046E+01 -0.13125698191E+02  0.72461487546E+02  0.69999892205E+02 0.  0.
         12    1    1    2    0    0  0.12502529458E+02 -0.46994758046E+01  0.13125698191E+02  0.18726512454E+02  0.00000000000E+00 0. -1.
         11    1    3    3    0    0 -0.10004343795E+02 -0.76957771486E+01 -0.62091787178E+01  0.14066477217E+02  0.51100000000E-03 0. -1.
        -11    1    3    3    0    0 -0.27227606249E+02 -0.19147354734E+01  0.44321063496E+01  0.27652347476E+02  0.51100000000E-03 0.  1.
         12    1    3    3    0    0  0.24729420585E+02  0.14309988427E+02 -0.11348625823E+02  0.30742662853E+02  0.00000000000E+00 0. -1.
</event>
<event>
 7    1  0.3597718E-013  0.7246158E+02  0.7816164E-02  0.1226708E+00
        -11   -1    0    0    0    0  0.00000000000E+00  0.00000000000E+00  0.45593999997E+02  0.45594000000E+02  0.51100000000E-03 0. -1.
         11   -1    0    0    0    0 -0.00000000000E+00 -0.00000000000E+00 -0.45593999997E+02  0.45594000000E+02  0.51100000000E-03 0.  1.
    9900012    2    1    2    0    0 -0.82400188051E+01 -0.51518077121E+01 -0.16007495125E+02  0.72461576615E+02  0.70000008234E+02 0.  0.
         12    1    1    2    0    0  0.82400188051E+01  0.51518077121E+01  0.16007495125E+02  0.18726423385E+02  0.00000000000E+00 0. -1.
         11    1    3    3    0    0 -0.11109820720E+02  0.19766014079E+02  0.81714873860E+01  0.24101797347E+02  0.51100000000E-03 0. -1.
        -11    1    3    3    0    0 -0.11987649778E+02 -0.31674411226E+01  0.29742717710E+00  0.12402616404E+02  0.51100000000E-03 0.  1.
        -12    1    3    3    0    0  0.14857451693E+02 -0.21750380669E+02 -0.24476409688E+02  0.35957162864E+02  0.00000000000E+00 0.  1.
</event>
<event>
 7    1  0.3597718E-013  0.7246201E+02  0.7816164E-02  0.1226707E+00
        -11   -1    0    0    0    0  0.00000000000E+00  0.00000000000E+00  0.45593999997E+02  0.45594000000E+02  0.51100000000E-03 0.  1.
         11   -1    0    0    0    0 -0.00000000000E+00 -0.00000000000E+00 -0.45593999997E+02  0.45594000000E+02  0.51100000000E-03 0. -1.
    9900012    2    1    2    0    0  0.96967020500E+01 -0.11071290389E+02 -0.11578559518E+02  0.72462014257E+02  0.70000578342E+02 0.  0.
         12    1    1    2    0    0 -0.96967020500E+01  0.11071290389E+02  0.11578559518E+02  0.18725985743E+02  0.00000000000E+00 0. -1.
         11    1    3    3    0    0  0.12024709834E+02 -0.45175990245E+00 -0.15439156066E+02  0.19574607886E+02  0.51100000000E-03 0. -1.
        -11    1    3    3    0    0  0.24193760263E+02 -0.79255940439E+01 -0.21843769870E+01  0.25552388923E+02  0.51100000000E-03 0.  1.
         12    1    3    3    0    0 -0.26521768046E+02 -0.26939364428E+01  0.60449735348E+01  0.27335017448E+02  0.00000000000E+00 0. -1.
</event>
<event>
 7    1  0.3597718E-013  0.7246187E+02  0.7816164E-02  0.1226707E+00
        -11   -1    0    0    0    0  0.00000000000E+00  0.00000000000E+00  0.45593999997E+02  0.45594000000E+02  0.51100000000E-03 0.  1.
         11   -1    0    0    0    0 -0.00000000000E+00 -0.00000000000E+00 -0.45593999997E+02  0.45594000000E+02  0.51100000000E-03 0. -1.
    9900012    2    1    2    0    0  0.54387570982E+01  0.17811325432E+02 -0.19607517991E+01  0.72461870126E+02  0.70000390586E+02 0.  0.
         12    1    1    2    0    0 -0.54387570982E+01 -0.17811325432E+02  0.19607517991E+01  0.18726129874E+02  0.00000000000E+00 0. -1.
         11    1    3    3    0    0 -0.80957622476E+01  0.72031696866E+01  0.19215586645E+01  0.11005426292E+02  0.51100000000E-03 0. -1.
        -11    1    3    3    0    0 -0.54681685175E+01  0.11443717703E+02  0.24326262640E+02  0.27434040827E+02  0.51100000000E-03 0.  1.
         12    1    3    3    0    0  0.19002687863E+02 -0.83556195771E+00 -0.28208573104E+02  0.34022403007E+02  0.00000000000E+00 0. -1.
</event>
<event>
 7    1  0.3597718E-013  0.7246159E+02  0.7816164E-02  0.1226708E+00
        -11   -1    0    0    0    0  0.00000000000E+00  0.00000000000E+00  0.45593999997E+02  0.45594000000E+02  0.51100000000E-03 0. -1.
         11   -1    0    0    0    0 -0.00000000000E+00 -0.00000000000E+00 -0.45593999997E+02  0.45594000000E+02  0.51100000000E-03 0.  1.
    9900012    2    1    2    0    0  0.41669913736E+01  0.17382384781E+02  0.55827607144E+01  0.72461592577E+02  0.70000029027E+02 0.  0.
         12    1    1    2    0    0 -0.41669913736E+01 -0.17382384781E+02 -0.55827607144E+01  0.18726407423E+02  0.00000000000E+00 0. -1.
         11    1    3    3    0    0 -0.16963161046E+02  0.16590918619E+02  0.27973511069E+02  0.36681394945E+02  0.51100000000E-03 0. -1.
        -11    1    3    3    0    0 -0.20579681835E+01 -0.36933486132E+01 -0.25738663458E+01  0.49498328507E+01  0.51100000000E-03 0.  1.
        -12    1    3    3    0    0  0.23188120603E+02  0.44848147759E+01 -0.19816884009E+02  0.30830364781E+02  0.00000000000E+00 0.  1.
</event>
<event>
 7    1  0.3597718E-013  0.7246129E+02  0.7816164E-02  0.1226709E+00
        -11   -1    0    0    0    0  0.00000000000E+00  0.00000000000E+00  0.45593999997E+02  0.45594000000E+02  0.51100000000E-03 0. -1.
         11   -1    0    0    0    0 -0.00000000000E+00 -0.00000000000E+00 -0.45593999997E+02  0.45594000000E+02  0.51100000000E-03 0.  1.
    9900012    2    1    2    0    0  0.20300490236E+01  0.12471739194E+02  0.13821153786E+02  0.72461289943E+02  0.69999634790E+02 0.  0.
         12    1    1    2    0    0 -0.20300490236E+01 -0.12471739194E+02 -0.13821153786E+02  0.18726710057E+02  0.00000000000E+00 0. -1.
         11    1    3    3    0    0  0.13431375809E+01  0.16206439583E+01 -0.31063802633E+01  0.37523464661E+01  0.51100000000E-03 0. -1.
        -11    1    3    3    0    0 -0.19112080292E+02  0.28406596694E+02 -0.46676168309E+01  0.34554203738E+02  0.51100000000E-03 0.  1.
         12    1    3    3    0    0  0.19798991734E+02 -0.17555501458E+02  0.21595150880E+02  0.34154739740E+02  0.00000000000E+00 0. -1.
</event>
<event>
 7    1  0.3597718E-013  0.7246159E+02  0.7816164E-02  0.1226708E+00
        -11   -1    0    0    0    0  0.00000000000E+00  0.00000000000E+00  0.45593999997E+02  0.45594000000E+02  0.51100000000E-03 0.  1.
         11   -1    0    0    0    0 -0.00000000000E+00 -0.00000000000E+00 -0.45593999997E+02  0.45594000000E+02  0.51100000000E-03 0. -1.
    9900012    2    1    2    0    0  0.14569013911E+02  0.40134591083E+01  0.11059587352E+02  0.72461588364E+02  0.70000023539E+02 0.  0.
         12    1    1    2    0    0 -0.14569013911E+02 -0.40134591083E+01 -0.11059587352E+02  0.18726411636E+02  0.00000000000E+00 0. -1.
         11    1    3    3    0    0  0.54946139754E+01  0.11081775082E+01 -0.23197868917E+02  0.23865455426E+02  0.51100000000E-03 0. -1.
        -11    1    3    3    0    0 -0.85752870659E+01  0.61490758966E+01  0.74122849079E+00  0.10578095414E+02  0.51100000000E-03 0.  1.
        -12    1    3    3    0    0  0.17649687002E+02 -0.32437942966E+01  0.33516227778E+02  0.38018037524E+02  0.00000000000E+00 0.  1.
</event>
<event>
 7    1  0.3597718E-013  0.7246158E+02  0.7816164E-02  0.1226708E+00
        -11   -1    0    0    0    0  0.00000000000E+00  0.00000000000E+00  0.45593999997E+02  0.45594000000E+02  0.51100000000E-03 0.  1.
         11   -1    0    0    0    0 -0.00000000000E+00 -0.00000000000E+00 -0.45593999997E+02  0.45594000000E+02  0.51100000000E-03 0. -1.
    9900012    2    1    2    0    0  0.16741638397E+02 -0.66414300688E+01  0.51271683991E+01  0.72461577348E+02  0.70000009188E+02 0.  0.
         12    1    1    2    0    0 -0.16741638397E+02  0.66414300688E+01 -0.51271683991E+01  0.18726422652E+02  0.00000000000E+00 0. -1.
         11    1    3    3    0    0  0.20023243711E+02 -0.14049616548E+02  0.52992272983E+00  0.24466361238E+02  0.51100000000E-03 0. -1.
        -11    1    3    3    0    0 -0.42215400358E+01  0.27944743658E+01  0.25791787808E+02  0.26283964805E+02  0.51100000000E-03 0.  1.
         12    1    3    3    0    0  0.93993472144E+00  0.46137121136E+01 -0.21194542139E+02  0.21711251305E+02  0.00000000000E+00 0. -1.
</event>
<event>
 7    1  0.3597718E-013  0.7246158E+02  0.7816164E-02  0.1226708E+00
        -11   -1    0    0    0    0  0.00000000000E+00  0.00000000000E+00  0.45593999997E+02  0.45594000000E+02  0.51100000000E-03 0.  1.
         11   -1    0    0    0    0 -0.00000000000E+00 -0.00000000000E+00 -0.45593999997E+02  0.45594000000E+02  0.51100000000E-03 0. -1.
    9900012    2    1    2    0    0 -0.12287366673E+02 -0.65799992038E+01 -0.12506119139E+02  0.72461580556E+02  0.70000013368E+02 0.  0.
         12    1    1    2    0    0  0.12287366673E+02  0.65799992038E+01  0.12506119139E+02  0.18726419444E+02  0.00000000000E+00 0. -1.
         11    1    3    3    0    0 -0.18363214571E+01  0.10572052932E+02 -0.26175522116E+02  0.28289544676E+02  0.51100000000E-03 0. -1.
        -11    1    3    3    0    0 -0.20711388266E+01 -0.39519683023E+00 -0.12116400253E+02  0.12298493889E+02  0.51100000000E-03 0.  1.
        -12    1    3    3    0    0 -0.83799063894E+01 -0.16756855306E+02  0.25785803230E+02  0.31873541991E+02  0.00000000000E+00 0.  1.
</event>
<event>
 7    1  0.3597718E-013  0.7246157E+02  0.7816164E-02  0.1226708E+00
        -11   -1    0    0    0    0  0.00000000000E+00  0.00000000000E+00  0.45593999997E+02  0.45594000000E+02  0.51100000000E-03 0.  1.
         11   -1    0    0    0    0 -0.00000000000E+00 -0.00000000000E+00 -0.45593999997E+02  0.45594000000E+02  0.51100000000E-03 0. -1.
    9900012    2    1    2    0    0  0.70506390598E+00 -0.18671440707E+02  0.12487777865E+01  0.72461567901E+02  0.69999996883E+02 0.  0.
         12    1    1    2    0    0 -0.70506390598E+00  0.18671440707E+02 -0.12487777865E+01  0.18726432099E+02  0.00000000000E+00 0. -1.
         11    1    3    3    0    0  0.16685314507E+02  0.59058242730E+00 -0.19389047264E+01  0.16807970122E+02  0.51100000000E-03 0. -1.
        -11    1    3    3    0    0  0.14940262733E+02 -0.10771521530E+02 -0.10028614744E+02  0.20971653262E+02  0.51100000000E-03 0.  1.
        -12    1    3    3    0    0 -0.30920513334E+02 -0.84905016044E+01  0.13216297257E+02  0.34681944518E+02  0.00000000000E+00 0.  1.
</event>
<event>
 7    1  0.3597718E-013  0.7246156E+02  0.7816164E-02  0.1226708E+00
        -11   -1    0    0    0    0  0.00000000000E+00  0.00000000000E+00  0.45593999997E+02  0.45594000000E+02  0.51100000000E-03 0. -1.
         11   -1    0    0    0    0 -0.00000000000E+00 -0.00000000000E+00 -0.45593999997E+02  0.45594000000E+02  0.51100000000E-03 0.  1.
    9900012    2    1    2    0    0 -0.58978481225E+01  0.36237569702E+01 -0.17400092570E+02  0.72461562846E+02  0.69999990297E+02 0.  0.
         12    1    1    2    0    0  0.58978481225E+01 -0.36237569702E+01  0.17400092570E+02  0.18726437154E+02  0.00000000000E+00 0. -1.
         11    1    3    3    0    0 -0.94472789984E+01  0.48750077797E+01  0.21700395233E+02  0.24164518097E+02  0.51100000000E-03 0. -1.
        -11    1    3    3    0    0 -0.43205307237E+01 -0.39981222453E+01  0.21089936344E+01  0.62529850179E+01  0.51100000000E-03 0.  1.
        -12    1    3    3    0    0  0.78699615997E+01  0.27468714358E+01 -0.41209481438E+02  0.42044059731E+02  0.00000000000E+00 0.  1.
</event>
<event>
 7    1  0.3869951E-013  0.7246149E+02  0.7816164E-02  0.1226708E+00
        -11   -1    0    0    0    0  0.00000000000E+00  0.00000000000E+00  0.45593999997E+02  0.45594000000E+02  0.51100000000E-03 0.  1.
         11   -1    0    0    0    0 -0.00000000000E+00 -0.00000000000E+00 -0.45593999997E+02  0.45594000000E+02  0.51100000000E-03 0. -1.
    9900012    2    1    2    0    0  0.90672364284E+01  0.13666453895E+02  0.90385475216E+01  0.72461492589E+02  0.69999898774E+02 0.  0.
         12    1    1    2    0    0 -0.90672364284E+01 -0.13666453895E+02 -0.90385475216E+01  0.18726507411E+02  0.00000000000E+00 0. -1.
         11    1    3    3    0    0  0.14263212104E+01  0.33444752537E+01  0.88379304988E+01  0.95566166963E+01  0.51100000000E-03 0. -1.
        -11    1    3    3    0    0  0.22671918000E+02 -0.15659619676E+02  0.12762006571E+02  0.30366237274E+02  0.51100000000E-03 0.  1.
         12    1    3    3    0    0 -0.15031002782E+02  0.25981598317E+02 -0.12561389548E+02  0.32538638619E+02  0.00000000000E+00 0. -1.
</event>
<event>
 7    1  0.3597718E-013  0.7246162E+02  0.7816164E-02  0.1226708E+00
        -11   -1    0    0    0    0  0.00000000000E+00  0.00000000000E+00  0.45593999997E+02  0.45594000000E+02  0.51100000000E-03 0. -1.
         11   -1    0    0    0    0 -0.00000000000E+00 -0.00000000000E+00 -0.45593999997E+02  0.45594000000E+02  0.51100000000E-03 0.  1.
    9900012    2    1    2    0    0 -0.37412333573E+01 -0.43324800924E+01 -0.17830037579E+02  0.72461616183E+02  0.70000059778E+02 0.  0.
         12    1    1    2    0    0  0.37412333573E+01  0.43324800924E+01  0.17830037579E+02  0.18726383817E+02  0.00000000000E+00 0. -1.
         11    1    3    3    0    0  0.19716840523E+01 -0.88747946052E+01 -0.15342746454E+00  0.90924725754E+01  0.51100000000E-03 0. -1.
        -11    1    3    3    0    0  0.43670663121E+01 -0.12539684943E+02 -0.34748751162E+02  0.37199337013E+02  0.51100000000E-03 0.  1.
        -12    1    3    3    0    0 -0.10079983722E+02  0.17081999456E+02  0.17072141047E+02  0.26169806594E+02  0.00000000000E+00 0.  1.
</event>
<event>
 7    1  0.3597718E-013  0.7246158E+02  0.7816164E-02  0.1226708E+00
        -11   -1    0    0    0    0  0.00000000000E+00  0.00000000000E+00  0.45593999997E+02  0.45594000000E+02  0.51100000000E-03 0. -1.
         11   -1    0    0    0    0 -0.00000000000E+00 -0.00000000000E+00 -0.45593999997E+02  0.45594000000E+02  0.51100000000E-03 0.  1.
    9900012    2    1    2    0    0 -0.69306951131E+01 -0.10522436621E+02 -0.13853608060E+02  0.72461583806E+02  0.70000017602E+02 0.  0.
         12    1    1    2    0    0  0.69306951131E+01  0.10522436621E+02  0.13853608060E+02  0.18726416194E+02  0.00000000000E+00 0. -1.
         11    1    3    3    0    0 -0.76280692295E+01  0.21941103202E+02 -0.60363966333E-02  0.23229280802E+02  0.51100000000E-03 0. -1.
        -11    1    3    3    0    0  0.32757367455E+01 -0.55552174350E+01 -0.20419171311E+02  0.21413394156E+02  0.51100000000E-03 0.  1.
        -12    1    3    3    0    0 -0.25783626291E+01 -0.26908322388E+02  0.65715996483E+01  0.27818908848E+02  0.00000000000E+00 0.  1.
</event>
<event>
 7    1  0.3597718E-013  0.7246158E+02  0.7816164E-02  0.1226708E+00
        -11   -1    0    0    0    0  0.00000000000E+00  0.00000000000E+00  0.45593999997E+02  0.45594000000E+02  0.51100000000E-03 0.  1.
         11   -1    0    0    0    0 -0.00000000000E+00 -0.00000000000E+00 -0.45593999997E+02  0.45594000000E+02  0.51100000000E-03 0. -1.
    9900012    2    1    2    0    0 -0.34564152357E+01 -0.17014510252E+02  0.70169980747E+01  0.72461584770E+02  0.70000018857E+02 0.  0.
         12    1    1    2    0    0  0.34564152357E+01  0.17014510252E+02 -0.70169980747E+01  0.18726415230E+02  0.00000000000E+00 0. -1.
         11    1    3    3    0    0 -0.21001955978E+02  0.19097659398E+00  0.58606864151E+01  0.21805189118E+02  0.51100000000E-03 0. -1.
        -11    1    3    3    0    0 -0.27566782017E+01 -0.22996114327E+02 -0.11689522841E+02  0.25943505803E+02  0.51100000000E-03 0.  1.
         12    1    3    3    0    0  0.20302218944E+02  0.57906274811E+01  0.12845834501E+02  0.24712889849E+02  0.00000000000E+00 0. -1.
</event>
<event>
 7    1  0.3597718E-013  0.7246153E+02  0.7816164E-02  0.1226708E+00
        -11   -1    0    0    0    0  0.00000000000E+00  0.00000000000E+00  0.45593999997E+02  0.45594000000E+02  0.51100000000E-03 0.  1.
         11   -1    0    0    0    0 -0.00000000000E+00 -0.00000000000E+00 -0.45593999997E+02  0.45594000000E+02  0.51100000000E-03 0. -1.
    9900012    2    1    2    0    0  0.45297178830E+00 -0.28709444855E+01  0.18499544717E+02  0.72461530487E+02  0.69999948143E+02 0.  0.
         12    1    1    2    0    0 -0.45297178830E+00  0.28709444855E+01 -0.18499544717E+02  0.18726469513E+02  0.00000000000E+00 0. -1.
         11    1    3    3    0    0  0.12235751418E+02 -0.42317170816E+01 -0.75569328728E+01  0.14990939828E+02  0.51100000000E-03 0. -1.
        -11    1    3    3    0    0  0.18546643075E+02  0.77724321375E+01  0.83830043231E+01  0.21786771960E+02  0.51100000000E-03 0.  1.
        -12    1    3    3    0    0 -0.30329422704E+02 -0.64116595415E+01  0.17673473267E+02  0.35683818699E+02  0.00000000000E+00 0.  1.
</event>
<event>
 7    1  0.3597718E-013  0.7246156E+02  0.7816164E-02  0.1226708E+00
        -11   -1    0    0    0    0  0.00000000000E+00  0.00000000000E+00  0.45593999997E+02  0.45594000000E+02  0.51100000000E-03 0.  1.
         11   -1    0    0    0    0 -0.00000000000E+00 -0.00000000000E+00 -0.45593999997E+02  0.45594000000E+02  0.51100000000E-03 0. -1.
    9900012    2    1    2    0    0 -0.73377063898E+01 -0.58315373225E+00  0.17219101509E+02  0.72461562536E+02  0.69999989893E+02 0.  0.
         12    1    1    2    0    0  0.73377063898E+01  0.58315373225E+00 -0.17219101509E+02  0.18726437464E+02  0.00000000000E+00 0. -1.
         11    1    3    3    0    0 -0.91149163316E+01  0.10767776333E+02 -0.10922092517E+02  0.17841491308E+02  0.51100000000E-03 0. -1.
        -11    1    3    3    0    0 -0.18303428465E+02 -0.11100221988E+02  0.17790709009E+01  0.21480119071E+02  0.51100000000E-03 0.  1.
        -12    1    3    3    0    0  0.20080638406E+02 -0.25070807644E+00  0.26362123125E+02  0.33139952157E+02  0.00000000000E+00 0.  1.
</event>
<event>
 7    1  0.3597718E-013  0.7246142E+02  0.7816164E-02  0.1226708E+00
        -11   -1    0    0    0    0  0.00000000000E+00  0.00000000000E+00  0.45593999997E+02  0.45594000000E+02  0.51100000000E-03 0.  1.
         11   -1    0    0    0    0 -0.00000000000E+00 -0.00000000000E+00 -0.45593999997E+02  0.45594000000E+02  0.51100000000E-03 0. -1.
    9900012    2    1    2    0    0  0.71837672306E+01 -0.82568381051E+01  0.15195490698E+02  0.72461419302E+02  0.69999803304E+02 0.  0.
         12    1    1    2    0    0 -0.71837672306E+01  0.82568381051E+01 -0.15195490698E+02  0.18726580698E+02  0.00000000000E+00 0. -1.
         11    1    3    3    0    0  0.10499318476E+02 -0.16310160249E+02  0.29448689513E+02  0.35263044822E+02  0.51100000000E-03 0.  1.
        -11    1    3    3    0    0 -0.12685015862E+02  0.66019586384E+01  0.54731590775E+01  0.15311791398E+02  0.51100000000E-03 0. -1.
        -12    1    3    3    0    0  0.93694646162E+01  0.14513635059E+01 -0.19726357893E+02  0.21886583081E+02  0.00000000000E+00 0.  1.
</event>
<event>
 7    1  0.3597718E-013  0.7246174E+02  0.7816164E-02  0.1226708E+00
        -11   -1    0    0    0    0  0.00000000000E+00  0.00000000000E+00  0.45593999997E+02  0.45594000000E+02  0.51100000000E-03 0.  1.
         11   -1    0    0    0    0 -0.00000000000E+00 -0.00000000000E+00 -0.45593999997E+02  0.45594000000E+02  0.51100000000E-03 0. -1.
    9900012    2    1    2    0    0 -0.12248284492E+02 -0.42589897899E+01 -0.13509751932E+02  0.72461738646E+02  0.70000219309E+02 0.  0.
         12    1    1    2    0    0  0.12248284492E+02  0.42589897899E+01  0.13509751932E+02  0.18726261354E+02  0.00000000000E+00 0. -1.
         11    1    3    3    0    0 -0.85605959903E+01 -0.14284683855E+02  0.26189729391E+01  0.16858084590E+02  0.51100000000E-03 0. -1.
        -11    1    3    3    0    0 -0.11050106763E+02 -0.19089633843E+02 -0.12612180407E+01  0.22093203727E+02  0.51100000000E-03 0.  1.
         12    1    3    3    0    0  0.73624182610E+01  0.29115327908E+02 -0.14867506831E+02  0.33510450328E+02  0.00000000000E+00 0. -1.
</event>
<event>
 7    1  0.3597718E-013  0.7246154E+02  0.7816164E-02  0.1226708E+00
        -11   -1    0    0    0    0  0.00000000000E+00  0.00000000000E+00  0.45593999997E+02  0.45594000000E+02  0.51100000000E-03 0.  1.
         11   -1    0    0    0    0 -0.00000000000E+00 -0.00000000000E+00 -0.45593999997E+02  0.45594000000E+02  0.51100000000E-03 0. -1.
    9900012    2    1    2    0    0 -0.11637803559E+01 -0.55962756981E+01  0.17832768127E+02  0.72461539964E+02  0.69999960489E+02 0.  0.
         12    1    1    2    0    0  0.11637803559E+01  0.55962756981E+01 -0.17832768127E+02  0.18726460036E+02  0.00000000000E+00 0. -1.
         11    1    3    3    0    0 -0.99944806197E+01  0.11856015426E+02  0.56042281636E+01  0.16488241817E+02  0.51100000000E-03 0. -1.
        -11    1    3    3    0    0 -0.64304711728E+01 -0.28019764879E+02 -0.66394295282E+01  0.29504918372E+02  0.51100000000E-03 0.  1.
         12    1    3    3    0    0  0.15261171437E+02  0.10567473755E+02  0.18867969492E+02  0.26468379775E+02  0.00000000000E+00 0. -1.
</event>
<event>
 7    1  0.3597718E-013  0.7246159E+02  0.7816164E-02  0.1226708E+00
        -11   -1    0    0    0    0  0.00000000000E+00  0.00000000000E+00  0.45593999997E+02  0.45594000000E+02  0.51100000000E-03 0.  1.
         11   -1    0    0    0    0 -0.00000000000E+00 -0.00000000000E+00 -0.45593999997E+02  0.45594000000E+02  0.51100000000E-03 0. -1.
    9900012    2    1    2    0    0 -0.78207117518E+01 -0.12895348631E+01  0.16966200880E+02  0.72461590713E+02  0.70000026600E+02 0.  0.
         12    1    1    2    0    0  0.78207117518E+01  0.12895348631E+01 -0.16966200880E+02  0.18726409287E+02  0.00000000000E+00 0. -1.
         11    1    3    3    0    0 -0.15635753487E+02 -0.37041672670E+01 -0.88207371445E+00  0.16092721850E+02  0.51100000000E-03 0. -1.
        -11    1    3    3    0    0 -0.17260335591E+02 -0.12851052633E+02  0.16256062350E+02  0.26969024859E+02  0.51100000000E-03 0.  1.
        -12    1    3    3    0    0  0.25075377325E+02  0.15265685037E+02  0.15922122447E+01  0.29399844004E+02  0.00000000000E+00 0.  1.
</event>
<event>
 7    1  0.3597718E-013  0.7246158E+02  0.7816164E-02  0.1226708E+00
        -11   -1    0    0    0    0  0.00000000000E+00  0.00000000000E+00  0.45593999997E+02  0.45594000000E+02  0.51100000000E-03 0.  1.
         11   -1    0    0    0    0 -0.00000000000E+00 -0.00000000000E+00 -0.45593999997E+02  0.45594000000E+02  0.51100000000E-03 0. -1.
    9900012    2    1    2    0    0 -0.23304961876E+00  0.44393228076E+01  0.18191116551E+02  0.72461584954E+02  0.70000019097E+02 0.  0.
         12    1    1    2    0    0  0.23304961876E+00 -0.44393228076E+01 -0.18191116551E+02  0.18726415046E+02  0.00000000000E+00 0. -1.
         11    1    3    3    0    0 -0.21999054980E+01  0.10927505753E+02 -0.63646905290E+01  0.12835858054E+02  0.51100000000E-03 0. -1.
        -11    1    3    3    0    0 -0.88721899452E+01  0.17703121076E+02  0.26459636573E+02  0.33048882252E+02  0.51100000000E-03 0.  1.
         12    1    3    3    0    0  0.10839045824E+02 -0.24191304022E+02 -0.19038294932E+01  0.26576844648E+02  0.00000000000E+00 0. -1.
</event>
<event>
 7    1  0.3597718E-013  0.7246161E+02  0.7816164E-02  0.1226708E+00
        -11   -1    0    0    0    0  0.00000000000E+00  0.00000000000E+00  0.45593999997E+02  0.45594000000E+02  0.51100000000E-03 0. -1.
         11   -1    0    0    0    0 -0.00000000000E+00 -0.00000000000E+00 -0.45593999997E+02  0.45594000000E+02  0.51100000000E-03 0.  1.
    9900012    2    1    2    0    0 -0.18239142639E+02 -0.10227480194E+01  0.41189077114E+01  0.72461608505E+02  0.70000049776E+02 0.  0.
         12    1    1    2    0    0  0.18239142639E+02  0.10227480194E+01 -0.41189077114E+01  0.18726391495E+02  0.00000000000E+00 0. -1.
         11    1    3    3    0    0 -0.22543091039E+01  0.27563255527E+02 -0.60366757274E+01  0.28306473091E+02  0.51100000000E-03 0. -1.
        -11    1    3    3    0    0 -0.16932390244E+01 -0.15298928726E+02 -0.81345029062E+01  0.17409607013E+02  0.51100000000E-03 0.  1.
        -12    1    3    3    0    0 -0.14291594510E+02 -0.13287074820E+02  0.18290086345E+02  0.26745528401E+02  0.00000000000E+00 0.  1.
</event>
<event>
 7    1  0.3597718E-013  0.7246155E+02  0.7816164E-02  0.1226708E+00
        -11   -1    0    0    0    0  0.00000000000E+00  0.00000000000E+00  0.45593999997E+02  0.45594000000E+02  0.51100000000E-03 0.  1.
         11   -1    0    0    0    0 -0.00000000000E+00 -0.00000000000E+00 -0.45593999997E+02  0.45594000000E+02  0.51100000000E-03 0. -1.
    9900012    2    1    2    0    0 -0.17947034240E+02  0.38238079705E+01  0.37366305203E+01  0.72461549374E+02  0.69999972748E+02 0.  0.
         12    1    1    2    0    0  0.17947034240E+02 -0.38238079705E+01 -0.37366305203E+01  0.18726450626E+02  0.00000000000E+00 0. -1.
         11    1    3    3    0    0 -0.51628956625E+01 -0.11682634908E+02 -0.16403250993E+02  0.20789566937E+02  0.51100000000E-03 0. -1.
        -11    1    3    3    0    0 -0.25494531886E+02  0.67479269667E+01  0.95121880642E-01  0.26372613122E+02  0.51100000000E-03 0.  1.
         12    1    3    3    0    0  0.12710393309E+02  0.87585159117E+01  0.20044759633E+02  0.25299369316E+02  0.00000000000E+00 0. -1.
</event>
<event>
 7    1  0.3597718E-013  0.7246156E+02  0.7816164E-02  0.1226708E+00
        -11   -1    0    0    0    0  0.00000000000E+00  0.00000000000E+00  0.45593999997E+02  0.45594000000E+02  0.51100000000E-03 0. -1.
         11   -1    0    0    0    0 -0.00000000000E+00 -0.00000000000E+00 -0.45593999997E+02  0.45594000000E+02  0.51100000000E-03 0.  1.
    9900012    2    1    2    0    0  0.11175915512E+02  0.99387072425E+01  0.11269444602E+02  0.72461564920E+02  0.69999992998E+02 0.  0.
         12    1    1    2    0    0 -0.11175915512E+02 -0.99387072425E+01 -0.11269444602E+02  0.18726435080E+02  0.00000000000E+00 0. -1.
         11    1    3    3    0    0 -0.17937877048E+01 -0.22886454813E+02 -0.45333785108E+01  0.23399978829E+02  0.51100000000E-03 0. -1.
        -11    1    3    3    0    0 -0.55358127029E+01  0.11817472654E+02 -0.52158364625E+01  0.14053570097E+02  0.51100000000E-03 0.  1.
         12    1    3    3    0    0  0.18505515919E+02  0.21007689401E+02  0.21018659576E+02  0.35008015993E+02  0.00000000000E+00 0. -1.
</event>
<event>
 7    1  0.3597718E-013  0.7246174E+02  0.7816164E-02  0.1226708E+00
        -11   -1    0    0    0    0  0.00000000000E+00  0.00000000000E+00  0.45593999997E+02  0.45594000000E+02  0.51100000000E-03 0.  1.
         11   -1    0    0    0    0 -0.00000000000E+00 -0.00000000000E+00 -0.45593999997E+02  0.45594000000E+02  0.51100000000E-03 0. -1.
    9900012    2    1    2    0    0  0.18148075617E+01 -0.85900676541E+01  0.16540556193E+02  0.72461740684E+02  0.70000221964E+02 0.  0.
         12    1    1    2    0    0 -0.18148075617E+01  0.85900676541E+01 -0.16540556193E+02  0.18726259316E+02  0.00000000000E+00 0. -1.
         11    1    3    3    0    0 -0.20166549502E+02 -0.15419952476E+02  0.14449431450E+02  0.29210455708E+02  0.51100000000E-03 0. -1.
        -11    1    3    3    0    0  0.59997308042E+01 -0.89700550786E+01 -0.12455993940E+02  0.16480608094E+02  0.51100000000E-03 0.  1.
        -12    1    3    3    0    0  0.15981626259E+02  0.15799939901E+02  0.14547118683E+02  0.26770676882E+02  0.00000000000E+00 0.  1.
</event>
<event>
 7    1  0.3597718E-013  0.7246161E+02  0.7816164E-02  0.1226708E+00
        -11   -1    0    0    0    0  0.00000000000E+00  0.00000000000E+00  0.45593999997E+02  0.45594000000E+02  0.51100000000E-03 0.  1.
         11   -1    0    0    0    0 -0.00000000000E+00 -0.00000000000E+00 -0.45593999997E+02  0.45594000000E+02  0.51100000000E-03 0. -1.
    9900012    2    1    2    0    0  0.16789107637E+02 -0.74962000477E+01  0.35511068447E+01  0.72461614598E+02  0.70000057714E+02 0.  0.
         12    1    1    2    0    0 -0.16789107637E+02  0.74962000477E+01 -0.35511068447E+01  0.18726385402E+02  0.00000000000E+00 0. -1.
         11    1    3    3    0    0  0.27679962471E+01  0.26910640764E+01 -0.58947809985E+01  0.70464226646E+01  0.51100000000E-03 0. -1.
        -11    1    3    3    0    0  0.45173476609E+01  0.18832093926E+02 -0.16424811434E+02  0.25393475982E+02  0.51100000000E-03 0.  1.
         12    1    3    3    0    0  0.95037637289E+01 -0.29019358050E+02  0.25870699277E+02  0.40021715952E+02  0.00000000000E+00 0. -1.
</event>
<event>
 7    1  0.3597718E-013  0.7246154E+02  0.7816164E-02  0.1226708E+00
        -11   -1    0    0    0    0  0.00000000000E+00  0.00000000000E+00  0.45593999997E+02  0.45594000000E+02  0.51100000000E-03 0.  1.
         11   -1    0    0    0    0 -0.00000000000E+00 -0.00000000000E+00 -0.45593999997E+02  0.45594000000E+02  0.51100000000E-03 0. -1.
    9900012    2    1    2    0    0 -0.15786479581E+01  0.17632122363E+02  0.61070861658E+01  0.72461538246E+02  0.69999958251E+02 0.  0.
         12    1    1    2    0    0  0.15786479581E+01 -0.17632122363E+02 -0.61070861658E+01  0.18726461754E+02  0.00000000000E+00 0. -1.
         11    1    3    3    0    0  0.54457344126E+01  0.26683382353E+02  0.10658154129E+02  0.29244745969E+02  0.51100000000E-03 0. -1.
        -11    1    3    3    0    0 -0.19919545242E+02  0.79399260675E+01 -0.43763549338E+01  0.21885684622E+02  0.51100000000E-03 0.  1.
        -12    1    3    3    0    0  0.12895162871E+02 -0.16991186058E+02 -0.17471302981E+00  0.21331107655E+02  0.00000000000E+00 0.  1.
</event>
<event>
 7    1  0.3597718E-013  0.7246152E+02  0.7816164E-02  0.1226708E+00
        -11   -1    0    0    0    0  0.00000000000E+00  0.00000000000E+00  0.45593999997E+02  0.45594000000E+02  0.51100000000E-03 0.  1.
         11   -1    0    0    0    0 -0.00000000000E+00 -0.00000000000E+00 -0.45593999997E+02  0.45594000000E+02  0.51100000000E-03 0. -1.
    9900012    2    1    2    0    0  0.13903700314E+02  0.97019625149E+00  0.12507071413E+02  0.72461521460E+02  0.69999936384E+02 0.  0.
         12    1    1    2    0    0 -0.13903700314E+02 -0.97019625149E+00 -0.12507071413E+02  0.18726478540E+02  0.00000000000E+00 0. -1.
         11    1    3    3    0    0  0.48334158306E+01  0.17407867361E+01 -0.30235565415E+00  0.51462283524E+01  0.51100000000E-03 0. -1.
        -11    1    3    3    0    0  0.12184320516E+02  0.14045188434E+02  0.35478509981E+02  0.40055582075E+02  0.51100000000E-03 0.  1.
         12    1    3    3    0    0 -0.31140360324E+01 -0.14815778919E+02 -0.22669082915E+02  0.27259711032E+02  0.00000000000E+00 0. -1.
</event>
<event>
 7    1  0.3597718E-013  0.7246153E+02  0.7816164E-02  0.1226708E+00
        -11   -1    0    0    0    0  0.00000000000E+00  0.00000000000E+00  0.45593999997E+02  0.45594000000E+02  0.51100000000E-03 0.  1.
         11   -1    0    0    0    0 -0.00000000000E+00 -0.00000000000E+00 -0.45593999997E+02  0.45594000000E+02  0.51100000000E-03 0. -1.
    9900012    2    1    2    0    0 -0.73051739825E+01 -0.52545653270E+00  0.17234818039E+02  0.72461531451E+02  0.69999949399E+02 0.  0.
         12    1    1    2    0    0  0.73051739825E+01  0.52545653270E+00 -0.17234818039E+02  0.18726468549E+02  0.00000000000E+00 0. -1.
         11    1    3    3    0    0 -0.37039572177E+01  0.37298681460E+01  0.23004380595E+01  0.57378768707E+01  0.51100000000E-03 0. -1.
        -11    1    3    3    0    0 -0.26419039275E+01  0.26563590770E+02  0.22571355682E+02  0.34958119351E+02  0.51100000000E-03 0.  1.
         12    1    3    3    0    0 -0.95931283738E+00 -0.30818915448E+02 -0.76369757022E+01  0.31765535229E+02  0.00000000000E+00 0. -1.
</event>
<event>
 7    1  0.3597718E-013  0.7246164E+02  0.7816164E-02  0.1226708E+00
        -11   -1    0    0    0    0  0.00000000000E+00  0.00000000000E+00  0.45593999997E+02  0.45594000000E+02  0.51100000000E-03 0. -1.
         11   -1    0    0    0    0 -0.00000000000E+00 -0.00000000000E+00 -0.45593999997E+02  0.45594000000E+02  0.51100000000E-03 0.  1.
    9900012    2    1    2    0    0 -0.78835625332E+01 -0.34266617924E+01 -0.16636831351E+02  0.72461635520E+02  0.70000084968E+02 0.  0.
         12    1    1    2    0    0  0.78835625332E+01  0.34266617924E+01  0.16636831351E+02  0.18726364480E+02  0.00000000000E+00 0. -1.
         11    1    3    3    0    0 -0.56692489233E+01 -0.64399234546E+01 -0.15837250271E+02  0.18011981952E+02  0.51100000000E-03 0. -1.
        -11    1    3    3    0    0 -0.17808165542E+02 -0.11120390571E+01 -0.21671162992E+02  0.28071456972E+02  0.51100000000E-03 0.  1.
         12    1    3    3    0    0  0.15593851932E+02  0.41253007193E+01  0.20871581912E+02  0.26378196595E+02  0.00000000000E+00 0. -1.
</event>
<event>
 7    1  0.3597718E-013  0.7246154E+02  0.7816164E-02  0.1226708E+00
        -11   -1    0    0    0    0  0.00000000000E+00  0.00000000000E+00  0.45593999997E+02  0.45594000000E+02  0.51100000000E-03 0.  1.
         11   -1    0    0    0    0 -0.00000000000E+00 -0.00000000000E+00 -0.45593999997E+02  0.45594000000E+02  0.51100000000E-03 0. -1.
    9900012    2    1    2    0    0  0.10613314093E+02  0.14230998685E+02  0.59595734537E+01  0.72461540768E+02  0.69999961536E+02 0.  0.
         12    1    1    2    0    0 -0.10613314093E+02 -0.14230998685E+02 -0.59595734537E+01  0.18726459232E+02  0.00000000000E+00 0. -1.
         11    1    3    3    0    0  0.39285898551E+01  0.30845575879E+02 -0.15781431727E+02  0.34870287598E+02  0.51100000000E-03 0. -1.
        -11    1    3    3    0    0  0.12895305932E+02 -0.94371742275E+01  0.25505622138E+01  0.16181920169E+02  0.51100000000E-03 0.  1.
        -12    1    3    3    0    0 -0.62105816938E+01 -0.71774029660E+01  0.19190442967E+02  0.21409333002E+02  0.00000000000E+00 0.  1.
</event>
<event>
 7    1  0.3597718E-013  0.7246160E+02  0.7816164E-02  0.1226708E+00
        -11   -1    0    0    0    0  0.00000000000E+00  0.00000000000E+00  0.45593999997E+02  0.45594000000E+02  0.51100000000E-03 0. -1.
         11   -1    0    0    0    0 -0.00000000000E+00 -0.00000000000E+00 -0.45593999997E+02  0.45594000000E+02  0.51100000000E-03 0.  1.
    9900012    2    1    2    0    0 -0.52808671276E+00 -0.16751391080E+02  0.83540400597E+01  0.72461602481E+02  0.70000041930E+02 0.  0.
         12    1    1    2    0    0  0.52808671276E+00  0.16751391080E+02 -0.83540400597E+01  0.18726397519E+02  0.00000000000E+00 0. -1.
         11    1    3    3    0    0 -0.96032787867E+01  0.20716264118E+02  0.15266789732E+02  0.27467461322E+02  0.51100000000E-03 0.  1.
        -11    1    3    3    0    0  0.11345181451E+02 -0.73422774321E+01  0.15967738298E+01  0.13607786998E+02  0.51100000000E-03 0. -1.
        -12    1    3    3    0    0 -0.22699893774E+01 -0.30125377767E+02 -0.85095235019E+01  0.31386354162E+02  0.00000000000E+00 0.  1.
</event>
<event>
 7    1  0.3597718E-013  0.7246193E+02  0.7816164E-02  0.1226707E+00
        -11   -1    0    0    0    0  0.00000000000E+00  0.00000000000E+00  0.45593999997E+02  0.45594000000E+02  0.51100000000E-03 0.  1.
         11   -1    0    0    0    0 -0.00000000000E+00 -0.00000000000E+00 -0.45593999997E+02  0.45594000000E+02  0.51100000000E-03 0. -1.
    9900012    2    1    2    0    0  0.75630437572E+01  0.16773655033E+02 -0.34800356797E+01  0.72461927738E+02  0.70000465635E+02 0.  0.
         12    1    1    2    0    0 -0.75630437572E+01 -0.16773655033E+02  0.34800356797E+01  0.18726072262E+02  0.00000000000E+00 0. -1.
         11    1    3    3    0    0  0.66135697510E+01  0.31620265433E+01 -0.15897849886E+01  0.75010088177E+01  0.51100000000E-03 0. -1.
        -11    1    3    3    0    0  0.19622741087E+02  0.22238986329E+02  0.19334442976E+02  0.35404027541E+02  0.51100000000E-03 0.  1.
         12    1    3    3    0    0 -0.18673267081E+02 -0.86273578393E+01 -0.21224693667E+02  0.29556891379E+02  0.00000000000E+00 0. -1.
</event>
<event>
 7    1  0.3597718E-013  0.7246157E+02  0.7816164E-02  0.1226708E+00
        -11   -1    0    0    0    0  0.00000000000E+00  0.00000000000E+00  0.45593999997E+02  0.45594000000E+02  0.51100000000E-03 0. -1.
         11   -1    0    0    0    0 -0.00000000000E+00 -0.00000000000E+00 -0.45593999997E+02  0.45594000000E+02  0.51100000000E-03 0.  1.
    9900012    2    1    2    0    0 -0.18060548253E+02  0.20414771277E+01 -0.45086563317E+01  0.72461574447E+02  0.70000005410E+02 0.  0.
         12    1    1    2    0    0  0.18060548253E+02 -0.20414771277E+01  0.45086563317E+01  0.18726425553E+02  0.00000000000E+00 0. -1.
         11    1    3    3    0    0 -0.12454457446E+02 -0.27158032124E+01  0.74909552712E+01  0.14785246311E+02  0.51100000000E-03 0. -1.
        -11    1    3    3    0    0 -0.85398282513E+01  0.29579510712E+02 -0.23283220532E+01  0.30875511402E+02  0.51100000000E-03 0.  1.
         12    1    3    3    0    0  0.29337374438E+01 -0.24822230372E+02 -0.96712895497E+01  0.26800816733E+02  0.00000000000E+00 0. -1.
</event>
<event>
 7    1  0.3597718E-013  0.7246159E+02  0.7816164E-02  0.1226708E+00
        -11   -1    0    0    0    0  0.00000000000E+00  0.00000000000E+00  0.45593999997E+02  0.45594000000E+02  0.51100000000E-03 0.  1.
         11   -1    0    0    0    0 -0.00000000000E+00 -0.00000000000E+00 -0.45593999997E+02  0.45594000000E+02  0.51100000000E-03 0. -1.
    9900012    2    1    2    0    0 -0.15120916549E+02  0.36388656466E+01  0.10430480803E+02  0.72461591101E+02  0.70000027105E+02 0.  0.
         12    1    1    2    0    0  0.15120916549E+02 -0.36388656466E+01 -0.10430480803E+02  0.18726408899E+02  0.00000000000E+00 0. -1.
         11    1    3    3    0    0  0.76621957692E+01  0.37965828111E+01 -0.14007945534E+02  0.16411758692E+02  0.51100000000E-03 0. -1.
        -11    1    3    3    0    0 -0.47009871738E+01  0.20480641164E+02  0.29949469338E+01  0.21225589516E+02  0.51100000000E-03 0.  1.
        -12    1    3    3    0    0 -0.18082125144E+02 -0.20638358328E+02  0.21443479403E+02  0.34824242893E+02  0.00000000000E+00 0.  1.
</event>
<event>
 7    1  0.3597718E-013  0.7246133E+02  0.7816164E-02  0.1226709E+00
        -11   -1    0    0    0    0  0.00000000000E+00  0.00000000000E+00  0.45593999997E+02  0.45594000000E+02  0.51100000000E-03 0. -1.
         11   -1    0    0    0    0 -0.00000000000E+00 -0.00000000000E+00 -0.45593999997E+02  0.45594000000E+02  0.51100000000E-03 0.  1.
    9900012    2    1    2    0    0 -0.14066947291E+02 -0.82021605468E+01  0.92484383364E+01  0.72461333041E+02  0.69999690933E+02 0.  0.
         12    1    1    2    0    0  0.14066947291E+02  0.82021605468E+01 -0.92484383364E+01  0.18726666959E+02  0.00000000000E+00 0. -1.
         11    1    3    3    0    0  0.13326500224E+02  0.15332225667E+02  0.17840199487E+02  0.27036003221E+02  0.51100000000E-03 0. -1.
        -11    1    3    3    0    0 -0.68785234629E+00  0.48022699255E+01  0.17166961889E+01  0.51460648416E+01  0.51100000000E-03 0.  1.
        -12    1    3    3    0    0 -0.26705595169E+02 -0.28336656140E+02 -0.10308457340E+02  0.40279264979E+02  0.00000000000E+00 0.  1.
</event>
<event>
 7    1  0.3597718E-013  0.7246152E+02  0.7816164E-02  0.1226708E+00
        -11   -1    0    0    0    0  0.00000000000E+00  0.00000000000E+00  0.45593999997E+02  0.45594000000E+02  0.51100000000E-03 0.  1.
         11   -1    0    0    0    0 -0.00000000000E+00 -0.00000000000E+00 -0.45593999997E+02  0.45594000000E+02  0.51100000000E-03 0. -1.
    9900012    2    1    2    0    0  0.14937199119E+02 -0.78749073031E+01 -0.80961122594E+01  0.72461518316E+02  0.69999932289E+02 0.  0.
         12    1    1    2    0    0 -0.14937199119E+02  0.78749073031E+01  0.80961122594E+01  0.18726481684E+02  0.00000000000E+00 0. -1.
         11    1    3    3    0    0 -0.11253606275E+02 -0.11991228319E+02  0.77751682227E+01  0.18190284548E+02  0.51100000000E-03 0. -1.
        -11    1    3    3    0    0 -0.10817833980E+02 -0.68250018658E+01 -0.71888924053E+00  0.12811049312E+02  0.51100000000E-03 0.  1.
         12    1    3    3    0    0  0.37008639374E+02  0.10941322882E+02 -0.15152391242E+02  0.41460184455E+02  0.00000000000E+00 0. -1.
</event>
<event>
 7    1  0.3597718E-013  0.7246156E+02  0.7816164E-02  0.1226708E+00
        -11   -1    0    0    0    0  0.00000000000E+00  0.00000000000E+00  0.45593999997E+02  0.45594000000E+02  0.51100000000E-03 0.  1.
         11   -1    0    0    0    0 -0.00000000000E+00 -0.00000000000E+00 -0.45593999997E+02  0.45594000000E+02  0.51100000000E-03 0. -1.
    9900012    2    1    2    0    0  0.87711603087E+01 -0.14071402062E+02 -0.87029755645E+01  0.72461564332E+02  0.69999992233E+02 0.  0.
         12    1    1    2    0    0 -0.87711603087E+01  0.14071402062E+02  0.87029755645E+01  0.18726435668E+02  0.00000000000E+00 0. -1.
         11    1    3    3    0    0 -0.69704236194E+01 -0.43734864247E+01  0.67711099557E+01  0.10656552878E+02  0.51100000000E-03 0. -1.
        -11    1    3    3    0    0  0.14444654618E+02 -0.18693416439E+02  0.16335990522E+02  0.28722055146E+02  0.51100000000E-03 0.  1.
         12    1    3    3    0    0  0.12969293103E+01  0.89955008014E+01 -0.31810076042E+02  0.33082956309E+02  0.00000000000E+00 0. -1.
</event>
<event>
 7    1  0.3597718E-013  0.7246160E+02  0.7816164E-02  0.1226708E+00
        -11   -1    0    0    0    0  0.00000000000E+00  0.00000000000E+00  0.45593999997E+02  0.45594000000E+02  0.51100000000E-03 0.  1.
         11   -1    0    0    0    0 -0.00000000000E+00 -0.00000000000E+00 -0.45593999997E+02  0.45594000000E+02  0.51100000000E-03 0. -1.
    9900012    2    1    2    0    0  0.17414635543E+02  0.18220977881E+01 -0.66399041255E+01  0.72461604238E+02  0.70000044218E+02 0.  0.
         12    1    1    2    0    0 -0.17414635543E+02 -0.18220977881E+01  0.66399041255E+01  0.18726395762E+02  0.00000000000E+00 0. -1.
         11    1    3    3    0    0 -0.94450506676E+01 -0.21626364602E+02 -0.84040651003E+01  0.25050687386E+02  0.51100000000E-03 0. -1.
        -11    1    3    3    0    0  0.15726937463E+01 -0.73107150630E+01 -0.73182806146E+00  0.75136870393E+01  0.51100000000E-03 0.  1.
        -12    1    3    3    0    0  0.25286992464E+02  0.30759177453E+02  0.24959890363E+01  0.39897229813E+02  0.00000000000E+00 0.  1.
</event>
<event>
 7    1  0.3597718E-013  0.7246222E+02  0.7816164E-02  0.1226706E+00
        -11   -1    0    0    0    0  0.00000000000E+00  0.00000000000E+00  0.45593999997E+02  0.45594000000E+02  0.51100000000E-03 0.  1.
         11   -1    0    0    0    0 -0.00000000000E+00 -0.00000000000E+00 -0.45593999997E+02  0.45594000000E+02  0.51100000000E-03 0. -1.
    9900012    2    1    2    0    0 -0.10529745169E+02  0.10962713821E+02  0.10936094205E+02  0.72462221402E+02  0.70000848183E+02 0.  0.
         12    1    1    2    0    0  0.10529745169E+02 -0.10962713821E+02 -0.10936094205E+02  0.18725778598E+02  0.00000000000E+00 0. -1.
         11    1    3    3    0    0  0.85741001370E+01  0.31897547328E+01 -0.16799014177E+02  0.19128424033E+02  0.51100000000E-03 0. -1.
        -11    1    3    3    0    0 -0.11875128710E+02  0.14099856022E+02 -0.50963064453E+01  0.19125819234E+02  0.51100000000E-03 0.  1.
        -12    1    3    3    0    0 -0.72287165960E+01 -0.63268969336E+01  0.32831414828E+02  0.34207978134E+02  0.00000000000E+00 0.  1.
</event>
<event>
 7    1  0.3597718E-013  0.7246160E+02  0.7816164E-02  0.1226708E+00
        -11   -1    0    0    0    0  0.00000000000E+00  0.00000000000E+00  0.45593999997E+02  0.45594000000E+02  0.51100000000E-03 0.  1.
         11   -1    0    0    0    0 -0.00000000000E+00 -0.00000000000E+00 -0.45593999997E+02  0.45594000000E+02  0.51100000000E-03 0. -1.
    9900012    2    1    2    0    0  0.18462078671E+02 -0.17490922232E+01  0.26020134245E+01  0.72461597614E+02  0.70000035589E+02 0.  0.
         12    1    1    2    0    0 -0.18462078671E+02  0.17490922232E+01 -0.26020134245E+01  0.18726402386E+02  0.00000000000E+00 0. -1.
         11    1    3    3    0    0 -0.16873197052E+01  0.22535964653E+02  0.24694370225E+01  0.22733562636E+02  0.51100000000E-03 0. -1.
        -11    1    3    3    0    0  0.21794780851E+02 -0.41820905828E+01  0.13079681639E+02  0.25760054853E+02  0.51100000000E-03 0.  1.
         12    1    3    3    0    0 -0.16453824744E+01 -0.20102966294E+02 -0.12947105237E+02  0.23967980126E+02  0.00000000000E+00 0. -1.
</event>
<event>
 7    1  0.3597718E-013  0.7246159E+02  0.7816164E-02  0.1226708E+00
        -11   -1    0    0    0    0  0.00000000000E+00  0.00000000000E+00  0.45593999997E+02  0.45594000000E+02  0.51100000000E-03 0. -1.
         11   -1    0    0    0    0 -0.00000000000E+00 -0.00000000000E+00 -0.45593999997E+02  0.45594000000E+02  0.51100000000E-03 0.  1.
    9900012    2    1    2    0    0 -0.19175637572E+01 -0.18275146331E+02 -0.36083836651E+01  0.72461589322E+02  0.70000024788E+02 0.  0.
         12    1    1    2    0    0  0.19175637572E+01  0.18275146331E+02  0.36083836651E+01  0.18726410678E+02  0.00000000000E+00 0. -1.
         11    1    3    3    0    0  0.73156160547E+01 -0.62322209048E+01  0.16790377798E+01  0.97559204483E+01  0.51100000000E-03 0. -1.
        -11    1    3    3    0    0  0.13258604919E+02  0.82716001189E+01 -0.22845729526E+02  0.27679185876E+02  0.51100000000E-03 0.  1.
         12    1    3    3    0    0 -0.22491784731E+02 -0.20314525545E+02  0.17558308081E+02  0.35026482998E+02  0.00000000000E+00 0. -1.
</event>
<event>
 7    1  0.3597718E-013  0.7246162E+02  0.7816164E-02  0.1226708E+00
        -11   -1    0    0    0    0  0.00000000000E+00  0.00000000000E+00  0.45593999997E+02  0.45594000000E+02  0.51100000000E-03 0. -1.
         11   -1    0    0    0    0 -0.00000000000E+00 -0.00000000000E+00 -0.45593999997E+02  0.45594000000E+02  0.51100000000E-03 0.  1.
    9900012    2    1    2    0    0  0.32075544175E+01  0.15410200122E+02 -0.10144677421E+02  0.72461624133E+02  0.70000070135E+02 0.  0.
         12    1    1    2    0    0 -0.32075544175E+01 -0.15410200122E+02  0.10144677421E+02  0.18726375867E+02  0.00000000000E+00 0. -1.
         11    1    3    3    0    0  0.38429702539E+01 -0.37828095741E+01 -0.20606366133E+02  0.21300243992E+02  0.51100000000E-03 0. -1.
        -11    1    3    3    0    0  0.94449450618E+00  0.38869206441E+01 -0.18197854369E+02  0.18632287188E+02  0.51100000000E-03 0.  1.
         12    1    3    3    0    0 -0.15799103426E+01  0.15306089052E+02  0.28659543081E+02  0.32529092953E+02  0.00000000000E+00 0. -1.
</event>
<event>
 7    1  0.3597718E-013  0.7246174E+02  0.7816164E-02  0.1226708E+00
        -11   -1    0    0    0    0  0.00000000000E+00  0.00000000000E+00  0.45593999997E+02  0.45594000000E+02  0.51100000000E-03 0.  1.
         11   -1    0    0    0    0 -0.00000000000E+00 -0.00000000000E+00 -0.45593999997E+02  0.45594000000E+02  0.51100000000E-03 0. -1.
    9900012    2    1    2    0    0  0.54442471405E+01  0.10114897224E+02  0.14789244289E+02  0.72461742515E+02  0.70000224349E+02 0.  0.
         12    1    1    2    0    0 -0.54442471405E+01 -0.10114897224E+02 -0.14789244289E+02  0.18726257485E+02  0.00000000000E+00 0. -1.
         11    1    3    3    0    0 -0.68691658043E+01  0.80901079225E+01  0.20684253791E+02  0.23248088958E+02  0.51100000000E-03 0. -1.
        -11    1    3    3    0    0  0.13753166495E+02 -0.18731963277E+01  0.19247401227E+02  0.23730168718E+02  0.51100000000E-03 0.  1.
         12    1    3    3    0    0 -0.14397535499E+01  0.38979856289E+01 -0.25142410730E+02  0.25483484839E+02  0.00000000000E+00 0. -1.
</event>
<event>
 7    1  0.3620541E-013  0.7246157E+02  0.7816164E-02  0.1226708E+00
        -11   -1    0    0    0    0  0.00000000000E+00  0.00000000000E+00  0.45593999997E+02  0.45594000000E+02  0.51100000000E-03 0.  1.
         11   -1    0    0    0    0 -0.00000000000E+00 -0.00000000000E+00 -0.45593999997E+02  0.45594000000E+02  0.51100000000E-03 0. -1.
    9900012    2    1    2    0    0  0.28356235838E+01  0.16393071794E+02 -0.85968379096E+01  0.72461569855E+02  0.69999999427E+02 0.  0.
         12    1    1    2    0    0 -0.28356235838E+01 -0.16393071794E+02  0.85968379096E+01  0.18726430145E+02  0.00000000000E+00 0. -1.
         11    1    3    3    0    0 -0.15642938742E+01  0.11259805071E+02 -0.12210861698E+02  0.16683386024E+02  0.51100000000E-03 0. -1.
        -11    1    3    3    0    0 -0.23189651848E+02  0.13433549176E+02  0.55766621805E+00  0.26805432065E+02  0.51100000000E-03 0.  1.
         12    1    3    3    0    0  0.27589569306E+02 -0.83002824529E+01  0.30563575703E+01  0.28972751766E+02  0.00000000000E+00 0. -1.
</event>
<event>
 7    1  0.3597718E-013  0.7246153E+02  0.7816164E-02  0.1226708E+00
        -11   -1    0    0    0    0  0.00000000000E+00  0.00000000000E+00  0.45593999997E+02  0.45594000000E+02  0.51100000000E-03 0. -1.
         11   -1    0    0    0    0 -0.00000000000E+00 -0.00000000000E+00 -0.45593999997E+02  0.45594000000E+02  0.51100000000E-03 0.  1.
    9900012    2    1    2    0    0  0.11654014227E+02  0.96865422646E+01 -0.11001611494E+02  0.72461531991E+02  0.69999950102E+02 0.  0.
         12    1    1    2    0    0 -0.11654014227E+02 -0.96865422646E+01  0.11001611494E+02  0.18726468009E+02  0.00000000000E+00 0. -1.
         11    1    3    3    0    0  0.11481100273E+02 -0.10121241011E+02  0.65001015970E+01  0.16628484721E+02  0.51100000000E-03 0. -1.
        -11    1    3    3    0    0 -0.15078278887E+00  0.13463148552E+02 -0.34848777060E+02  0.37359287563E+02  0.51100000000E-03 0.  1.
         12    1    3    3    0    0  0.32369674270E+00  0.63446347233E+01  0.17347063969E+02  0.18473759707E+02  0.00000000000E+00 0. -1.
</event>
<event>
 7    1  0.3597718E-013  0.7246153E+02  0.7816164E-02  0.1226708E+00
        -11   -1    0    0    0    0  0.00000000000E+00  0.00000000000E+00  0.45593999997E+02  0.45594000000E+02  0.51100000000E-03 0.  1.
         11   -1    0    0    0    0 -0.00000000000E+00 -0.00000000000E+00 -0.45593999997E+02  0.45594000000E+02  0.51100000000E-03 0. -1.
    9900012    2    1    2    0    0 -0.49752823650E+01  0.60057468137E+01  0.17025218836E+02  0.72461534615E+02  0.69999953521E+02 0.  0.
         12    1    1    2    0    0  0.49752823650E+01 -0.60057468137E+01 -0.17025218836E+02  0.18726465385E+02  0.00000000000E+00 0. -1.
         11    1    3    3    0    0  0.11510959826E+02 -0.71269468378E+01  0.13394633725E+02  0.19044993574E+02  0.51100000000E-03 0. -1.
        -11    1    3    3    0    0  0.10802635572E+02 -0.97837026303E+01 -0.70850215971E+01  0.16205409707E+02  0.51100000000E-03 0.  1.
         12    1    3    3    0    0 -0.27288877763E+02  0.22916396282E+02  0.10715606708E+02  0.37211131335E+02  0.00000000000E+00 0. -1.
</event>
<event>
 7    1  0.3597718E-013  0.7246160E+02  0.7816164E-02  0.1226708E+00
        -11   -1    0    0    0    0  0.00000000000E+00  0.00000000000E+00  0.45593999997E+02  0.45594000000E+02  0.51100000000E-03 0.  1.
         11   -1    0    0    0    0 -0.00000000000E+00 -0.00000000000E+00 -0.45593999997E+02  0.45594000000E+02  0.51100000000E-03 0. -1.
    9900012    2    1    2    0    0 -0.12177104092E+02  0.94514702354E+01  0.10633243882E+02  0.72461600743E+02  0.70000039666E+02 0.  0.
         12    1    1    2    0    0  0.12177104092E+02 -0.94514702354E+01 -0.10633243882E+02  0.18726399257E+02  0.00000000000E+00 0. -1.
         11    1    3    3    0    0  0.12398224316E+01 -0.12344370047E+01 -0.77809793456E+01  0.79752513577E+01  0.51100000000E-03 0. -1.
        -11    1    3    3    0    0 -0.13417975265E+02  0.33242237568E+02  0.21374234740E+02  0.41736630550E+02  0.51100000000E-03 0.  1.
         12    1    3    3    0    0  0.10487415843E-02 -0.22556330328E+02 -0.29600115123E+01  0.22749718836E+02  0.00000000000E+00 0. -1.
</event>
<event>
 7    1  0.3597718E-013  0.7246157E+02  0.7816164E-02  0.1226708E+00
        -11   -1    0    0    0    0  0.00000000000E+00  0.00000000000E+00  0.45593999997E+02  0.45594000000E+02  0.51100000000E-03 0. -1.
         11   -1    0    0    0    0 -0.00000000000E+00 -0.00000000000E+00 -0.45593999997E+02  0.45594000000E+02  0.51100000000E-03 0.  1.
    9900012    2    1    2    0    0  0.81491763083E+01 -0.31095793197E+01 -0.16571082915E+02  0.72461565555E+02  0.69999993826E+02 0.  0.
         12    1    1    2    0    0 -0.81491763083E+01  0.31095793197E+01  0.16571082915E+02  0.18726434445E+02  0.00000000000E+00 0. -1.
         11    1    3    3    0    0 -0.24223611572E+02  0.47472625396E+01  0.10457022757E+02  0.26808005976E+02  0.51100000000E-03 0. -1.
        -11    1    3    3    0    0  0.42410152041E+00 -0.44142318612E+01 -0.50609919345E+01  0.67289631182E+01  0.51100000000E-03 0.  1.
        -12    1    3    3    0    0  0.31948686360E+02 -0.34426099981E+01 -0.21967113737E+02  0.38924596461E+02  0.00000000000E+00 0.  1.
</event>
<event>
 7    1  0.3597718E-013  0.7246159E+02  0.7816164E-02  0.1226708E+00
        -11   -1    0    0    0    0  0.00000000000E+00  0.00000000000E+00  0.45593999997E+02  0.45594000000E+02  0.51100000000E-03 0. -1.
         11   -1    0    0    0    0 -0.00000000000E+00 -0.00000000000E+00 -0.45593999997E+02  0.45594000000E+02  0.51100000000E-03 0.  1.
    9900012    2    1    2    0    0  0.16733524181E+02  0.76421277664E+01  0.35022010784E+01  0.72461591890E+02  0.70000028132E+02 0.  0.
         12    1    1    2    0    0 -0.16733524181E+02 -0.76421277664E+01 -0.35022010784E+01  0.18726408110E+02  0.00000000000E+00 0. -1.
         11    1    3    3    0    0  0.21621043743E+02  0.62657518760E+01 -0.53222793924E+01  0.23131274009E+02  0.51100000000E-03 0.  1.
        -11    1    3    3    0    0 -0.12654809487E+02  0.22445046899E+02  0.19209946882E+01  0.25838238219E+02  0.51100000000E-03 0. -1.
         12    1    3    3    0    0  0.77672899255E+01 -0.21068671008E+02  0.69034857826E+01  0.23492079661E+02  0.00000000000E+00 0. -1.
</event>
<event>
 7    1  0.3597718E-013  0.7246164E+02  0.7816164E-02  0.1226708E+00
        -11   -1    0    0    0    0  0.00000000000E+00  0.00000000000E+00  0.45593999997E+02  0.45594000000E+02  0.51100000000E-03 0. -1.
         11   -1    0    0    0    0 -0.00000000000E+00 -0.00000000000E+00 -0.45593999997E+02  0.45594000000E+02  0.51100000000E-03 0.  1.
    9900012    2    1    2    0    0 -0.12815450785E+02 -0.13632979321E+02  0.76333064113E+00  0.72461639498E+02  0.70000090151E+02 0.  0.
         12    1    1    2    0    0  0.12815450785E+02  0.13632979321E+02 -0.76333064113E+00  0.18726360502E+02  0.00000000000E+00 0. -1.
         11    1    3    3    0    0  0.73172355541E+01  0.62167235609E+01  0.13888369425E+01  0.97014667087E+01  0.51100000000E-03 0. -1.
        -11    1    3    3    0    0 -0.12642106433E+02  0.11822654837E+02  0.18236858723E+02  0.25143210590E+02  0.51100000000E-03 0.  1.
        -12    1    3    3    0    0 -0.74905799061E+01 -0.31672357718E+02 -0.18862365024E+02  0.37616962199E+02  0.00000000000E+00 0.  1.
</event>
<event>
 7    1  0.3597718E-013  0.7246159E+02  0.7816164E-02  0.1226708E+00
        -11   -1    0    0    0    0  0.00000000000E+00  0.00000000000E+00  0.45593999997E+02  0.45594000000E+02  0.51100000000E-03 0.  1.
         11   -1    0    0    0    0 -0.00000000000E+00 -0.00000000000E+00 -0.45593999997E+02  0.45594000000E+02  0.51100000000E-03 0. -1.
    9900012    2    1    2    0    0  0.11381334166E+02  0.29458935739E+01  0.14576186494E+02  0.72461594337E+02  0.70000031320E+02 0.  0.
         12    1    1    2    0    0 -0.11381334166E+02 -0.29458935739E+01 -0.14576186494E+02  0.18726405663E+02  0.00000000000E+00 0. -1.
         11    1    3    3    0    0  0.53740005743E+01  0.41245841663E+01  0.33119214833E+01  0.75406167447E+01  0.51100000000E-03 0. -1.
        -11    1    3    3    0    0  0.28861979790E+02  0.17720321310E+02  0.23292916911E+01  0.33947743147E+02  0.51100000000E-03 0.  1.
         12    1    3    3    0    0 -0.22854646199E+02 -0.18899011902E+02  0.89349733197E+01  0.30973234445E+02  0.00000000000E+00 0. -1.
</event>
<event>
 7    1  0.3597718E-013  0.7246157E+02  0.7816164E-02  0.1226708E+00
        -11   -1    0    0    0    0  0.00000000000E+00  0.00000000000E+00  0.45593999997E+02  0.45594000000E+02  0.51100000000E-03 0.  1.
         11   -1    0    0    0    0 -0.00000000000E+00 -0.00000000000E+00 -0.45593999997E+02  0.45594000000E+02  0.51100000000E-03 0. -1.
    9900012    2    1    2    0    0 -0.15099252408E+01  0.57815761092E+01  0.17747465059E+02  0.72461574485E+02  0.70000005460E+02 0.  0.
         12    1    1    2    0    0  0.15099252408E+01 -0.57815761092E+01 -0.17747465059E+02  0.18726425515E+02  0.00000000000E+00 0. -1.
         11    1    3    3    0    0  0.74085569086E+01  0.17856122341E+02  0.78006685912E+01  0.20846540510E+02  0.51100000000E-03 0. -1.
        -11    1    3    3    0    0 -0.10722098649E+02 -0.15949691057E+02  0.27499363571E+02  0.33549531164E+02  0.51100000000E-03 0.  1.
         12    1    3    3    0    0  0.18036164996E+01  0.38751448258E+01 -0.17552567103E+02  0.18065502811E+02  0.00000000000E+00 0. -1.
</event>
<event>
 7    1  0.3597718E-013  0.7246150E+02  0.7816164E-02  0.1226708E+00
        -11   -1    0    0    0    0  0.00000000000E+00  0.00000000000E+00  0.45593999997E+02  0.45594000000E+02  0.51100000000E-03 0.  1.
         11   -1    0    0    0    0 -0.00000000000E+00 -0.00000000000E+00 -0.45593999997E+02  0.45594000000E+02  0.51100000000E-03 0. -1.
    9900012    2    1    2    0    0 -0.37700879160E+01  0.16998363814E+02  0.68937669137E+01  0.72461495855E+02  0.69999903029E+02 0.  0.
         12    1    1    2    0    0  0.37700879160E+01 -0.16998363814E+02 -0.68937669137E+01  0.18726504145E+02  0.00000000000E+00 0. -1.
         11    1    3    3    0    0 -0.15835430486E+02 -0.18762284251E+02  0.92937474950E+01  0.26251817304E+02  0.51100000000E-03 0. -1.
        -11    1    3    3    0    0 -0.81400188510E+00  0.12695374920E+01 -0.87238250635E+01  0.88532168454E+01  0.51100000000E-03 0.  1.
        -12    1    3    3    0    0  0.12879344455E+02  0.34491110573E+02  0.63238444822E+01  0.37356461706E+02  0.00000000000E+00 0.  1.
</event>
<event>
 7    1  0.3597718E-013  0.7246155E+02  0.7816164E-02  0.1226708E+00
        -11   -1    0    0    0    0  0.00000000000E+00  0.00000000000E+00  0.45593999997E+02  0.45594000000E+02  0.51100000000E-03 0. -1.
         11   -1    0    0    0    0 -0.00000000000E+00 -0.00000000000E+00 -0.45593999997E+02  0.45594000000E+02  0.51100000000E-03 0.  1.
    9900012    2    1    2    0    0 -0.18681839274E+02 -0.11562759025E+01 -0.57591150623E+00  0.72461554350E+02  0.69999979230E+02 0.  0.
         12    1    1    2    0    0  0.18681839274E+02  0.11562759025E+01  0.57591150623E+00  0.18726445650E+02  0.00000000000E+00 0. -1.
         11    1    3    3    0    0 -0.53719559926E+01  0.75171939372E+00  0.17880173669E+01  0.57113920894E+01  0.51100000000E-03 0. -1.
        -11    1    3    3    0    0 -0.28382511112E+02  0.38702894257E+01 -0.25626712845E+02  0.38435328654E+02  0.51100000000E-03 0.  1.
         12    1    3    3    0    0  0.15072627831E+02 -0.57782847219E+01  0.23262783972E+02  0.28314833607E+02  0.00000000000E+00 0. -1.
</event>
<event>
 7    1  0.3597718E-013  0.7246154E+02  0.7816164E-02  0.1226708E+00
        -11   -1    0    0    0    0  0.00000000000E+00  0.00000000000E+00  0.45593999997E+02  0.45594000000E+02  0.51100000000E-03 0.  1.
         11   -1    0    0    0    0 -0.00000000000E+00 -0.00000000000E+00 -0.45593999997E+02  0.45594000000E+02  0.51100000000E-03 0. -1.
    9900012    2    1    2    0    0 -0.41207279931E+01  0.11406897397E+02  0.14268239715E+02  0.72461538188E+02  0.69999958176E+02 0.  0.
         12    1    1    2    0    0  0.41207279931E+01 -0.11406897397E+02 -0.14268239715E+02  0.18726461812E+02  0.00000000000E+00 0. -1.
         11    1    3    3    0    0 -0.11253051031E+02  0.99722007119E+01 -0.16735202449E+02  0.22497620892E+02  0.51100000000E-03 0. -1.
        -11    1    3    3    0    0 -0.15734145517E+02  0.16609562601E+01  0.88660319258E+01  0.18136389751E+02  0.51100000000E-03 0.  1.
        -12    1    3    3    0    0  0.22866468554E+02 -0.22625957529E+00  0.22137410238E+02  0.31827527545E+02  0.00000000000E+00 0.  1.
</event>
<event>
 7    1  0.3597718E-013  0.7246156E+02  0.7816164E-02  0.1226708E+00
        -11   -1    0    0    0    0  0.00000000000E+00  0.00000000000E+00  0.45593999997E+02  0.45594000000E+02  0.51100000000E-03 0. -1.
         11   -1    0    0    0    0 -0.00000000000E+00 -0.00000000000E+00 -0.45593999997E+02  0.45594000000E+02  0.51100000000E-03 0.  1.
    9900012    2    1    2    0    0 -0.11260575767E+02 -0.56834373846E+01 -0.13841147432E+02  0.72461564425E+02  0.69999992354E+02 0.  0.
         12    1    1    2    0    0  0.11260575767E+02  0.56834373846E+01  0.13841147432E+02  0.18726435575E+02  0.00000000000E+00 0. -1.
         11    1    3    3    0    0 -0.20921403235E+01  0.29493231316E+02 -0.40732597725E+01  0.29846594278E+02  0.51100000000E-03 0. -1.
        -11    1    3    3    0    0  0.74294464190E+00  0.23349593644E+01  0.45420468444E+00  0.24920481799E+01  0.51100000000E-03 0.  1.
        -12    1    3    3    0    0 -0.99113800855E+01 -0.37511628065E+02 -0.10222092344E+02  0.40122921967E+02  0.00000000000E+00 0.  1.
</event>
<event>
 7    1  0.3597718E-013  0.7246150E+02  0.7816164E-02  0.1226708E+00
        -11   -1    0    0    0    0  0.00000000000E+00  0.00000000000E+00  0.45593999997E+02  0.45594000000E+02  0.51100000000E-03 0. -1.
         11   -1    0    0    0    0 -0.00000000000E+00 -0.00000000000E+00 -0.45593999997E+02  0.45594000000E+02  0.51100000000E-03 0.  1.
    9900012    2    1    2    0    0 -0.76055673736E+01  0.95038912840E+00 -0.17086071656E+02  0.72461501684E+02  0.69999910622E+02 0.  0.
         12    1    1    2    0    0  0.76055673736E+01 -0.95038912840E+00  0.17086071656E+02  0.18726498316E+02  0.00000000000E+00 0. -1.
         11    1    3    3    0    0  0.11401856920E+02 -0.76349260795E+01  0.61710673497E+01  0.15045813702E+02  0.51100000000E-03 0. -1.
        -11    1    3    3    0    0  0.95308487941E+01  0.15870789898E+02  0.19938914651E+01  0.18619738295E+02  0.51100000000E-03 0.  1.
        -12    1    3    3    0    0 -0.28538273088E+02 -0.72854746903E+01 -0.25251030470E+02  0.38795949687E+02  0.00000000000E+00 0.  1.
</event>
<event>
 7    1  0.3597718E-013  0.7246156E+02  0.7816164E-02  0.1226708E+00
        -11   -1    0    0    0    0  0.00000000000E+00  0.00000000000E+00  0.45593999997E+02  0.45594000000E+02  0.51100000000E-03 0.  1.
         11   -1    0    0    0    0 -0.00000000000E+00 -0.00000000000E+00 -0.45593999997E+02  0.45594000000E+02  0.51100000000E-03 0. -1.
    9900012    2    1    2    0    0  0.76627472652E+01 -0.13548549047E+02 -0.10411460826E+02  0.72461564315E+02  0.69999992210E+02 0.  0.
         12    1    1    2    0    0 -0.76627472652E+01  0.13548549047E+02  0.10411460826E+02  0.18726435685E+02  0.00000000000E+00 0. -1.
         11    1    3    3    0    0  0.81735549743E+01  0.14731865629E+02 -0.86380718000E+01  0.18932806197E+02  0.51100000000E-03 0. -1.
        -11    1    3    3    0    0 -0.16548918876E+02  0.38337145043E+01 -0.43652737876E+01  0.17539090580E+02  0.51100000000E-03 0.  1.
         12    1    3    3    0    0  0.16038111167E+02 -0.32114129180E+02  0.25918847611E+01  0.35989667537E+02  0.00000000000E+00 0. -1.
</event>
<event>
 7    1  0.3597718E-013  0.7246156E+02  0.7816164E-02  0.1226708E+00
        -11   -1    0    0    0    0  0.00000000000E+00  0.00000000000E+00  0.45593999997E+02  0.45594000000E+02  0.51100000000E-03 0. -1.
         11   -1    0    0    0    0 -0.00000000000E+00 -0.00000000000E+00 -0.45593999997E+02  0.45594000000E+02  0.51100000000E-03 0.  1.
    9900012    2    1    2    0    0 -0.59551445916E+01  0.13121699873E+01 -0.17705758086E+02  0.72461563965E+02  0.69999991755E+02 0.  0.
         12    1    1    2    0    0  0.59551445916E+01 -0.13121699873E+01  0.17705758086E+02  0.18726436035E+02  0.00000000000E+00 0. -1.
         11    1    3    3    0    0 -0.63018919537E+01 -0.11885272539E+02 -0.21242435845E+02  0.25143878508E+02  0.51100000000E-03 0.  1.
        -11    1    3    3    0    0 -0.10923810062E+02 -0.77595472477E+01  0.15661539937E+02  0.20611259865E+02  0.51100000000E-03 0. -1.
        -12    1    3    3    0    0  0.11270557424E+02  0.20956989774E+02 -0.12124862177E+02  0.26706425592E+02  0.00000000000E+00 0.  1.
</event>
<event>
 7    1  0.3597718E-013  0.7246164E+02  0.7816164E-02  0.1226708E+00
        -11   -1    0    0    0    0  0.00000000000E+00  0.00000000000E+00  0.45593999997E+02  0.45594000000E+02  0.51100000000E-03 0.  1.
         11   -1    0    0    0    0 -0.00000000000E+00 -0.00000000000E+00 -0.45593999997E+02  0.45594000000E+02  0.51100000000E-03 0. -1.
    9900012    2    1    2    0    0 -0.92411354443E+01  0.13903338548E+02  0.84838205176E+01  0.72461638430E+02  0.70000088759E+02 0.  0.
         12    1    1    2    0    0  0.92411354443E+01 -0.13903338548E+02 -0.84838205176E+01  0.18726361570E+02  0.00000000000E+00 0. -1.
         11    1    3    3    0    0 -0.56318454987E+01 -0.65512611958E+01 -0.81923328778E+01  0.11905923955E+02  0.51100000000E-03 0. -1.
        -11    1    3    3    0    0  0.19554110768E+02 -0.73065210568E+01  0.33111422715E+00  0.20877215685E+02  0.51100000000E-03 0.  1.
        -12    1    3    3    0    0 -0.23163400714E+02  0.27761120801E+02  0.16345039168E+02  0.39678498789E+02  0.00000000000E+00 0.  1.
</event>
<event>
 7    1  0.3597718E-013  0.7246170E+02  0.7816164E-02  0.1226708E+00
        -11   -1    0    0    0    0  0.00000000000E+00  0.00000000000E+00  0.45593999997E+02  0.45594000000E+02  0.51100000000E-03 0.  1.
         11   -1    0    0    0    0 -0.00000000000E+00 -0.00000000000E+00 -0.45593999997E+02  0.45594000000E+02  0.51100000000E-03 0. -1.
    9900012    2    1    2    0    0 -0.41213618106E+01  0.13070977522E+02  0.12760801702E+02  0.72461704674E+02  0.70000175054E+02 0.  0.
         12    1    1    2    0    0  0.41213618106E+01 -0.13070977522E+02 -0.12760801702E+02  0.18726295326E+02  0.00000000000E+00 0. -1.
         11    1    3    3    0    0 -0.10597579567E+02 -0.11336488380E+02 -0.66266288832E+01  0.16874148040E+02  0.51100000000E-03 0. -1.
        -11    1    3    3    0    0 -0.66695207187E+01 -0.58078802006E+01  0.20804230493E+02  0.22605972346E+02  0.51100000000E-03 0.  1.
        -12    1    3    3    0    0  0.13145738475E+02  0.30215346103E+02 -0.14167999074E+01  0.32981584288E+02  0.00000000000E+00 0.  1.
</event>
<event>
 7    1  0.3597718E-013  0.7246144E+02  0.7816164E-02  0.1226708E+00
        -11   -1    0    0    0    0  0.00000000000E+00  0.00000000000E+00  0.45593999997E+02  0.45594000000E+02  0.51100000000E-03 0.  1.
         11   -1    0    0    0    0 -0.00000000000E+00 -0.00000000000E+00 -0.45593999997E+02  0.45594000000E+02  0.51100000000E-03 0. -1.
    9900012    2    1    2    0    0  0.93792915925E+01 -0.14581434108E+02  0.70777589938E+01  0.72461441218E+02  0.69999831854E+02 0.  0.
         12    1    1    2    0    0 -0.93792915925E+01  0.14581434108E+02 -0.70777589938E+01  0.18726558782E+02  0.00000000000E+00 0. -1.
         11    1    3    3    0    0 -0.15106095026E+02 -0.71570531903E+01  0.11211669602E+02  0.20127569471E+02  0.51100000000E-03 0. -1.
        -11    1    3    3    0    0  0.93771452236E+01 -0.23284787804E+02 -0.13510273439E+02  0.28506835747E+02  0.51100000000E-03 0.  1.
         12    1    3    3    0    0  0.15108241395E+02  0.15860406886E+02  0.93763628306E+01  0.23827036000E+02  0.00000000000E+00 0. -1.
</event>
<event>
 7    1  0.3597718E-013  0.7246168E+02  0.7816164E-02  0.1226708E+00
        -11   -1    0    0    0    0  0.00000000000E+00  0.00000000000E+00  0.45593999997E+02  0.45594000000E+02  0.51100000000E-03 0.  1.
         11   -1    0    0    0    0 -0.00000000000E+00 -0.00000000000E+00 -0.45593999997E+02  0.45594000000E+02  0.51100000000E-03 0. -1.
    9900012    2    1    2    0    0  0.11713900654E+02  0.10004307946E+01  0.14575970035E+02  0.72461675407E+02  0.70000136928E+02 0.  0.
         12    1    1    2    0    0 -0.11713900654E+02 -0.10004307946E+01 -0.14575970035E+02  0.18726324593E+02  0.00000000000E+00 0. -1.
         11    1    3    3    0    0  0.23055024787E+02  0.24087815106E+02  0.55543147343E+01  0.33802476491E+02  0.51100000000E-03 0. -1.
        -11    1    3    3    0    0  0.52087087730E+01  0.31344031667E+01 -0.80383709555E+00  0.61319886359E+01  0.51100000000E-03 0.  1.
        -12    1    3    3    0    0 -0.16549832906E+02 -0.26221787478E+02  0.98254923959E+01  0.32527210280E+02  0.00000000000E+00 0.  1.
</event>
<event>
 7    1  0.3597718E-013  0.7246157E+02  0.7816164E-02  0.1226708E+00
        -11   -1    0    0    0    0  0.00000000000E+00  0.00000000000E+00  0.45593999997E+02  0.45594000000E+02  0.51100000000E-03 0. -1.
         11   -1    0    0    0    0 -0.00000000000E+00 -0.00000000000E+00 -0.45593999997E+02  0.45594000000E+02  0.51100000000E-03 0.  1.
    9900012    2    1    2    0    0 -0.54104706942E+01 -0.26880200745E+01 -0.17725142884E+02  0.72461565868E+02  0.69999994234E+02 0.  0.
         12    1    1    2    0    0  0.54104706942E+01  0.26880200745E+01  0.17725142884E+02  0.18726434132E+02  0.00000000000E+00 0. -1.
         11    1    3    3    0    0 -0.21349951654E+02 -0.34174411217E+01  0.10153250358E+02  0.23886980399E+02  0.51100000000E-03 0.  1.
        -11    1    3    3    0    0  0.85844642784E+00  0.45058275745E+01  0.81404478709E+01  0.93437842548E+01  0.51100000000E-03 0. -1.
        -12    1    3    3    0    0  0.15081034532E+02 -0.37764065272E+01 -0.36018841113E+02  0.39230801215E+02  0.00000000000E+00 0.  1.
</event>
<event>
 7    1  0.3597718E-013  0.7246156E+02  0.7816164E-02  0.1226708E+00
        -11   -1    0    0    0    0  0.00000000000E+00  0.00000000000E+00  0.45593999997E+02  0.45594000000E+02  0.51100000000E-03 0. -1.
         11   -1    0    0    0    0 -0.00000000000E+00 -0.00000000000E+00 -0.45593999997E+02  0.45594000000E+02  0.51100000000E-03 0.  1.
    9900012    2    1    2    0    0  0.13710669304E+02 -0.51942486582E+01 -0.11649751781E+02  0.72461564449E+02  0.69999992385E+02 0.  0.
         12    1    1    2    0    0 -0.13710669304E+02  0.51942486582E+01  0.11649751781E+02  0.18726435551E+02  0.00000000000E+00 0. -1.
         11    1    3    3    0    0 -0.11907461478E+02 -0.59918193791E+01 -0.16756801110E+02  0.21412144265E+02  0.51100000000E-03 0. -1.
        -11    1    3    3    0    0  0.16675396681E+02  0.68786034203E+01 -0.18033435229E+02  0.25506642780E+02  0.51100000000E-03 0.  1.
         12    1    3    3    0    0  0.89427341013E+01 -0.60810326995E+01  0.23140484558E+02  0.25542777403E+02  0.00000000000E+00 0. -1.
</event>
<event>
 7    1  0.3597718E-013  0.7246162E+02  0.7816164E-02  0.1226708E+00
        -11   -1    0    0    0    0  0.00000000000E+00  0.00000000000E+00  0.45593999997E+02  0.45594000000E+02  0.51100000000E-03 0.  1.
         11   -1    0    0    0    0 -0.00000000000E+00 -0.00000000000E+00 -0.45593999997E+02  0.45594000000E+02  0.51100000000E-03 0. -1.
    9900012    2    1    2    0    0  0.52928045338E+01  0.16747805604E+02  0.64941899977E+01  0.72461620849E+02  0.70000065857E+02 0.  0.
         12    1    1    2    0    0 -0.52928045338E+01 -0.16747805604E+02 -0.64941899977E+01  0.18726379151E+02  0.00000000000E+00 0. -1.
         11    1    3    3    0    0 -0.22026603201E+01 -0.79060977660E+01  0.91886393749E+01  0.12320275492E+02  0.51100000000E-03 0. -1.
        -11    1    3    3    0    0  0.16236116733E+02  0.30505628354E+02  0.16468937962E+02  0.38280945204E+02  0.51100000000E-03 0.  1.
         12    1    3    3    0    0 -0.87406518794E+01 -0.58517249840E+01 -0.19163387339E+02  0.21860400153E+02  0.00000000000E+00 0. -1.
</event>
<event>
 7    1  0.3597718E-013  0.7246156E+02  0.7816164E-02  0.1226708E+00
        -11   -1    0    0    0    0  0.00000000000E+00  0.00000000000E+00  0.45593999997E+02  0.45594000000E+02  0.51100000000E-03 0.  1.
         11   -1    0    0    0    0 -0.00000000000E+00 -0.00000000000E+00 -0.45593999997E+02  0.45594000000E+02  0.51100000000E-03 0. -1.
    9900012    2    1    2    0    0 -0.51650353270E+01 -0.70385547897E+01  0.16566857214E+02  0.72461558763E+02  0.69999984978E+02 0.  0.
         12    1    1    2    0    0  0.51650353270E+01  0.70385547897E+01 -0.16566857214E+02  0.18726441237E+02  0.00000000000E+00 0. -1.
         11    1    3    3    0    0  0.11537671214E+02 -0.63824633403E+01 -0.12280142526E+00  0.13185930979E+02  0.51100000000E-03 0. -1.
        -11    1    3    3    0    0  0.14070095934E+02 -0.16903757817E+02  0.80518829143E+01  0.23420876300E+02  0.51100000000E-03 0.  1.
         12    1    3    3    0    0 -0.30772802475E+02  0.16247666367E+02  0.86377757247E+01  0.35854751484E+02  0.00000000000E+00 0. -1.
</event>
<event>
 7    1  0.3597718E-013  0.7246155E+02  0.7816164E-02  0.1226708E+00
        -11   -1    0    0    0    0  0.00000000000E+00  0.00000000000E+00  0.45593999997E+02  0.45594000000E+02  0.51100000000E-03 0.  1.
         11   -1    0    0    0    0 -0.00000000000E+00 -0.00000000000E+00 -0.45593999997E+02  0.45594000000E+02  0.51100000000E-03 0. -1.
    9900012    2    1    2    0    0  0.13654504393E+02 -0.92895319443E+01  0.88283008440E+01  0.72461553734E+02  0.69999978427E+02 0.  0.
         12    1    1    2    0    0 -0.13654504393E+02  0.92895319443E+01 -0.88283008440E+01  0.18726446266E+02  0.00000000000E+00 0. -1.
         11    1    3    3    0    0 -0.57324615212E+01 -0.30966383790E+02  0.10883755127E+02  0.33320176561E+02  0.51100000000E-03 0. -1.
        -11    1    3    3    0    0 -0.52986074381E+01  0.12556482679E+00  0.28323495343E+01  0.60094268824E+01  0.51100000000E-03 0.  1.
        -12    1    3    3    0    0  0.24685573352E+02  0.21551287019E+02 -0.48878038173E+01  0.33131950291E+02  0.00000000000E+00 0.  1.
</event>
<event>
 7    1  0.3597718E-013  0.7246155E+02  0.7816164E-02  0.1226708E+00
        -11   -1    0    0    0    0  0.00000000000E+00  0.00000000000E+00  0.45593999997E+02  0.45594000000E+02  0.51100000000E-03 0.  1.
         11   -1    0    0    0    0 -0.00000000000E+00 -0.00000000000E+00 -0.45593999997E+02  0.45594000000E+02  0.51100000000E-03 0. -1.
    9900012    2    1    2    0    0  0.66683715973E+01 -0.11835990033E+02  0.12888829717E+02  0.72461554227E+02  0.69999979069E+02 0.  0.
         12    1    1    2    0    0 -0.66683715973E+01  0.11835990033E+02 -0.12888829717E+02  0.18726445773E+02  0.00000000000E+00 0. -1.
         11    1    3    3    0    0  0.13931406304E+01 -0.16961438623E+02  0.84729588507E+01  0.19011109198E+02  0.51100000000E-03 0. -1.
        -11    1    3    3    0    0 -0.17875485606E+02  0.14081182876E+01  0.18770112809E+02  0.25958291891E+02  0.51100000000E-03 0.  1.
         12    1    3    3    0    0  0.23150716573E+02  0.37173303025E+01 -0.14354241943E+02  0.27492153138E+02  0.00000000000E+00 0. -1.
</event>
<event>
 7    1  0.3597718E-013  0.7246170E+02  0.7816164E-02  0.1226708E+00
        -11   -1    0    0    0    0  0.00000000000E+00  0.00000000000E+00  0.45593999997E+02  0.45594000000E+02  0.51100000000E-03 0. -1.
         11   -1    0    0    0    0 -0.00000000000E+00 -0.00000000000E+00 -0.45593999997E+02  0.45594000000E+02  0.51100000000E-03 0.  1.
    9900012    2    1    2    0    0  0.58230675151E+01 -0.16149887418E+02 -0.74797887009E+01  0.72461702504E+02  0.70000172228E+02 0.  0.
         12    1    1    2    0    0 -0.58230675151E+01  0.16149887418E+02  0.74797887009E+01  0.18726297496E+02  0.00000000000E+00 0. -1.
         11    1    3    3    0    0  0.10048290599E+02  0.13107995185E+02 -0.54282800254E+01  0.17385450987E+02  0.51100000000E-03 0. -1.
        -11    1    3    3    0    0  0.11390561984E+02  0.56108120542E+01 -0.98655021639E+01  0.16079622117E+02  0.51100000000E-03 0.  1.
         12    1    3    3    0    0 -0.15615785068E+02 -0.34868694657E+02  0.78139934884E+01  0.38996629400E+02  0.00000000000E+00 0. -1.
</event>
<event>
 7    1  0.3597718E-013  0.7246106E+02  0.7816164E-02  0.1226709E+00
        -11   -1    0    0    0    0  0.00000000000E+00  0.00000000000E+00  0.45593999997E+02  0.45594000000E+02  0.51100000000E-03 0. -1.
         11   -1    0    0    0    0 -0.00000000000E+00 -0.00000000000E+00 -0.45593999997E+02  0.45594000000E+02  0.51100000000E-03 0.  1.
    9900012    2    1    2    0    0  0.35374532682E+01 -0.17028007384E+02 -0.69448908463E+01  0.72461064320E+02  0.69999340871E+02 0.  0.
         12    1    1    2    0    0 -0.35374532682E+01  0.17028007384E+02  0.69448908463E+01  0.18726935680E+02  0.00000000000E+00 0. -1.
         11    1    3    3    0    0 -0.14735426368E+01 -0.25401858989E+02 -0.23738871981E+02  0.34798847843E+02  0.51100000000E-03 0. -1.
        -11    1    3    3    0    0  0.20608536598E+01  0.10696468343E+01 -0.97248008525E+01  0.99981505309E+01  0.51100000000E-03 0.  1.
         12    1    3    3    0    0  0.29501422452E+01  0.73042047708E+01  0.26518781987E+02  0.27664065946E+02  0.00000000000E+00 0. -1.
</event>
<event>
 7    1  0.3597718E-013  0.7246149E+02  0.7816164E-02  0.1226708E+00
        -11   -1    0    0    0    0  0.00000000000E+00  0.00000000000E+00  0.45593999997E+02  0.45594000000E+02  0.51100000000E-03 0.  1.
         11   -1    0    0    0    0 -0.00000000000E+00 -0.00000000000E+00 -0.45593999997E+02  0.45594000000E+02  0.51100000000E-03 0. -1.
    9900012    2    1    2    0    0  0.61936284362E+01 -0.17312783944E+02 -0.35480590740E+01  0.72461488197E+02  0.69999893053E+02 0.  0.
         12    1    1    2    0    0 -0.61936284362E+01  0.17312783944E+02  0.35480590740E+01  0.18726511803E+02  0.00000000000E+00 0. -1.
         11    1    3    3    0    0 -0.58581130696E+01 -0.21231133804E+01  0.26415076666E+02  0.27140032695E+02  0.51100000000E-03 0. -1.
        -11    1    3    3    0    0  0.26205945201E+01 -0.16257701641E+01  0.54400706512E+01  0.62534001325E+01  0.51100000000E-03 0.  1.
        -12    1    3    3    0    0  0.94311469857E+01 -0.13563900400E+02 -0.35403206392E+02  0.39068055369E+02  0.00000000000E+00 0.  1.
</event>
<event>
 7    1  0.3597718E-013  0.7246163E+02  0.7816164E-02  0.1226708E+00
        -11   -1    0    0    0    0  0.00000000000E+00  0.00000000000E+00  0.45593999997E+02  0.45594000000E+02  0.51100000000E-03 0.  1.
         11   -1    0    0    0    0 -0.00000000000E+00 -0.00000000000E+00 -0.45593999997E+02  0.45594000000E+02  0.51100000000E-03 0. -1.
    9900012    2    1    2    0    0  0.15059665111E+02  0.10951815291E+02 -0.19851971733E+01  0.72461634115E+02  0.70000083139E+02 0.  0.
         12    1    1    2    0    0 -0.15059665111E+02 -0.10951815291E+02  0.19851971733E+01  0.18726365885E+02  0.00000000000E+00 0. -1.
         11    1    3    3    0    0  0.79765512816E+01 -0.87902876706E+01 -0.20951103470E+02  0.24079934895E+02  0.51100000000E-03 0. -1.
        -11    1    3    3    0    0 -0.62674000396E+01 -0.83994937830E+01 -0.22188153334E+01  0.10712373258E+02  0.51100000000E-03 0.  1.
        -12    1    3    3    0    0  0.13350513869E+02  0.28141596744E+02  0.21184721630E+02  0.37669325962E+02  0.00000000000E+00 0.  1.
</event>
<event>
 7    1  0.3597718E-013  0.7246158E+02  0.7816164E-02  0.1226708E+00
        -11   -1    0    0    0    0  0.00000000000E+00  0.00000000000E+00  0.45593999997E+02  0.45594000000E+02  0.51100000000E-03 0. -1.
         11   -1    0    0    0    0 -0.00000000000E+00 -0.00000000000E+00 -0.45593999997E+02  0.45594000000E+02  0.51100000000E-03 0.  1.
    9900012    2    1    2    0    0  0.67402624566E+01 -0.21996559081E+01 -0.17332315293E+02  0.72461580761E+02  0.70000013635E+02 0.  0.
         12    1    1    2    0    0 -0.67402624566E+01  0.21996559081E+01  0.17332315293E+02  0.18726419239E+02  0.00000000000E+00 0. -1.
         11    1    3    3    0    0  0.76377024784E+01  0.79472081883E+01  0.21087157612E+01  0.11222268022E+02  0.51100000000E-03 0. -1.
        -11    1    3    3    0    0  0.18950373194E+02  0.82661173539E+01 -0.26160989668E+02  0.33344305675E+02  0.51100000000E-03 0.  1.
         12    1    3    3    0    0 -0.19847813216E+02 -0.18412981450E+02  0.67199586136E+01  0.27895007064E+02  0.00000000000E+00 0. -1.
</event>
<event>
 7    1  0.3597718E-013  0.7246156E+02  0.7816164E-02  0.1226708E+00
        -11   -1    0    0    0    0  0.00000000000E+00  0.00000000000E+00  0.45593999997E+02  0.45594000000E+02  0.51100000000E-03 0.  1.
         11   -1    0    0    0    0 -0.00000000000E+00 -0.00000000000E+00 -0.45593999997E+02  0.45594000000E+02  0.51100000000E-03 0. -1.
    9900012    2    1    2    0    0 -0.17747163013E+02 -0.55604648832E+01 -0.21906502155E+01  0.72461561121E+02  0.69999988050E+02 0.  0.
         12    1    1    2    0    0  0.17747163013E+02  0.55604648832E+01  0.21906502155E+01  0.18726438879E+02  0.00000000000E+00 0. -1.
         11    1    3    3    0    0 -0.18307262966E+02 -0.31780373679E+01 -0.25727017508E+02  0.31735393946E+02  0.51100000000E-03 0. -1.
        -11    1    3    3    0    0 -0.76557273374E+01 -0.15249380415E+01 -0.61337182979E+01  0.99276430997E+01  0.51100000000E-03 0.  1.
        -12    1    3    3    0    0  0.82158272908E+01 -0.85748947382E+00  0.29670085590E+02  0.30798524075E+02  0.00000000000E+00 0.  1.
</event>
<event>
 7    1  0.3597718E-013  0.7246160E+02  0.7816164E-02  0.1226708E+00
        -11   -1    0    0    0    0  0.00000000000E+00  0.00000000000E+00  0.45593999997E+02  0.45594000000E+02  0.51100000000E-03 0. -1.
         11   -1    0    0    0    0 -0.00000000000E+00 -0.00000000000E+00 -0.45593999997E+02  0.45594000000E+02  0.51100000000E-03 0.  1.
    9900012    2    1    2    0    0 -0.48666840838E+01 -0.18082684469E+02  0.99919666916E-01  0.72461599505E+02  0.70000038052E+02 0.  0.
         12    1    1    2    0    0  0.48666840838E+01  0.18082684469E+02 -0.99919666916E-01  0.18726400495E+02  0.00000000000E+00 0. -1.
         11    1    3    3    0    0  0.59291102714E+01 -0.25439096669E+00 -0.75709057105E+01  0.96196505608E+01  0.51100000000E-03 0. -1.
        -11    1    3    3    0    0  0.82290486151E+00 -0.40353393287E+01 -0.25100474622E+02  0.25436095660E+02  0.51100000000E-03 0.  1.
         12    1    3    3    0    0 -0.11618699217E+02 -0.13792954173E+02  0.32771299999E+02  0.37405853285E+02  0.00000000000E+00 0. -1.
</event>
<event>
 7    1  0.3597718E-013  0.7246154E+02  0.7816164E-02  0.1226708E+00
        -11   -1    0    0    0    0  0.00000000000E+00  0.00000000000E+00  0.45593999997E+02  0.45594000000E+02  0.51100000000E-03 0.  1.
         11   -1    0    0    0    0 -0.00000000000E+00 -0.00000000000E+00 -0.45593999997E+02  0.45594000000E+02  0.51100000000E-03 0. -1.
    9900012    2    1    2    0    0 -0.12313218552E+02  0.11717555019E+02  0.78589993416E+01  0.72461539646E+02  0.69999960075E+02 0.  0.
         12    1    1    2    0    0  0.12313218552E+02 -0.11717555019E+02 -0.78589993416E+01  0.18726460354E+02  0.00000000000E+00 0. -1.
         11    1    3    3    0    0  0.40873545891E+01  0.23163178512E+02  0.16376717674E+02  0.28660708092E+02  0.51100000000E-03 0. -1.
        -11    1    3    3    0    0  0.45903068573E+01  0.95130170568E+01  0.44062924645E+01  0.11444816473E+02  0.51100000000E-03 0.  1.
         12    1    3    3    0    0 -0.20990879998E+02 -0.20958640550E+02 -0.12924010797E+02  0.32356015081E+02  0.00000000000E+00 0. -1.
</event>
<event>
 7    1  0.3597718E-013  0.7246151E+02  0.7816164E-02  0.1226708E+00
        -11   -1    0    0    0    0  0.00000000000E+00  0.00000000000E+00  0.45593999997E+02  0.45594000000E+02  0.51100000000E-03 0. -1.
         11   -1    0    0    0    0 -0.00000000000E+00 -0.00000000000E+00 -0.45593999997E+02  0.45594000000E+02  0.51100000000E-03 0.  1.
    9900012    2    1    2    0    0  0.55650635772E+01  0.15462900703E+02 -0.89783267580E+01  0.72461505877E+02  0.69999916085E+02 0.  0.
         12    1    1    2    0    0 -0.55650635772E+01 -0.15462900703E+02  0.89783267580E+01  0.18726494123E+02  0.00000000000E+00 0. -1.
         11    1    3    3    0    0 -0.10231123227E+02 -0.66130034845E+01 -0.17648944300E+02  0.21445114426E+02  0.51100000000E-03 0. -1.
        -11    1    3    3    0    0 -0.11287963854E+02  0.57094502160E+00 -0.67348943875E+01  0.13156857864E+02  0.51100000000E-03 0.  1.
         12    1    3    3    0    0  0.27084150659E+02  0.21504959166E+02  0.15405511929E+02  0.37859533587E+02  0.00000000000E+00 0. -1.
</event>
<event>
 7    1  0.3597718E-013  0.7246158E+02  0.7816164E-02  0.1226708E+00
        -11   -1    0    0    0    0  0.00000000000E+00  0.00000000000E+00  0.45593999997E+02  0.45594000000E+02  0.51100000000E-03 0.  1.
         11   -1    0    0    0    0 -0.00000000000E+00 -0.00000000000E+00 -0.45593999997E+02  0.45594000000E+02  0.51100000000E-03 0. -1.
    9900012    2    1    2    0    0 -0.12043686992E+02  0.12250648302E+02  0.74531960638E+01  0.72461577177E+02  0.70000008965E+02 0.  0.
         12    1    1    2    0    0  0.12043686992E+02 -0.12250648302E+02 -0.74531960638E+01  0.18726422823E+02  0.00000000000E+00 0. -1.
         11    1    3    3    0    0 -0.17109506130E+02 -0.97743816710E+00 -0.24859588919E+02  0.30194200551E+02  0.51100000000E-03 0. -1.
        -11    1    3    3    0    0 -0.62680258656E+01  0.21623304485E+01  0.22902345546E+02  0.23842844901E+02  0.51100000000E-03 0.  1.
        -12    1    3    3    0    0  0.11333845004E+02  0.11065756021E+02  0.94104394374E+01  0.18424531725E+02  0.00000000000E+00 0.  1.
</event>
<event>
 7    1  0.3597718E-013  0.7246173E+02  0.7816164E-02  0.1226708E+00
        -11   -1    0    0    0    0  0.00000000000E+00  0.00000000000E+00  0.45593999997E+02  0.45594000000E+02  0.51100000000E-03 0. -1.
         11   -1    0    0    0    0 -0.00000000000E+00 -0.00000000000E+00 -0.45593999997E+02  0.45594000000E+02  0.51100000000E-03 0.  1.
    9900012    2    1    2    0    0  0.81176511841E+01 -0.15456198017E+02 -0.67736821548E+01  0.72461732678E+02  0.70000211534E+02 0.  0.
         12    1    1    2    0    0 -0.81176511841E+01  0.15456198017E+02  0.67736821548E+01  0.18726267322E+02  0.00000000000E+00 0. -1.
         11    1    3    3    0    0  0.11543875837E+02 -0.11699737889E+02  0.10896442926E+02  0.19719974764E+02  0.51100000000E-03 0. -1.
        -11    1    3    3    0    0  0.15330017669E+01  0.16088226291E+02  0.94893730757E+01  0.18741113127E+02  0.51100000000E-03 0.  1.
         12    1    3    3    0    0 -0.49592264196E+01 -0.19844686419E+02 -0.27159498157E+02  0.34000644786E+02  0.00000000000E+00 0. -1.
</event>
<event>
 7    1  0.3597718E-013  0.7246164E+02  0.7816164E-02  0.1226708E+00
        -11   -1    0    0    0    0  0.00000000000E+00  0.00000000000E+00  0.45593999997E+02  0.45594000000E+02  0.51100000000E-03 0.  1.
         11   -1    0    0    0    0 -0.00000000000E+00 -0.00000000000E+00 -0.45593999997E+02  0.45594000000E+02  0.51100000000E-03 0. -1.
    9900012    2    1    2    0    0  0.55033912227E+01 -0.14317874389E+02 -0.10741870986E+02  0.72461637987E+02  0.70000088182E+02 0.  0.
         12    1    1    2    0    0 -0.55033912227E+01  0.14317874389E+02  0.10741870986E+02  0.18726362013E+02  0.00000000000E+00 0. -1.
         11    1    3    3    0    0  0.27324693036E+01 -0.95414919649E+01 -0.10771801484E+02  0.14647121385E+02  0.51100000000E-03 0. -1.
        -11    1    3    3    0    0 -0.23669846094E+02 -0.69776083144E+01 -0.13396293726E+02  0.28078627419E+02  0.51100000000E-03 0.  1.
         12    1    3    3    0    0  0.26440768013E+02  0.22012258902E+01  0.13426224223E+02  0.29735889182E+02  0.00000000000E+00 0. -1.
</event>
<event>
 7    1  0.3597718E-013  0.7246156E+02  0.7816164E-02  0.1226708E+00
        -11   -1    0    0    0    0  0.00000000000E+00  0.00000000000E+00  0.45593999997E+02  0.45594000000E+02  0.51100000000E-03 0.  1.
         11   -1    0    0    0    0 -0.00000000000E+00 -0.00000000000E+00 -0.45593999997E+02  0.45594000000E+02  0.51100000000E-03 0. -1.
    9900012    2    1    2    0    0  0.11626300306E+02  0.13276038961E+02  0.62654274932E+01  0.72461557439E+02  0.69999983254E+02 0.  0.
         12    1    1    2    0    0 -0.11626300306E+02 -0.13276038961E+02 -0.62654274932E+01  0.18726442561E+02  0.00000000000E+00 0. -1.
         11    1    3    3    0    0 -0.12814437361E+02  0.97723701690E+01 -0.18948231132E+02  0.24874575110E+02  0.51100000000E-03 0. -1.
        -11    1    3    3    0    0 -0.41832000771E+00  0.13437954088E+02  0.65681160362E+01  0.14963079570E+02  0.51100000000E-03 0.  1.
        -12    1    3    3    0    0  0.24859057675E+02 -0.99342852958E+01  0.18645542589E+02  0.32623902759E+02  0.00000000000E+00 0.  1.
</event>
<event>
 7    1  0.3597718E-013  0.7246146E+02  0.7816164E-02  0.1226708E+00
        -11   -1    0    0    0    0  0.00000000000E+00  0.00000000000E+00  0.45593999997E+02  0.45594000000E+02  0.51100000000E-03 0.  1.
         11   -1    0    0    0    0 -0.00000000000E+00 -0.00000000000E+00 -0.45593999997E+02  0.45594000000E+02  0.51100000000E-03 0. -1.
    9900012    2    1    2    0    0  0.85487518825E+01 -0.15652341673E+02 -0.57101914004E+01  0.72461461494E+02  0.69999858267E+02 0.  0.
         12    1    1    2    0    0 -0.85487518825E+01  0.15652341673E+02  0.57101914004E+01  0.18726538506E+02  0.00000000000E+00 0. -1.
         11    1    3    3    0    0  0.24312611791E+02 -0.23597118027E+02 -0.16507181124E+02  0.37688381502E+02  0.51100000000E-03 0.  1.
        -11    1    3    3    0    0 -0.36547071296E+01  0.10914760442E+02 -0.66771419215E+01  0.13306881837E+02  0.51100000000E-03 0. -1.
        -12    1    3    3    0    0 -0.12109152779E+02 -0.29699840881E+01  0.17474131645E+02  0.21466198155E+02  0.00000000000E+00 0.  1.
</event>
<event>
 7    1  0.3597718E-013  0.7246168E+02  0.7816164E-02  0.1226708E+00
        -11   -1    0    0    0    0  0.00000000000E+00  0.00000000000E+00  0.45593999997E+02  0.45594000000E+02  0.51100000000E-03 0.  1.
         11   -1    0    0    0    0 -0.00000000000E+00 -0.00000000000E+00 -0.45593999997E+02  0.45594000000E+02  0.51100000000E-03 0. -1.
    9900012    2    1    2    0    0  0.13475111758E+02  0.12043590805E+02  0.49039129371E+01  0.72461679527E+02  0.70000142296E+02 0.  0.
         12    1    1    2    0    0 -0.13475111758E+02 -0.12043590805E+02 -0.49039129371E+01  0.18726320473E+02  0.00000000000E+00 0. -1.
         11    1    3    3    0    0 -0.67730631891E+01 -0.54118731686E+01 -0.18698514284E+02  0.20610608745E+02  0.51100000000E-03 0. -1.
        -11    1    3    3    0    0  0.80835375325E+01 -0.11655730996E+02  0.10684647863E+02  0.17758416155E+02  0.51100000000E-03 0.  1.
         12    1    3    3    0    0  0.12164637414E+02  0.29111194970E+02  0.12917779359E+02  0.34092654627E+02  0.00000000000E+00 0. -1.
</event>
<event>
 7    1  0.3597718E-013  0.7246158E+02  0.7816164E-02  0.1226708E+00
        -11   -1    0    0    0    0  0.00000000000E+00  0.00000000000E+00  0.45593999997E+02  0.45594000000E+02  0.51100000000E-03 0. -1.
         11   -1    0    0    0    0 -0.00000000000E+00 -0.00000000000E+00 -0.45593999997E+02  0.45594000000E+02  0.51100000000E-03 0.  1.
    9900012    2    1    2    0    0 -0.50283696711E+01 -0.10909619913E+02 -0.14365743639E+02  0.72461577531E+02  0.70000009427E+02 0.  0.
         12    1    1    2    0    0  0.50283696711E+01  0.10909619913E+02  0.14365743639E+02  0.18726422469E+02  0.00000000000E+00 0. -1.
         11    1    3    3    0    0  0.18433485743E+02 -0.13920090073E+02 -0.25888848545E+02  0.34695745900E+02  0.51100000000E-03 0. -1.
        -11    1    3    3    0    0 -0.17400998049E+01  0.59873194763E+01 -0.67758392010E+01  0.92080366519E+01  0.51100000000E-03 0.  1.
        -12    1    3    3    0    0 -0.21721755610E+02 -0.29768493161E+01  0.18298944108E+02  0.28557794979E+02  0.00000000000E+00 0.  1.
</event>
<event>
 7    1  0.3597718E-013  0.7246159E+02  0.7816164E-02  0.1226708E+00
        -11   -1    0    0    0    0  0.00000000000E+00  0.00000000000E+00  0.45593999997E+02  0.45594000000E+02  0.51100000000E-03 0.  1.
         11   -1    0    0    0    0 -0.00000000000E+00 -0.00000000000E+00 -0.45593999997E+02  0.45594000000E+02  0.51100000000E-03 0. -1.
    9900012    2    1    2    0    0 -0.13039765708E+02  0.31468010079E+01  0.13066772184E+02  0.72461591332E+02  0.70000027406E+02 0.  0.
         12    1    1    2    0    0  0.13039765708E+02 -0.31468010079E+01 -0.13066772184E+02  0.18726408668E+02  0.00000000000E+00 0. -1.
         11    1    3    3    0    0  0.31163974734E+01  0.30583666177E+02  0.13856873708E+02  0.33720698677E+02  0.51100000000E-03 0. -1.
        -11    1    3    3    0    0  0.46947794241E+01 -0.10055175679E+02  0.25619801567E+01  0.11389084878E+02  0.51100000000E-03 0.  1.
        -12    1    3    3    0    0 -0.20850942605E+02 -0.17381689490E+02 -0.33520816808E+01  0.27351807777E+02  0.00000000000E+00 0.  1.
</event>
<event>
 7    1  0.3597718E-013  0.7246159E+02  0.7816164E-02  0.1226708E+00
        -11   -1    0    0    0    0  0.00000000000E+00  0.00000000000E+00  0.45593999997E+02  0.45594000000E+02  0.51100000000E-03 0.  1.
         11   -1    0    0    0    0 -0.00000000000E+00 -0.00000000000E+00 -0.45593999997E+02  0.45594000000E+02  0.51100000000E-03 0. -1.
    9900012    2    1    2    0    0  0.16669485650E+02  0.73793652120E+01 -0.42838971268E+01  0.72461586640E+02  0.70000021293E+02 0.  0.
         12    1    1    2    0    0 -0.16669485650E+02 -0.73793652120E+01  0.42838971268E+01  0.18726413360E+02  0.00000000000E+00 0. -1.
         11    1    3    3    0    0 -0.16158229191E+02  0.17319646343E+02 -0.11053127693E+02  0.26138671583E+02  0.51100000000E-03 0. -1.
        -11    1    3    3    0    0 -0.44937665387E+01  0.28631906195E+01  0.41965687446E+01  0.67825502369E+01  0.51100000000E-03 0.  1.
        -12    1    3    3    0    0  0.37321481380E+02 -0.12803471750E+02  0.25726618219E+01  0.39540364820E+02  0.00000000000E+00 0.  1.
</event>
<event>
 7    1  0.3597718E-013  0.7246155E+02  0.7816164E-02  0.1226708E+00
        -11   -1    0    0    0    0  0.00000000000E+00  0.00000000000E+00  0.45593999997E+02  0.45594000000E+02  0.51100000000E-03 0. -1.
         11   -1    0    0    0    0 -0.00000000000E+00 -0.00000000000E+00 -0.45593999997E+02  0.45594000000E+02  0.51100000000E-03 0.  1.
    9900012    2    1    2    0    0  0.16373540000E+02 -0.37984701136E+01 -0.82558203979E+01  0.72461554588E+02  0.69999979539E+02 0.  0.
         12    1    1    2    0    0 -0.16373540000E+02  0.37984701136E+01  0.82558203979E+01  0.18726445412E+02  0.00000000000E+00 0. -1.
         11    1    3    3    0    0 -0.53774848234E+01 -0.90283686580E+01  0.17343978788E+01  0.10650676970E+02  0.51100000000E-03 0. -1.
        -11    1    3    3    0    0 -0.20693473884E+01 -0.23217850382E+02 -0.80343621471E+01  0.24655663657E+02  0.51100000000E-03 0.  1.
         12    1    3    3    0    0  0.23820372212E+02  0.28447748927E+02 -0.19558561296E+01  0.37155213961E+02  0.00000000000E+00 0. -1.
</event>
<event>
 7    1  0.3597718E-013  0.7246145E+02  0.7816164E-02  0.1226708E+00
        -11   -1    0    0    0    0  0.00000000000E+00  0.00000000000E+00  0.45593999997E+02  0.45594000000E+02  0.51100000000E-03 0. -1.
         11   -1    0    0    0    0 -0.00000000000E+00 -0.00000000000E+00 -0.45593999997E+02  0.45594000000E+02  0.51100000000E-03 0.  1.
    9900012    2    1    2    0    0  0.38271630270E+01 -0.24838759370E+01 -0.18162237369E+02  0.72461449790E+02  0.69999843021E+02 0.  0.
         12    1    1    2    0    0 -0.38271630270E+01  0.24838759370E+01  0.18162237369E+02  0.18726550210E+02  0.00000000000E+00 0. -1.
         11    1    3    3    0    0  0.13658616204E+02 -0.20708790765E+01 -0.42276764867E+01  0.14447130701E+02  0.51100000000E-03 0. -1.
        -11    1    3    3    0    0  0.16109777902E+02 -0.18214812655E+02 -0.21266243325E+01  0.24409565244E+02  0.51100000000E-03 0.  1.
         12    1    3    3    0    0 -0.25941231078E+02  0.17801815794E+02 -0.11807936550E+02  0.33604753845E+02  0.00000000000E+00 0. -1.
</event>
<event>
 7    1  0.3597718E-013  0.7246154E+02  0.7816164E-02  0.1226708E+00
        -11   -1    0    0    0    0  0.00000000000E+00  0.00000000000E+00  0.45593999997E+02  0.45594000000E+02  0.51100000000E-03 0. -1.
         11   -1    0    0    0    0 -0.00000000000E+00 -0.00000000000E+00 -0.45593999997E+02  0.45594000000E+02  0.51100000000E-03 0.  1.
    9900012    2    1    2    0    0  0.74104866486E+00 -0.13524414083E+02 -0.12931409030E+02  0.72461540940E+02  0.69999961761E+02 0.  0.
         12    1    1    2    0    0 -0.74104866486E+00  0.13524414083E+02  0.12931409030E+02  0.18726459060E+02  0.00000000000E+00 0. -1.
         11    1    3    3    0    0  0.19902497338E+02  0.94805447320E+01 -0.84925435959E+01  0.23624424346E+02  0.51100000000E-03 0. -1.
        -11    1    3    3    0    0 -0.23444131115E+01  0.88846262755E+01 -0.85500014635E+01  0.12551309979E+02  0.51100000000E-03 0.  1.
         12    1    3    3    0    0 -0.16817035561E+02 -0.31889585090E+02  0.41111360289E+01  0.36285806616E+02  0.00000000000E+00 0. -1.
</event>
<event>
 7    1  0.3597718E-013  0.7246154E+02  0.7816164E-02  0.1226708E+00
        -11   -1    0    0    0    0  0.00000000000E+00  0.00000000000E+00  0.45593999997E+02  0.45594000000E+02  0.51100000000E-03 0. -1.
         11   -1    0    0    0    0 -0.00000000000E+00 -0.00000000000E+00 -0.45593999997E+02  0.45594000000E+02  0.51100000000E-03 0.  1.
    9900012    2    1    2    0    0 -0.57673117223E+01  0.54950472989E+01 -0.16947653193E+02  0.72461538026E+02  0.69999957964E+02 0.  0.
         12    1    1    2    0    0  0.57673117223E+01 -0.54950472989E+01  0.16947653193E+02  0.18726461974E+02  0.00000000000E+00 0. -1.
         11    1    3    3    0    0 -0.21498970767E+02  0.77161953518E+01 -0.17402851765E+02  0.28715930501E+02  0.51100000000E-03 0. -1.
        -11    1    3    3    0    0  0.40432848344E+00 -0.12764679302E+02 -0.14899487282E+02  0.19623843679E+02  0.51100000000E-03 0.  1.
         12    1    3    3    0    0  0.15327330561E+02  0.10543531249E+02  0.15354685854E+02  0.24121763845E+02  0.00000000000E+00 0. -1.
</event>
<event>
 7    1  0.3597718E-013  0.7246160E+02  0.7816164E-02  0.1226708E+00
        -11   -1    0    0    0    0  0.00000000000E+00  0.00000000000E+00  0.45593999997E+02  0.45594000000E+02  0.51100000000E-03 0.  1.
         11   -1    0    0    0    0 -0.00000000000E+00 -0.00000000000E+00 -0.45593999997E+02  0.45594000000E+02  0.51100000000E-03 0. -1.
    9900012    2    1    2    0    0 -0.12368872501E+02  0.11761958458E+02 -0.77036037089E+01  0.72461596613E+02  0.70000034284E+02 0.  0.
         12    1    1    2    0    0  0.12368872501E+02 -0.11761958458E+02  0.77036037089E+01  0.18726403387E+02  0.00000000000E+00 0. -1.
         11    1    3    3    0    0  0.38182853086E+00 -0.14277874911E+02 -0.16543983041E+02  0.21856506585E+02  0.51100000000E-03 0. -1.
        -11    1    3    3    0    0 -0.70275226676E+01  0.49609081328E+01  0.23012770485E+02  0.24567952499E+02  0.51100000000E-03 0.  1.
         12    1    3    3    0    0 -0.57231783646E+01  0.21078925236E+02 -0.14172391153E+02  0.26037137529E+02  0.00000000000E+00 0. -1.
</event>
<event>
 7    1  0.3597718E-013  0.7246148E+02  0.7816164E-02  0.1226708E+00
        -11   -1    0    0    0    0  0.00000000000E+00  0.00000000000E+00  0.45593999997E+02  0.45594000000E+02  0.51100000000E-03 0.  1.
         11   -1    0    0    0    0 -0.00000000000E+00 -0.00000000000E+00 -0.45593999997E+02  0.45594000000E+02  0.51100000000E-03 0. -1.
    9900012    2    1    2    0    0 -0.16987996476E+01  0.16252832975E+01  0.18578351313E+02  0.72461478605E+02  0.69999880558E+02 0.  0.
         12    1    1    2    0    0  0.16987996476E+01 -0.16252832975E+01 -0.18578351313E+02  0.18726521395E+02  0.00000000000E+00 0. -1.
         11    1    3    3    0    0  0.15637687059E+01  0.16127250031E+02 -0.57125439368E+01  0.17180416893E+02  0.51100000000E-03 0. -1.
        -11    1    3    3    0    0 -0.24164792999E+02 -0.13022393237E+02  0.19812190104E+02  0.33853254249E+02  0.51100000000E-03 0.  1.
         12    1    3    3    0    0  0.20902224646E+02 -0.14795734965E+01  0.44787051463E+01  0.21427807463E+02  0.00000000000E+00 0. -1.
</event>
<event>
 7    1  0.3597718E-013  0.7246157E+02  0.7816164E-02  0.1226708E+00
        -11   -1    0    0    0    0  0.00000000000E+00  0.00000000000E+00  0.45593999997E+02  0.45594000000E+02  0.51100000000E-03 0.  1.
         11   -1    0    0    0    0 -0.00000000000E+00 -0.00000000000E+00 -0.45593999997E+02  0.45594000000E+02  0.51100000000E-03 0. -1.
    9900012    2    1    2    0    0 -0.17939188246E+02  0.41878017910E+01 -0.33655728688E+01  0.72461568426E+02  0.69999997566E+02 0.  0.
         12    1    1    2    0    0  0.17939188246E+02 -0.41878017910E+01  0.33655728688E+01  0.18726431574E+02  0.00000000000E+00 0. -1.
         11    1    3    3    0    0  0.57094309077E+01  0.26541284414E+01 -0.11456915036E+02  0.13072983648E+02  0.51100000000E-03 0. -1.
        -11    1    3    3    0    0  0.21672040406E+01 -0.11941034334E+01 -0.20570161360E+02  0.20718450594E+02  0.51100000000E-03 0.  1.
        -12    1    3    3    0    0 -0.25815823194E+02  0.27277767830E+01  0.28661503527E+02  0.38670134184E+02  0.00000000000E+00 0.  1.
</event>
<event>
 7    1  0.3597718E-013  0.7246149E+02  0.7816164E-02  0.1226708E+00
        -11   -1    0    0    0    0  0.00000000000E+00  0.00000000000E+00  0.45593999997E+02  0.45594000000E+02  0.51100000000E-03 0. -1.
         11   -1    0    0    0    0 -0.00000000000E+00 -0.00000000000E+00 -0.45593999997E+02  0.45594000000E+02  0.51100000000E-03 0.  1.
    9900012    2    1    2    0    0 -0.18433490850E+02 -0.29025931174E+01  0.15695670131E+01  0.72461490119E+02  0.69999895556E+02 0.  0.
         12    1    1    2    0    0  0.18433490850E+02  0.29025931174E+01 -0.15695670131E+01  0.18726509881E+02  0.00000000000E+00 0. -1.
         11    1    3    3    0    0  0.32739167126E+01 -0.19952947206E+02 -0.35541968792E+01  0.20529757635E+02  0.51100000000E-03 0.  1.
        -11    1    3    3    0    0 -0.70643448631E+01 -0.10681213341E+02 -0.10807514233E+02  0.16756958284E+02  0.51100000000E-03 0. -1.
         12    1    3    3    0    0 -0.14643062700E+02  0.27731567429E+02  0.15931278125E+02  0.35174774200E+02  0.00000000000E+00 0. -1.
</event>
<event>
 7    1  0.3597718E-013  0.7246163E+02  0.7816164E-02  0.1226708E+00
        -11   -1    0    0    0    0  0.00000000000E+00  0.00000000000E+00  0.45593999997E+02  0.45594000000E+02  0.51100000000E-03 0. -1.
         11   -1    0    0    0    0 -0.00000000000E+00 -0.00000000000E+00 -0.45593999997E+02  0.45594000000E+02  0.51100000000E-03 0.  1.
    9900012    2    1    2    0    0  0.16958401609E+02  0.15901398061E+01 -0.77820884586E+01  0.72461632747E+02  0.70000081356E+02 0.  0.
         12    1    1    2    0    0 -0.16958401609E+02 -0.15901398061E+01  0.77820884586E+01  0.18726367253E+02  0.00000000000E+00 0. -1.
         11    1    3    3    0    0  0.20851600107E+02  0.12657220200E+02  0.39509637929E+01  0.24710414107E+02  0.51100000000E-03 0. -1.
        -11    1    3    3    0    0  0.40309204883E+01  0.16590178863E+02 -0.75916203724E+01  0.18684620811E+02  0.51100000000E-03 0.  1.
        -12    1    3    3    0    0 -0.79241189865E+01 -0.27657259257E+02 -0.41414318791E+01  0.29066597829E+02  0.00000000000E+00 0.  1.
</event>
<event>
 7    1  0.3597718E-013  0.7246160E+02  0.7816164E-02  0.1226708E+00
        -11   -1    0    0    0    0  0.00000000000E+00  0.00000000000E+00  0.45593999997E+02  0.45594000000E+02  0.51100000000E-03 0. -1.
         11   -1    0    0    0    0 -0.00000000000E+00 -0.00000000000E+00 -0.45593999997E+02  0.45594000000E+02  0.51100000000E-03 0.  1.
    9900012    2    1    2    0    0  0.15702105860E+02 -0.11916139386E+01 -0.10134190643E+02  0.72461604399E+02  0.70000044428E+02 0.  0.
         12    1    1    2    0    0 -0.15702105860E+02  0.11916139386E+01  0.10134190643E+02  0.18726395601E+02  0.00000000000E+00 0. -1.
         11    1    3    3    0    0  0.25999697150E+02  0.35689455550E+01  0.71513837606E+01  0.27200439596E+02  0.51100000000E-03 0. -1.
        -11    1    3    3    0    0 -0.19958412855E+01 -0.15036545452E+02  0.76905064522E+01  0.17006615516E+02  0.51100000000E-03 0.  1.
        -12    1    3    3    0    0 -0.83017500042E+01  0.10275985958E+02 -0.24976080855E+02  0.28254549288E+02  0.00000000000E+00 0.  1.
</event>
<event>
 7    1  0.3597718E-013  0.7246154E+02  0.7816164E-02  0.1226708E+00
        -11   -1    0    0    0    0  0.00000000000E+00  0.00000000000E+00  0.45593999997E+02  0.45594000000E+02  0.51100000000E-03 0.  1.
         11   -1    0    0    0    0 -0.00000000000E+00 -0.00000000000E+00 -0.45593999997E+02  0.45594000000E+02  0.51100000000E-03 0. -1.
    9900012    2    1    2    0    0  0.14235525964E+02 -0.11114438999E+02  0.49496945670E+01  0.72461536638E+02  0.69999956157E+02 0.  0.
         12    1    1    2    0    0 -0.14235525964E+02  0.11114438999E+02 -0.49496945670E+01  0.18726463362E+02  0.00000000000E+00 0. -1.
         11    1    3    3    0    0  0.60883906068E+01  0.13298913210E+02 -0.24061066091E+02  0.28157849606E+02  0.51100000000E-03 0. -1.
        -11    1    3    3    0    0  0.21852557820E+01  0.20500560200E+01 -0.16050184805E+01  0.33991406417E+01  0.51100000000E-03 0.  1.
        -12    1    3    3    0    0  0.59618795752E+01 -0.26463408229E+02  0.30615779139E+02  0.40904546390E+02  0.00000000000E+00 0.  1.
</event>
<event>
 7    1  0.3597718E-013  0.7246155E+02  0.7816164E-02  0.1226708E+00
        -11   -1    0    0    0    0  0.00000000000E+00  0.00000000000E+00  0.45593999997E+02  0.45594000000E+02  0.51100000000E-03 0. -1.
         11   -1    0    0    0    0 -0.00000000000E+00 -0.00000000000E+00 -0.45593999997E+02  0.45594000000E+02  0.51100000000E-03 0.  1.
    9900012    2    1    2    0    0  0.58228955909E+01 -0.77024295362E+01  0.16045140169E+02  0.72461546602E+02  0.69999969136E+02 0.  0.
         12    1    1    2    0    0 -0.58228955909E+01  0.77024295362E+01 -0.16045140169E+02  0.18726453398E+02  0.00000000000E+00 0. -1.
         11    1    3    3    0    0  0.14089260183E+02 -0.14519931406E+02  0.99953890596E+01  0.22566423360E+02  0.51100000000E-03 0. -1.
        -11    1    3    3    0    0  0.12765468904E+02 -0.14556600625E+02  0.30613729736E+00  0.19363510488E+02  0.51100000000E-03 0.  1.
        -12    1    3    3    0    0 -0.21031833497E+02  0.21374102495E+02  0.57436138124E+01  0.30531612754E+02  0.00000000000E+00 0.  1.
</event>
<event>
 7    1  0.3597718E-013  0.7246156E+02  0.7816164E-02  0.1226708E+00
        -11   -1    0    0    0    0  0.00000000000E+00  0.00000000000E+00  0.45593999997E+02  0.45594000000E+02  0.51100000000E-03 0.  1.
         11   -1    0    0    0    0 -0.00000000000E+00 -0.00000000000E+00 -0.45593999997E+02  0.45594000000E+02  0.51100000000E-03 0. -1.
    9900012    2    1    2    0    0 -0.84285302770E+01  0.85595437716E+01  0.14365717110E+02  0.72461555055E+02  0.69999980147E+02 0.  0.
         12    1    1    2    0    0  0.84285302770E+01 -0.85595437716E+01 -0.14365717110E+02  0.18726444945E+02  0.00000000000E+00 0. -1.
         11    1    3    3    0    0 -0.35085317738E+02  0.56414211202E+01  0.21936556203E+02  0.41761437371E+02  0.51100000000E-03 0. -1.
        -11    1    3    3    0    0 -0.57085536915E+00  0.20483120597E+01  0.68678863354E+00  0.22345328448E+01  0.51100000000E-03 0.  1.
        -12    1    3    3    0    0  0.27227642830E+02  0.86981059174E+00 -0.82576277261E+01  0.28465584839E+02  0.00000000000E+00 0.  1.
</event>
<event>
 7    1  0.3597718E-013  0.7246157E+02  0.7816164E-02  0.1226708E+00
        -11   -1    0    0    0    0  0.00000000000E+00  0.00000000000E+00  0.45593999997E+02  0.45594000000E+02  0.51100000000E-03 0.  1.
         11   -1    0    0    0    0 -0.00000000000E+00 -0.00000000000E+00 -0.45593999997E+02  0.45594000000E+02  0.51100000000E-03 0. -1.
    9900012    2    1    2    0    0 -0.17109048527E+02  0.65809253012E+01  0.38276875333E+01  0.72461566512E+02  0.69999995073E+02 0.  0.
         12    1    1    2    0    0  0.17109048527E+02 -0.65809253012E+01 -0.38276875333E+01  0.18726433488E+02  0.00000000000E+00 0. -1.
         11    1    3    3    0    0 -0.10972096546E+01 -0.38195372116E+01  0.60094014637E+01  0.72045568739E+01  0.51100000000E-03 0. -1.
        -11    1    3    3    0    0 -0.64297904178E+00  0.29532657032E+02  0.17024353934E+02  0.34094279294E+02  0.51100000000E-03 0.  1.
         12    1    3    3    0    0 -0.15368859831E+02 -0.19132194520E+02 -0.19206067865E+02  0.31162730344E+02  0.00000000000E+00 0. -1.
</event>
<event>
 7    1  0.4094461E-013  0.7246158E+02  0.7816164E-02  0.1226708E+00
        -11   -1    0    0    0    0  0.00000000000E+00  0.00000000000E+00  0.45593999997E+02  0.45594000000E+02  0.51100000000E-03 0.  1.
         11   -1    0    0    0    0 -0.00000000000E+00 -0.00000000000E+00 -0.45593999997E+02  0.45594000000E+02  0.51100000000E-03 0. -1.
    9900012    2    1    2    0    0 -0.16243236016E+02 -0.86954573272E+01  0.33503635624E+01  0.72461584689E+02  0.70000018752E+02 0.  0.
         12    1    1    2    0    0  0.16243236016E+02  0.86954573272E+01 -0.33503635624E+01  0.18726415311E+02  0.00000000000E+00 0. -1.
         11    1    3    3    0    0 -0.12312412959E+02  0.43927215938E+01 -0.66126622766E+00  0.13089262361E+02  0.51100000000E-03 0. -1.
        -11    1    3    3    0    0 -0.23495434610E+02 -0.25477620485E+02  0.87273691853E+01  0.35739495887E+02  0.51100000000E-03 0.  1.
         12    1    3    3    0    0  0.19564611554E+02  0.12389441564E+02 -0.47157393952E+01  0.23632826440E+02  0.00000000000E+00 0. -1.
</event>
<event>
 7    1  0.3597718E-013  0.7246155E+02  0.7816164E-02  0.1226708E+00
        -11   -1    0    0    0    0  0.00000000000E+00  0.00000000000E+00  0.45593999997E+02  0.45594000000E+02  0.51100000000E-03 0. -1.
         11   -1    0    0    0    0 -0.00000000000E+00 -0.00000000000E+00 -0.45593999997E+02  0.45594000000E+02  0.51100000000E-03 0.  1.
    9900012    2    1    2    0    0  0.58194113688E+01  0.19050141068E+01 -0.17697041663E+02  0.72461550495E+02  0.69999974208E+02 0.  0.
         12    1    1    2    0    0 -0.58194113688E+01 -0.19050141068E+01  0.17697041663E+02  0.18726449505E+02  0.00000000000E+00 0. -1.
         11    1    3    3    0    0 -0.60154862080E+01  0.35720942495E+01 -0.19214209720E+02  0.20448271004E+02  0.51100000000E-03 0. -1.
        -11    1    3    3    0    0 -0.14216924503E+02  0.14532912848E+02 -0.43214906967E+01  0.20784652518E+02  0.51100000000E-03 0.  1.
         12    1    3    3    0    0  0.26051822080E+02 -0.16199992991E+02  0.58386587531E+01  0.31228626973E+02  0.00000000000E+00 0. -1.
</event>
<event>
 7    1  0.3597718E-013  0.7246156E+02  0.7816164E-02  0.1226708E+00
        -11   -1    0    0    0    0  0.00000000000E+00  0.00000000000E+00  0.45593999997E+02  0.45594000000E+02  0.51100000000E-03 0. -1.
         11   -1    0    0    0    0 -0.00000000000E+00 -0.00000000000E+00 -0.45593999997E+02  0.45594000000E+02  0.51100000000E-03 0.  1.
    9900012    2    1    2    0    0  0.16628516949E+02 -0.85686277135E+01  0.86636671573E+00  0.72461560186E+02  0.69999986832E+02 0.  0.
         12    1    1    2    0    0 -0.16628516949E+02  0.85686277135E+01 -0.86636671573E+00  0.18726439814E+02  0.00000000000E+00 0. -1.
         11    1    3    3    0    0  0.34244285584E+02 -0.13169709500E+02  0.69869881440E+01  0.37348766339E+02  0.51100000000E-03 0. -1.
        -11    1    3    3    0    0  0.47833817593E+01  0.20218099828E+01  0.72358387569E+01  0.89065043333E+01  0.51100000000E-03 0.  1.
        -12    1    3    3    0    0 -0.22399150394E+02  0.25792718033E+01 -0.13356460185E+02  0.26206289514E+02  0.00000000000E+00 0.  1.
</event>
<event>
 7    1  0.3597718E-013  0.7246157E+02  0.7816164E-02  0.1226708E+00
        -11   -1    0    0    0    0  0.00000000000E+00  0.00000000000E+00  0.45593999997E+02  0.45594000000E+02  0.51100000000E-03 0.  1.
         11   -1    0    0    0    0 -0.00000000000E+00 -0.00000000000E+00 -0.45593999997E+02  0.45594000000E+02  0.51100000000E-03 0. -1.
    9900012    2    1    2    0    0 -0.24865696483E+01  0.45173448579E+01  0.18002495299E+02  0.72461567607E+02  0.69999996500E+02 0.  0.
         12    1    1    2    0    0  0.24865696483E+01 -0.45173448579E+01 -0.18002495299E+02  0.18726432393E+02  0.00000000000E+00 0. -1.
         11    1    3    3    0    0 -0.17022322977E+02  0.56559095321E+01  0.24352178129E+02  0.30245286775E+02  0.51100000000E-03 0. -1.
        -11    1    3    3    0    0  0.26107459722E+01  0.18528250583E+02 -0.35750669172E+01  0.19049755062E+02  0.51100000000E-03 0.  1.
        -12    1    3    3    0    0  0.11925007357E+02 -0.19666815257E+02 -0.27746159136E+01  0.23166525771E+02  0.00000000000E+00 0.  1.
</event>
<event>
 7    1  0.3597718E-013  0.7246153E+02  0.7816164E-02  0.1226708E+00
        -11   -1    0    0    0    0  0.00000000000E+00  0.00000000000E+00  0.45593999997E+02  0.45594000000E+02  0.51100000000E-03 0. -1.
         11   -1    0    0    0    0 -0.00000000000E+00 -0.00000000000E+00 -0.45593999997E+02  0.45594000000E+02  0.51100000000E-03 0.  1.
    9900012    2    1    2    0    0 -0.18184284977E+02 -0.41197381625E+01 -0.17435950630E+01  0.72461532464E+02  0.69999950719E+02 0.  0.
         12    1    1    2    0    0  0.18184284977E+02  0.41197381625E+01  0.17435950630E+01  0.18726467536E+02  0.00000000000E+00 0. -1.
         11    1    3    3    0    0 -0.12206512410E+02  0.57596348534E+01 -0.19641589686E+02  0.23832003368E+02  0.51100000000E-03 0. -1.
        -11    1    3    3    0    0 -0.71266726232E-01  0.39875620357E+01 -0.13351813444E+02  0.13934728287E+02  0.51100000000E-03 0.  1.
         12    1    3    3    0    0 -0.59065058403E+01 -0.13866935052E+02  0.31249808067E+02  0.34694800809E+02  0.00000000000E+00 0. -1.
</event>
<event>
 7    1  0.3597718E-013  0.7246157E+02  0.7816164E-02  0.1226708E+00
        -11   -1    0    0    0    0  0.00000000000E+00  0.00000000000E+00  0.45593999997E+02  0.45594000000E+02  0.51100000000E-03 0.  1.
         11   -1    0    0    0    0 -0.00000000000E+00 -0.00000000000E+00 -0.45593999997E+02  0.45594000000E+02  0.51100000000E-03 0. -1.
    9900012    2    1    2    0    0  0.75448138404E+01 -0.10446795286E+02  0.13587479671E+02  0.72461565437E+02  0.69999993672E+02 0.  0.
         12    1    1    2    0    0 -0.75448138404E+01  0.10446795286E+02 -0.13587479671E+02  0.18726434563E+02  0.00000000000E+00 0. -1.
         11    1    3    3    0    0  0.13459096202E+02 -0.25127880022E+02  0.25710927877E+01  0.28621113594E+02  0.51100000000E-03 0. -1.
        -11    1    3    3    0    0  0.13599978212E+02 -0.22837674379E+01  0.11533602182E+02  0.17977735693E+02  0.51100000000E-03 0.  1.
        -12    1    3    3    0    0 -0.19514260574E+02  0.16964852174E+02 -0.51721529888E+00  0.25862716150E+02  0.00000000000E+00 0.  1.
</event>
<event>
 7    1  0.3597718E-013  0.7246152E+02  0.7816164E-02  0.1226708E+00
        -11   -1    0    0    0    0  0.00000000000E+00  0.00000000000E+00  0.45593999997E+02  0.45594000000E+02  0.51100000000E-03 0.  1.
         11   -1    0    0    0    0 -0.00000000000E+00 -0.00000000000E+00 -0.45593999997E+02  0.45594000000E+02  0.51100000000E-03 0. -1.
    9900012    2    1    2    0    0 -0.34277691248E+01 -0.92599210802E+01  0.15911792814E+02  0.72461524354E+02  0.69999940154E+02 0.  0.
         12    1    1    2    0    0  0.34277691248E+01  0.92599210802E+01 -0.15911792814E+02  0.18726475646E+02  0.00000000000E+00 0. -1.
         11    1    3    3    0    0  0.22180210487E+02  0.50381069146E+01  0.49580370739E+01  0.23279312499E+02  0.51100000000E-03 0. -1.
        -11    1    3    3    0    0  0.89018369145E+01 -0.12094403357E+01 -0.33654944198E+01  0.95933309820E+01  0.51100000000E-03 0.  1.
        -12    1    3    3    0    0 -0.34509816527E+02 -0.13088587659E+02  0.14319250160E+02  0.39588880873E+02  0.00000000000E+00 0.  1.
</event>
<event>
 7    1  0.3597718E-013  0.7246155E+02  0.7816164E-02  0.1226708E+00
        -11   -1    0    0    0    0  0.00000000000E+00  0.00000000000E+00  0.45593999997E+02  0.45594000000E+02  0.51100000000E-03 0.  1.
         11   -1    0    0    0    0 -0.00000000000E+00 -0.00000000000E+00 -0.45593999997E+02  0.45594000000E+02  0.51100000000E-03 0. -1.
    9900012    2    1    2    0    0 -0.69229486284E+01  0.78532857001E+01  0.15526706091E+02  0.72461550362E+02  0.69999974034E+02 0.  0.
         12    1    1    2    0    0  0.69229486284E+01 -0.78532857001E+01 -0.15526706091E+02  0.18726449638E+02  0.00000000000E+00 0. -1.
         11    1    3    3    0    0  0.12001097004E+01  0.14382816906E+02 -0.14259947371E+02  0.20289203650E+02  0.51100000000E-03 0. -1.
        -11    1    3    3    0    0 -0.27076844751E+01 -0.77582177803E+01 -0.94624669191E+01  0.12532349293E+02  0.51100000000E-03 0.  1.
        -12    1    3    3    0    0 -0.54153738537E+01  0.12286865741E+01  0.39249120382E+02  0.39639997419E+02  0.00000000000E+00 0.  1.
</event>
<event>
 7    1  0.3597718E-013  0.7246150E+02  0.7816164E-02  0.1226708E+00
        -11   -1    0    0    0    0  0.00000000000E+00  0.00000000000E+00  0.45593999997E+02  0.45594000000E+02  0.51100000000E-03 0.  1.
         11   -1    0    0    0    0 -0.00000000000E+00 -0.00000000000E+00 -0.45593999997E+02  0.45594000000E+02  0.51100000000E-03 0. -1.
    9900012    2    1    2    0    0 -0.16487281046E+00  0.88470955238E+01  0.16504040641E+02  0.72461504339E+02  0.69999914081E+02 0.  0.
         12    1    1    2    0    0  0.16487281046E+00 -0.88470955238E+01 -0.16504040641E+02  0.18726495661E+02  0.00000000000E+00 0. -1.
         11    1    3    3    0    0 -0.17562183421E+01 -0.13493033340E+02 -0.61211310073E+01  0.14920271333E+02  0.51100000000E-03 0. -1.
        -11    1    3    3    0    0 -0.14560941693E+02  0.25753503298E+02  0.63979244589E-01  0.29584929419E+02  0.51100000000E-03 0.  1.
         12    1    3    3    0    0  0.16152287225E+02 -0.34133744341E+01  0.22561192404E+02  0.27956303588E+02  0.00000000000E+00 0. -1.
</event>
<event>
 7    1  0.3597718E-013  0.7246155E+02  0.7816164E-02  0.1226708E+00
        -11   -1    0    0    0    0  0.00000000000E+00  0.00000000000E+00  0.45593999997E+02  0.45594000000E+02  0.51100000000E-03 0. -1.
         11   -1    0    0    0    0 -0.00000000000E+00 -0.00000000000E+00 -0.45593999997E+02  0.45594000000E+02  0.51100000000E-03 0.  1.
    9900012    2    1    2    0    0 -0.16109481390E+02  0.27796418619E+01 -0.91344540986E+01  0.72461546753E+02  0.69999969333E+02 0.  0.
         12    1    1    2    0    0  0.16109481390E+02 -0.27796418619E+01  0.91344540986E+01  0.18726453247E+02  0.00000000000E+00 0. -1.
         11    1    3    3    0    0 -0.13465205786E+02 -0.17071440693E+02  0.84708393228E+01  0.23334544634E+02  0.51100000000E-03 0. -1.
        -11    1    3    3    0    0 -0.14597635801E+02 -0.27829338517E+01 -0.18234164241E+02  0.23522764243E+02  0.51100000000E-03 0.  1.
         12    1    3    3    0    0  0.11953360197E+02  0.22634016407E+02  0.62887081939E+00  0.25604237876E+02  0.00000000000E+00 0. -1.
</event>
<event>
 7    1  0.3597718E-013  0.7246095E+02  0.7816164E-02  0.1226710E+00
        -11   -1    0    0    0    0  0.00000000000E+00  0.00000000000E+00  0.45593999997E+02  0.45594000000E+02  0.51100000000E-03 0. -1.
         11   -1    0    0    0    0 -0.00000000000E+00 -0.00000000000E+00 -0.45593999997E+02  0.45594000000E+02  0.51100000000E-03 0.  1.
    9900012    2    1    2    0    0  0.17290937710E+02  0.24910292425E+01 -0.67468917249E+01  0.72460952674E+02  0.69999195431E+02 0.  0.
         12    1    1    2    0    0 -0.17290937710E+02 -0.24910292425E+01  0.67468917249E+01  0.18727047326E+02  0.00000000000E+00 0. -1.
         11    1    3    3    0    0  0.27638658396E+02 -0.35479462083E+01 -0.20844879342E+02  0.34799315443E+02  0.51100000000E-03 0. -1.
        -11    1    3    3    0    0 -0.90573010176E+01 -0.74614749482E+00 -0.94564390659E+01  0.13115474748E+02  0.51100000000E-03 0.  1.
         12    1    3    3    0    0 -0.12904196684E+01  0.67851229456E+01  0.23554426683E+02  0.24546162483E+02  0.00000000000E+00 0. -1.
</event>
<event>
 7    1  0.3597718E-013  0.7246166E+02  0.7816164E-02  0.1226708E+00
        -11   -1    0    0    0    0  0.00000000000E+00  0.00000000000E+00  0.45593999997E+02  0.45594000000E+02  0.51100000000E-03 0.  1.
         11   -1    0    0    0    0 -0.00000000000E+00 -0.00000000000E+00 -0.45593999997E+02  0.45594000000E+02  0.51100000000E-03 0. -1.
    9900012    2    1    2    0    0 -0.38188244001E+01 -0.11422192169E+02  0.14339656634E+02  0.72461664370E+02  0.70000122551E+02 0.  0.
         12    1    1    2    0    0  0.38188244001E+01  0.11422192169E+02 -0.14339656634E+02  0.18726335630E+02  0.00000000000E+00 0. -1.
         11    1    3    3    0    0  0.95165857038E+01 -0.21385995515E+02 -0.69989902218E+01  0.24431784053E+02  0.51100000000E-03 0. -1.
        -11    1    3    3    0    0  0.10932183937E+02 -0.57169948288E+01  0.39235676351E+00  0.12343039318E+02  0.51100000000E-03 0.  1.
        -12    1    3    3    0    0 -0.24267594041E+02  0.15680798174E+02  0.20946290092E+02  0.35686841000E+02  0.00000000000E+00 0.  1.
</event>
<event>
 7    1  0.3597718E-013  0.7246162E+02  0.7816164E-02  0.1226708E+00
        -11   -1    0    0    0    0  0.00000000000E+00  0.00000000000E+00  0.45593999997E+02  0.45594000000E+02  0.51100000000E-03 0.  1.
         11   -1    0    0    0    0 -0.00000000000E+00 -0.00000000000E+00 -0.45593999997E+02  0.45594000000E+02  0.51100000000E-03 0. -1.
    9900012    2    1    2    0    0 -0.12372034261E+02  0.12769515324E+02  0.58778818817E+01  0.72461621578E+02  0.70000066807E+02 0.  0.
         12    1    1    2    0    0  0.12372034261E+02 -0.12769515324E+02 -0.58778818817E+01  0.18726378422E+02  0.00000000000E+00 0. -1.
         11    1    3    3    0    0 -0.25287274036E+02  0.13989770558E+02  0.80897744812E+01  0.30010070974E+02  0.51100000000E-03 0. -1.
        -11    1    3    3    0    0  0.18876206597E+02  0.90644089813E+01  0.11832570710E+02  0.24051702966E+02  0.51100000000E-03 0.  1.
         12    1    3    3    0    0 -0.59609668224E+01 -0.10284664215E+02 -0.14044463310E+02  0.18399847639E+02  0.00000000000E+00 0. -1.
</event>
<event>
 7    1  0.3597718E-013  0.7246154E+02  0.7816164E-02  0.1226708E+00
        -11   -1    0    0    0    0  0.00000000000E+00  0.00000000000E+00  0.45593999997E+02  0.45594000000E+02  0.51100000000E-03 0.  1.
         11   -1    0    0    0    0 -0.00000000000E+00 -0.00000000000E+00 -0.45593999997E+02  0.45594000000E+02  0.51100000000E-03 0. -1.
    9900012    2    1    2    0    0  0.11513017563E+02  0.50414384696E+01  0.13882169291E+02  0.72461540125E+02  0.69999960699E+02 0.  0.
         12    1    1    2    0    0 -0.11513017563E+02 -0.50414384696E+01 -0.13882169291E+02  0.18726459875E+02  0.00000000000E+00 0. -1.
         11    1    3    3    0    0  0.78394335558E+01 -0.54247317210E+01  0.54420784898E+01  0.10977278865E+02  0.51100000000E-03 0. -1.
        -11    1    3    3    0    0 -0.13731719190E+02  0.87093766207E+01  0.29755845018E+02  0.33909049913E+02  0.51100000000E-03 0.  1.
         12    1    3    3    0    0  0.17405303197E+02  0.17567935699E+01 -0.21315754217E+02  0.27575211347E+02  0.00000000000E+00 0. -1.
</event>
<event>
 7    1  0.3597718E-013  0.7246153E+02  0.7816164E-02  0.1226708E+00
        -11   -1    0    0    0    0  0.00000000000E+00  0.00000000000E+00  0.45593999997E+02  0.45594000000E+02  0.51100000000E-03 0. -1.
         11   -1    0    0    0    0 -0.00000000000E+00 -0.00000000000E+00 -0.45593999997E+02  0.45594000000E+02  0.51100000000E-03 0.  1.
    9900012    2    1    2    0    0  0.13819276736E+02  0.11913303329E+02 -0.42167998365E+01  0.72461531925E+02  0.69999950016E+02 0.  0.
         12    1    1    2    0    0 -0.13819276736E+02 -0.11913303329E+02  0.42167998365E+01  0.18726468075E+02  0.00000000000E+00 0. -1.
         11    1    3    3    0    0 -0.84732969240E+01  0.56907561259E-01  0.11784601383E+02  0.14514710787E+02  0.51100000000E-03 0. -1.
        -11    1    3    3    0    0 -0.15400198402E+02  0.85578531993E+01 -0.76050534295E+01  0.19189575298E+02  0.51100000000E-03 0.  1.
        -12    1    3    3    0    0  0.37692772062E+02  0.32985425685E+01 -0.83963477897E+01  0.38757245839E+02  0.00000000000E+00 0.  1.
</event>
<event>
 7    1  0.3597718E-013  0.7246154E+02  0.7816164E-02  0.1226708E+00
        -11   -1    0    0    0    0  0.00000000000E+00  0.00000000000E+00  0.45593999997E+02  0.45594000000E+02  0.51100000000E-03 0.  1.
         11   -1    0    0    0    0 -0.00000000000E+00 -0.00000000000E+00 -0.45593999997E+02  0.45594000000E+02  0.51100000000E-03 0. -1.
    9900012    2    1    2    0    0 -0.89979795207E+01  0.24535060704E+00  0.16421223048E+02  0.72461537473E+02  0.69999957244E+02 0.  0.
         12    1    1    2    0    0  0.89979795207E+01 -0.24535060704E+00 -0.16421223048E+02  0.18726462527E+02  0.00000000000E+00 0. -1.
         11    1    3    3    0    0  0.49858513920E+00 -0.30077095195E+01 -0.25083907904E+02  0.25268504896E+02  0.51100000000E-03 0. -1.
        -11    1    3    3    0    0  0.33576657539E+01 -0.54686937396E+01  0.79505615472E+01  0.10217238360E+02  0.51100000000E-03 0.  1.
        -12    1    3    3    0    0 -0.12854230414E+02  0.87217538661E+01  0.33554569405E+02  0.36975794217E+02  0.00000000000E+00 0.  1.
</event>
<event>
 7    1  0.3597718E-013  0.7246166E+02  0.7816164E-02  0.1226708E+00
        -11   -1    0    0    0    0  0.00000000000E+00  0.00000000000E+00  0.45593999997E+02  0.45594000000E+02  0.51100000000E-03 0. -1.
         11   -1    0    0    0    0 -0.00000000000E+00 -0.00000000000E+00 -0.45593999997E+02  0.45594000000E+02  0.51100000000E-03 0.  1.
    9900012    2    1    2    0    0  0.14223031412E+02  0.11498539413E+02  0.40205465073E+01  0.72461659583E+02  0.70000116316E+02 0.  0.
         12    1    1    2    0    0 -0.14223031412E+02 -0.11498539413E+02 -0.40205465073E+01  0.18726340417E+02  0.00000000000E+00 0. -1.
         11    1    3    3    0    0  0.15315139131E+02 -0.20212261595E+01 -0.70841792235E+01  0.16994835607E+02  0.51100000000E-03 0. -1.
        -11    1    3    3    0    0  0.19479526802E+02 -0.87700052503E+01 -0.37555439448E+01  0.21690298917E+02  0.51100000000E-03 0.  1.
         12    1    3    3    0    0 -0.20571634521E+02  0.22289770823E+02  0.14860269676E+02  0.33776525059E+02  0.00000000000E+00 0. -1.
</event>
<event>
 7    1  0.3597718E-013  0.7246157E+02  0.7816164E-02  0.1226708E+00
        -11   -1    0    0    0    0  0.00000000000E+00  0.00000000000E+00  0.45593999997E+02  0.45594000000E+02  0.51100000000E-03 0.  1.
         11   -1    0    0    0    0 -0.00000000000E+00 -0.00000000000E+00 -0.45593999997E+02  0.45594000000E+02  0.51100000000E-03 0. -1.
    9900012    2    1    2    0    0  0.10989579943E+02 -0.50167430081E+01  0.14308765881E+02  0.72461565241E+02  0.69999993417E+02 0.  0.
         12    1    1    2    0    0 -0.10989579943E+02  0.50167430081E+01 -0.14308765881E+02  0.18726434759E+02  0.00000000000E+00 0. -1.
         11    1    3    3    0    0  0.18064221899E+02 -0.24353774374E+02 -0.24577123865E+01  0.30421419913E+02  0.51100000000E-03 0. -1.
        -11    1    3    3    0    0  0.47580965624E+01 -0.71950795676E+01  0.26613889357E+00  0.86301496541E+01  0.51100000000E-03 0.  1.
        -12    1    3    3    0    0 -0.11832738518E+02  0.26532110934E+02  0.16500339374E+02  0.33409995674E+02  0.00000000000E+00 0.  1.
</event>
<event>
 7    1  0.3597718E-013  0.7246157E+02  0.7816164E-02  0.1226708E+00
        -11   -1    0    0    0    0  0.00000000000E+00  0.00000000000E+00  0.45593999997E+02  0.45594000000E+02  0.51100000000E-03 0. -1.
         11   -1    0    0    0    0 -0.00000000000E+00 -0.00000000000E+00 -0.45593999997E+02  0.45594000000E+02  0.51100000000E-03 0.  1.
    9900012    2    1    2    0    0  0.59942193411E+01  0.37276248426E+01 -0.17345121021E+02  0.72461572800E+02  0.70000003264E+02 0.  0.
         12    1    1    2    0    0 -0.59942193411E+01 -0.37276248426E+01  0.17345121021E+02  0.18726427200E+02  0.00000000000E+00 0. -1.
         11    1    3    3    0    0  0.18256346493E+02  0.21067513663E+02  0.29271983354E+01  0.28030390821E+02  0.51100000000E-03 0. -1.
        -11    1    3    3    0    0 -0.65895620886E+01 -0.42828719531E+00  0.83867152809E+01  0.10674397028E+02  0.51100000000E-03 0.  1.
        -12    1    3    3    0    0 -0.56725650638E+01 -0.16911601625E+02 -0.28659034637E+02  0.33756784951E+02  0.00000000000E+00 0.  1.
</event>
<event>
 7    1  0.3597718E-013  0.7246151E+02  0.7816164E-02  0.1226708E+00
        -11   -1    0    0    0    0  0.00000000000E+00  0.00000000000E+00  0.45593999997E+02  0.45594000000E+02  0.51100000000E-03 0. -1.
         11   -1    0    0    0    0 -0.00000000000E+00 -0.00000000000E+00 -0.45593999997E+02  0.45594000000E+02  0.51100000000E-03 0.  1.
    9900012    2    1    2    0    0  0.68326856468E+01  0.25660789486E+01 -0.17245606867E+02  0.72461513129E+02  0.69999925532E+02 0.  0.
         12    1    1    2    0    0 -0.68326856468E+01 -0.25660789486E+01  0.17245606867E+02  0.18726486871E+02  0.00000000000E+00 0. -1.
         11    1    3    3    0    0  0.50759999533E+01 -0.23922254081E+02 -0.10492643952E+02  0.26610817222E+02  0.51100000000E-03 0. -1.
        -11    1    3    3    0    0  0.18093349973E+02  0.15803044599E+02 -0.10073317614E+02  0.26049515540E+02  0.51100000000E-03 0.  1.
         12    1    3    3    0    0 -0.16336664279E+02  0.10685288430E+02  0.33203547001E+01  0.19801180367E+02  0.00000000000E+00 0. -1.
</event>
<event>
 7    1  0.3597718E-013  0.7246158E+02  0.7816164E-02  0.1226708E+00
        -11   -1    0    0    0    0  0.00000000000E+00  0.00000000000E+00  0.45593999997E+02  0.45594000000E+02  0.51100000000E-03 0. -1.
         11   -1    0    0    0    0 -0.00000000000E+00 -0.00000000000E+00 -0.45593999997E+02  0.45594000000E+02  0.51100000000E-03 0.  1.
    9900012    2    1    2    0    0 -0.49152317498E+01  0.87336933690E+01 -0.15819041527E+02  0.72461575412E+02  0.70000006667E+02 0.  0.
         12    1    1    2    0    0  0.49152317498E+01 -0.87336933690E+01  0.15819041527E+02  0.18726424588E+02  0.00000000000E+00 0. -1.
         11    1    3    3    0    0 -0.13676174814E+02 -0.19761603060E+02  0.63755806037E+01  0.24863763620E+02  0.51100000000E-03 0. -1.
        -11    1    3    3    0    0  0.15223604675E+02  0.85640100847E+01 -0.55423075040E+00  0.17475914283E+02  0.51100000000E-03 0.  1.
        -12    1    3    3    0    0 -0.64626616112E+01  0.19931286345E+02 -0.21640391380E+02  0.30121897509E+02  0.00000000000E+00 0.  1.
</event>
<event>
 7    1  0.3597718E-013  0.7246155E+02  0.7816164E-02  0.1226708E+00
        -11   -1    0    0    0    0  0.00000000000E+00  0.00000000000E+00  0.45593999997E+02  0.45594000000E+02  0.51100000000E-03 0. -1.
         11   -1    0    0    0    0 -0.00000000000E+00 -0.00000000000E+00 -0.45593999997E+02  0.45594000000E+02  0.51100000000E-03 0.  1.
    9900012    2    1    2    0    0  0.94606339681E+01 -0.14838058471E+02  0.64037677459E+01  0.72461553044E+02  0.69999977528E+02 0.  0.
         12    1    1    2    0    0 -0.94606339681E+01  0.14838058471E+02 -0.64037677459E+01  0.18726446956E+02  0.00000000000E+00 0. -1.
         11    1    3    3    0    0  0.72411919612E+01 -0.10038327868E+02 -0.43527534706E+01  0.13120569745E+02  0.51100000000E-03 0. -1.
        -11    1    3    3    0    0 -0.22037080231E+02 -0.14449455997E+02  0.18399452569E+02  0.32139687908E+02  0.51100000000E-03 0.  1.
         12    1    3    3    0    0  0.24256522238E+02  0.96497253943E+01 -0.76429313524E+01  0.27201295391E+02  0.00000000000E+00 0. -1.
</event>
<event>
 7    1  0.3597718E-013  0.7246161E+02  0.7816164E-02  0.1226708E+00
        -11   -1    0    0    0    0  0.00000000000E+00  0.00000000000E+00  0.45593999997E+02  0.45594000000E+02  0.51100000000E-03 0.  1.
         11   -1    0    0    0    0 -0.00000000000E+00 -0.00000000000E+00 -0.45593999997E+02  0.45594000000E+02  0.51100000000E-03 0. -1.
    9900012    2    1    2    0    0 -0.28062648958E+01 -0.49496466483E+01  0.17841068021E+02  0.72461605987E+02  0.70000046496E+02 0.  0.
         12    1    1    2    0    0  0.28062648958E+01  0.49496466483E+01 -0.17841068021E+02  0.18726394013E+02  0.00000000000E+00 0. -1.
         11    1    3    3    0    0 -0.69414250607E+01  0.56113662114E+01  0.23107518385E+02  0.24771520317E+02  0.51100000000E-03 0. -1.
        -11    1    3    3    0    0 -0.17123411932E+02 -0.12944875397E+02  0.75474990112E+01  0.22754027706E+02  0.51100000000E-03 0.  1.
         12    1    3    3    0    0  0.21258572097E+02  0.23838625373E+01 -0.12813949375E+02  0.24936057964E+02  0.00000000000E+00 0. -1.
</event>
<event>
 7    1  0.3597718E-013  0.7246158E+02  0.7816164E-02  0.1226708E+00
        -11   -1    0    0    0    0  0.00000000000E+00  0.00000000000E+00  0.45593999997E+02  0.45594000000E+02  0.51100000000E-03 0.  1.
         11   -1    0    0    0    0 -0.00000000000E+00 -0.00000000000E+00 -0.45593999997E+02  0.45594000000E+02  0.51100000000E-03 0. -1.
    9900012    2    1    2    0    0 -0.34574511777E+01  0.11585563895E+02  0.14300332970E+02  0.72461580629E+02  0.70000013463E+02 0.  0.
         12    1    1    2    0    0  0.34574511777E+01 -0.11585563895E+02 -0.14300332970E+02  0.18726419371E+02  0.00000000000E+00 0. -1.
         11    1    3    3    0    0 -0.11032990430E+02 -0.13474475236E+02 -0.67600020843E+01  0.18681166697E+02  0.51100000000E-03 0. -1.
        -11    1    3    3    0    0  0.14125770173E+02 -0.75310331739E+01  0.93314979581E+01  0.18529185035E+02  0.51100000000E-03 0.  1.
         12    1    3    3    0    0 -0.65502309207E+01  0.32591072306E+02  0.11728837096E+02  0.35251228897E+02  0.00000000000E+00 0. -1.
</event>
<event>
 7    1  0.3597718E-013  0.7246153E+02  0.7816164E-02  0.1226708E+00
        -11   -1    0    0    0    0  0.00000000000E+00  0.00000000000E+00  0.45593999997E+02  0.45594000000E+02  0.51100000000E-03 0. -1.
         11   -1    0    0    0    0 -0.00000000000E+00 -0.00000000000E+00 -0.45593999997E+02  0.45594000000E+02  0.51100000000E-03 0.  1.
    9900012    2    1    2    0    0  0.12790717792E+02 -0.13570505242E+02 -0.17087075869E+01  0.72461527941E+02  0.69999944827E+02 0.  0.
         12    1    1    2    0    0 -0.12790717792E+02  0.13570505242E+02  0.17087075869E+01  0.18726472059E+02  0.00000000000E+00 0. -1.
         11    1    3    3    0    0 -0.93697625797E+01 -0.43307187713E+01 -0.21116561251E+02  0.23504398210E+02  0.51100000000E-03 0. -1.
        -11    1    3    3    0    0  0.11517720776E+02 -0.20304507556E+02 -0.10642502880E+01  0.23368002651E+02  0.51100000000E-03 0.  1.
         12    1    3    3    0    0  0.10642759596E+02  0.11064721085E+02  0.20472103952E+02  0.25589127080E+02  0.00000000000E+00 0. -1.
</event>
<event>
 7    1  0.3597718E-013  0.7246157E+02  0.7816164E-02  0.1226708E+00
        -11   -1    0    0    0    0  0.00000000000E+00  0.00000000000E+00  0.45593999997E+02  0.45594000000E+02  0.51100000000E-03 0.  1.
         11   -1    0    0    0    0 -0.00000000000E+00 -0.00000000000E+00 -0.45593999997E+02  0.45594000000E+02  0.51100000000E-03 0. -1.
    9900012    2    1    2    0    0  0.17672386328E+02  0.51676668462E+01 -0.34148209114E+01  0.72461574260E+02  0.70000005166E+02 0.  0.
         12    1    1    2    0    0 -0.17672386328E+02 -0.51676668462E+01  0.34148209114E+01  0.18726425740E+02  0.00000000000E+00 0. -1.
         11    1    3    3    0    0 -0.45408177462E+01 -0.77947330682E+01 -0.93486123702E+01  0.12991283344E+02  0.51100000000E-03 0. -1.
        -11    1    3    3    0    0 -0.11823402730E+01  0.25853279541E+02 -0.10697474638E+02  0.28004034628E+02  0.51100000000E-03 0.  1.
        -12    1    3    3    0    0  0.23395544347E+02 -0.12890879626E+02  0.16631266097E+02  0.31466256288E+02  0.00000000000E+00 0.  1.
</event>
<event>
 7    1  0.3597718E-013  0.7246158E+02  0.7816164E-02  0.1226708E+00
        -11   -1    0    0    0    0  0.00000000000E+00  0.00000000000E+00  0.45593999997E+02  0.45594000000E+02  0.51100000000E-03 0. -1.
         11   -1    0    0    0    0 -0.00000000000E+00 -0.00000000000E+00 -0.45593999997E+02  0.45594000000E+02  0.51100000000E-03 0.  1.
    9900012    2    1    2    0    0  0.14298713866E+02 -0.11724723020E+02 -0.29591116097E+01  0.72461583107E+02  0.70000016691E+02 0.  0.
         12    1    1    2    0    0 -0.14298713866E+02  0.11724723020E+02  0.29591116097E+01  0.18726416893E+02  0.00000000000E+00 0. -1.
         11    1    3    3    0    0  0.31525312383E+02 -0.18260379428E+02  0.14013357978E+00  0.36432216724E+02  0.51100000000E-03 0. -1.
        -11    1    3    3    0    0 -0.13222005306E+01 -0.20309500783E+01 -0.14478114128E+02  0.14679535463E+02  0.51100000000E-03 0.  1.
        -12    1    3    3    0    0 -0.15904397986E+02  0.85666064857E+01  0.11378868938E+02  0.21349830920E+02  0.00000000000E+00 0.  1.
</event>
<event>
 7    1  0.3597718E-013  0.7246153E+02  0.7816164E-02  0.1226708E+00
        -11   -1    0    0    0    0  0.00000000000E+00  0.00000000000E+00  0.45593999997E+02  0.45594000000E+02  0.51100000000E-03 0.  1.
         11   -1    0    0    0    0 -0.00000000000E+00 -0.00000000000E+00 -0.45593999997E+02  0.45594000000E+02  0.51100000000E-03 0. -1.
    9900012    2    1    2    0    0  0.94507714807E+01  0.15939883484E+02  0.26988460706E+01  0.72461528437E+02  0.69999945474E+02 0.  0.
         12    1    1    2    0    0 -0.94507714807E+01 -0.15939883484E+02 -0.26988460706E+01  0.18726471563E+02  0.00000000000E+00 0. -1.
         11    1    3    3    0    0  0.11718256557E+02  0.48008026819E+01  0.25613705695E+01  0.12919979202E+02  0.51100000000E-03 0. -1.
        -11    1    3    3    0    0  0.16198472872E+02  0.29402423236E+02  0.15971827559E+00  0.33569607172E+02  0.51100000000E-03 0.  1.
         12    1    3    3    0    0 -0.18465957948E+02 -0.18263342434E+02 -0.22242774441E-01  0.25971942063E+02  0.00000000000E+00 0. -1.
</event>
<event>
 7    1  0.3597718E-013  0.7246169E+02  0.7816164E-02  0.1226708E+00
        -11   -1    0    0    0    0  0.00000000000E+00  0.00000000000E+00  0.45593999997E+02  0.45594000000E+02  0.51100000000E-03 0. -1.
         11   -1    0    0    0    0 -0.00000000000E+00 -0.00000000000E+00 -0.45593999997E+02  0.45594000000E+02  0.51100000000E-03 0.  1.
    9900012    2    1    2    0    0 -0.19233224772E+01  0.15647649898E+02 -0.10105768939E+02  0.72461690098E+02  0.70000156066E+02 0.  0.
         12    1    1    2    0    0  0.19233224772E+01 -0.15647649898E+02  0.10105768939E+02  0.18726309902E+02  0.00000000000E+00 0. -1.
         11    1    3    3    0    0  0.26207806215E+02  0.14739977243E+02 -0.13820816830E+02  0.33092763768E+02  0.51100000000E-03 0. -1.
        -11    1    3    3    0    0 -0.16644502164E+02  0.13992808076E+02  0.29105273525E+01  0.21938762497E+02  0.51100000000E-03 0.  1.
        -12    1    3    3    0    0 -0.11486626528E+02 -0.13085135420E+02  0.80452053811E+00  0.17430163833E+02  0.00000000000E+00 0.  1.
</event>
<event>
 7    1  0.3597718E-013  0.7246158E+02  0.7816164E-02  0.1226708E+00
        -11   -1    0    0    0    0  0.00000000000E+00  0.00000000000E+00  0.45593999997E+02  0.45594000000E+02  0.51100000000E-03 0. -1.
         11   -1    0    0    0    0 -0.00000000000E+00 -0.00000000000E+00 -0.45593999997E+02  0.45594000000E+02  0.51100000000E-03 0.  1.
    9900012    2    1    2    0    0 -0.13394758385E+02  0.61982038103E+01 -0.11525697774E+02  0.72461575038E+02  0.70000006180E+02 0.  0.
         12    1    1    2    0    0  0.13394758385E+02 -0.61982038103E+01  0.11525697774E+02  0.18726424962E+02  0.00000000000E+00 0. -1.
         11    1    3    3    0    0  0.59563139736E+01 -0.10715415220E+02  0.28104326977E+01  0.12577612321E+02  0.51100000000E-03 0. -1.
        -11    1    3    3    0    0 -0.11427439006E+02 -0.17502236937E+02 -0.12850096280E+02  0.24536495975E+02  0.51100000000E-03 0.  1.
         12    1    3    3    0    0 -0.79236333526E+01  0.34415855968E+02 -0.14860341917E+01  0.35347466742E+02  0.00000000000E+00 0. -1.
</event>
<event>
 7    1  0.3597718E-013  0.7246158E+02  0.7816164E-02  0.1226708E+00
        -11   -1    0    0    0    0  0.00000000000E+00  0.00000000000E+00  0.45593999997E+02  0.45594000000E+02  0.51100000000E-03 0. -1.
         11   -1    0    0    0    0 -0.00000000000E+00 -0.00000000000E+00 -0.45593999997E+02  0.45594000000E+02  0.51100000000E-03 0.  1.
    9900012    2    1    2    0    0 -0.14142125179E+01 -0.54182353553E+00 -0.18665080189E+02  0.72461580474E+02  0.70000013261E+02 0.  0.
         12    1    1    2    0    0  0.14142125179E+01  0.54182353553E+00  0.18665080189E+02  0.18726419526E+02  0.00000000000E+00 0. -1.
         11    1    3    3    0    0  0.14236658834E+02 -0.17448663290E+01 -0.24365154319E+01  0.14548663889E+02  0.51100000000E-03 0. -1.
        -11    1    3    3    0    0 -0.75384022281E+01 -0.20553264528E+02  0.89601461609E+01  0.23654775636E+02  0.51100000000E-03 0.  1.
         12    1    3    3    0    0 -0.81124691235E+01  0.21756307321E+02 -0.25188710918E+02  0.34258140949E+02  0.00000000000E+00 0. -1.
</event>
<event>
 7    1  0.3597718E-013  0.7246162E+02  0.7816164E-02  0.1226708E+00
        -11   -1    0    0    0    0  0.00000000000E+00  0.00000000000E+00  0.45593999997E+02  0.45594000000E+02  0.51100000000E-03 0.  1.
         11   -1    0    0    0    0 -0.00000000000E+00 -0.00000000000E+00 -0.45593999997E+02  0.45594000000E+02  0.51100000000E-03 0. -1.
    9900012    2    1    2    0    0 -0.37916022843E+01  0.68306373893E+01  0.17018911793E+02  0.72461622517E+02  0.70000068029E+02 0.  0.
         12    1    1    2    0    0  0.37916022843E+01 -0.68306373893E+01 -0.17018911793E+02  0.18726377483E+02  0.00000000000E+00 0. -1.
         11    1    3    3    0    0  0.17975329606E+02 -0.10076368447E+02  0.13691391550E+02  0.24740652343E+02  0.51100000000E-03 0.  1.
        -11    1    3    3    0    0 -0.38460295960E+01  0.17272973153E+02 -0.14171310200E+02  0.22670985383E+02  0.51100000000E-03 0. -1.
        -12    1    3    3    0    0 -0.17920902294E+02 -0.36596731624E+00  0.17498830443E+02  0.25049984790E+02  0.00000000000E+00 0.  1.
</event>
<event>
 7    1  0.3597718E-013  0.7246156E+02  0.7816164E-02  0.1226708E+00
        -11   -1    0    0    0    0  0.00000000000E+00  0.00000000000E+00  0.45593999997E+02  0.45594000000E+02  0.51100000000E-03 0. -1.
         11   -1    0    0    0    0 -0.00000000000E+00 -0.00000000000E+00 -0.45593999997E+02  0.45594000000E+02  0.51100000000E-03 0.  1.
    9900012    2    1    2    0    0  0.70619164011E+00 -0.17908245614E+02 -0.54291450540E+01  0.72461559238E+02  0.69999985596E+02 0.  0.
         12    1    1    2    0    0 -0.70619164011E+00  0.17908245614E+02  0.54291450540E+01  0.18726440762E+02  0.00000000000E+00 0. -1.
         11    1    3    3    0    0  0.15123774173E+02 -0.38307678644E+01  0.14771079918E+01  0.15671157454E+02  0.51100000000E-03 0. -1.
        -11    1    3    3    0    0  0.11983238381E+02 -0.22039502426E+02 -0.13428066376E+02  0.28454360582E+02  0.51100000000E-03 0.  1.
         12    1    3    3    0    0 -0.26400820914E+02  0.79620246759E+01  0.65218133303E+01  0.28336041201E+02  0.00000000000E+00 0. -1.
</event>
<event>
 7    1  0.3597718E-013  0.7246182E+02  0.7816164E-02  0.1226707E+00
        -11   -1    0    0    0    0  0.00000000000E+00  0.00000000000E+00  0.45593999997E+02  0.45594000000E+02  0.51100000000E-03 0.  1.
         11   -1    0    0    0    0 -0.00000000000E+00 -0.00000000000E+00 -0.45593999997E+02  0.45594000000E+02  0.51100000000E-03 0. -1.
    9900012    2    1    2    0    0 -0.40353482402E+00  0.19288996196E+01  0.18622200517E+02  0.72461819231E+02  0.70000324286E+02 0.  0.
         12    1    1    2    0    0  0.40353482402E+00 -0.19288996196E+01 -0.18622200517E+02  0.18726180769E+02  0.00000000000E+00 0. -1.
         11    1    3    3    0    0 -0.97659378394E+01 -0.55613876244E+01 -0.45065244079E+01  0.12108316840E+02  0.51100000000E-03 0. -1.
        -11    1    3    3    0    0 -0.20232961845E+02  0.13187413634E+02  0.17166878466E+02  0.29630766779E+02  0.51100000000E-03 0.  1.
        -12    1    3    3    0    0  0.29595364861E+02 -0.56971263900E+01  0.59618464591E+01  0.30722735613E+02  0.00000000000E+00 0.  1.
</event>
<event>
 7    1  0.3597718E-013  0.7246160E+02  0.7816164E-02  0.1226708E+00
        -11   -1    0    0    0    0  0.00000000000E+00  0.00000000000E+00  0.45593999997E+02  0.45594000000E+02  0.51100000000E-03 0.  1.
         11   -1    0    0    0    0 -0.00000000000E+00 -0.00000000000E+00 -0.45593999997E+02  0.45594000000E+02  0.51100000000E-03 0. -1.
    9900012    2    1    2    0    0 -0.72538613523E+01 -0.35379084100E+01  0.16898014496E+02  0.72461596331E+02  0.70000033918E+02 0.  0.
         12    1    1    2    0    0  0.72538613523E+01  0.35379084100E+01 -0.16898014496E+02  0.18726403669E+02  0.00000000000E+00 0. -1.
         11    1    3    3    0    0  0.26141921749E+02  0.67705233163E+01  0.75425209158E+01  0.28038004222E+02  0.51100000000E-03 0. -1.
        -11    1    3    3    0    0  0.38129048520E+01 -0.41549240250E+01  0.21020403783E+01  0.60183229456E+01  0.51100000000E-03 0.  1.
        -12    1    3    3    0    0 -0.37208687953E+02 -0.61535077013E+01  0.72534532023E+01  0.38405269164E+02  0.00000000000E+00 0.  1.
</event>
<event>
 7    1  0.3597718E-013  0.7246157E+02  0.7816164E-02  0.1226708E+00
        -11   -1    0    0    0    0  0.00000000000E+00  0.00000000000E+00  0.45593999997E+02  0.45594000000E+02  0.51100000000E-03 0.  1.
         11   -1    0    0    0    0 -0.00000000000E+00 -0.00000000000E+00 -0.45593999997E+02  0.45594000000E+02  0.51100000000E-03 0. -1.
    9900012    2    1    2    0    0  0.75178627653E+00 -0.18454510946E+02  0.30895190848E+01  0.72461567210E+02  0.69999995982E+02 0.  0.
         12    1    1    2    0    0 -0.75178627653E+00  0.18454510946E+02 -0.30895190848E+01  0.18726432790E+02  0.00000000000E+00 0. -1.
         11    1    3    3    0    0  0.14180829750E+02 -0.11733344026E+02 -0.22665196365E+02  0.29197233104E+02  0.51100000000E-03 0.  1.
        -11    1    3    3    0    0 -0.99354278379E+01  0.10107929901E+02  0.25717012062E+01  0.14404742988E+02  0.51100000000E-03 0. -1.
        -12    1    3    3    0    0 -0.34936156352E+01 -0.16829096821E+02  0.23183014244E+02  0.28859591117E+02  0.00000000000E+00 0.  1.
</event>
<event>
 7    1  0.3597718E-013  0.7246157E+02  0.7816164E-02  0.1226708E+00
        -11   -1    0    0    0    0  0.00000000000E+00  0.00000000000E+00  0.45593999997E+02  0.45594000000E+02  0.51100000000E-03 0.  1.
         11   -1    0    0    0    0 -0.00000000000E+00 -0.00000000000E+00 -0.45593999997E+02  0.45594000000E+02  0.51100000000E-03 0. -1.
    9900012    2    1    2    0    0 -0.12298295888E+02  0.79508019707E+01  0.11671150120E+02  0.72461572716E+02  0.70000003154E+02 0.  0.
         12    1    1    2    0    0  0.12298295888E+02 -0.79508019707E+01 -0.11671150120E+02  0.18726427284E+02  0.00000000000E+00 0. -1.
         11    1    3    3    0    0 -0.12123146018E+02 -0.95092504378E+01 -0.74029760760E+01  0.17093875170E+02  0.51100000000E-03 0. -1.
        -11    1    3    3    0    0  0.19818483722E+02 -0.63831024660E+01  0.87247364091E+01  0.22575148278E+02  0.51100000000E-03 0.  1.
         12    1    3    3    0    0 -0.19993633591E+02  0.23843154874E+02  0.10349389787E+02  0.32792549268E+02  0.00000000000E+00 0. -1.
</event>
<event>
 7    1  0.3597718E-013  0.7246158E+02  0.7816164E-02  0.1226708E+00
        -11   -1    0    0    0    0  0.00000000000E+00  0.00000000000E+00  0.45593999997E+02  0.45594000000E+02  0.51100000000E-03 0. -1.
         11   -1    0    0    0    0 -0.00000000000E+00 -0.00000000000E+00 -0.45593999997E+02  0.45594000000E+02  0.51100000000E-03 0.  1.
    9900012    2    1    2    0    0 -0.99921882168E+01 -0.10761623854E+02 -0.11619922535E+02  0.72461575540E+02  0.70000006834E+02 0.  0.
         12    1    1    2    0    0  0.99921882168E+01  0.10761623854E+02  0.11619922535E+02  0.18726424460E+02  0.00000000000E+00 0. -1.
         11    1    3    3    0    0  0.10225427777E+02 -0.58719054557E+01 -0.80869970307E+01  0.14298187582E+02  0.51100000000E-03 0. -1.
        -11    1    3    3    0    0  0.91216638237E+01 -0.14855981542E+02 -0.17025448215E+02  0.24367413192E+02  0.51100000000E-03 0.  1.
         12    1    3    3    0    0 -0.29339279817E+02  0.99662631442E+01  0.13492522711E+02  0.33795974766E+02  0.00000000000E+00 0. -1.
</event>
<event>
 7    1  0.3597718E-013  0.7246147E+02  0.7816164E-02  0.1226708E+00
        -11   -1    0    0    0    0  0.00000000000E+00  0.00000000000E+00  0.45593999997E+02  0.45594000000E+02  0.51100000000E-03 0.  1.
         11   -1    0    0    0    0 -0.00000000000E+00 -0.00000000000E+00 -0.45593999997E+02  0.45594000000E+02  0.51100000000E-03 0. -1.
    9900012    2    1    2    0    0  0.80432789986E+01 -0.11934525904E+02 -0.11981466679E+02  0.72461473643E+02  0.69999874094E+02 0.  0.
         12    1    1    2    0    0 -0.80432789986E+01  0.11934525904E+02  0.11981466679E+02  0.18726526357E+02  0.00000000000E+00 0. -1.
         11    1    3    3    0    0  0.47036955701E+01  0.11300079567E+02  0.70102052299E+01  0.14105301410E+02  0.51100000000E-03 0. -1.
        -11    1    3    3    0    0 -0.22285219543E+02 -0.18456495963E+02 -0.76547185560E+01  0.29931053602E+02  0.51100000000E-03 0.  1.
         12    1    3    3    0    0  0.25624802972E+02 -0.47781095089E+01 -0.11336953353E+02  0.28425118631E+02  0.00000000000E+00 0. -1.
</event>
<event>
 7    1  0.3597718E-013  0.7246147E+02  0.7816164E-02  0.1226708E+00
        -11   -1    0    0    0    0  0.00000000000E+00  0.00000000000E+00  0.45593999997E+02  0.45594000000E+02  0.51100000000E-03 0. -1.
         11   -1    0    0    0    0 -0.00000000000E+00 -0.00000000000E+00 -0.45593999997E+02  0.45594000000E+02  0.51100000000E-03 0.  1.
    9900012    2    1    2    0    0  0.17880920570E+02 -0.55487389200E+01 -0.40888637187E+00  0.72461467697E+02  0.69999866347E+02 0.  0.
         12    1    1    2    0    0 -0.17880920570E+02  0.55487389200E+01  0.40888637187E+00  0.18726532303E+02  0.00000000000E+00 0. -1.
         11    1    3    3    0    0  0.63591570432E+01 -0.19675818384E+02  0.20443610294E+02  0.29077790657E+02  0.51100000000E-03 0. -1.
        -11    1    3    3    0    0  0.22945526756E+01  0.30063607169E+01  0.92495606981E+01  0.99928749672E+01  0.51100000000E-03 0.  1.
        -12    1    3    3    0    0  0.92272108515E+01  0.11120718747E+02 -0.30102057364E+02  0.33390802073E+02  0.00000000000E+00 0.  1.
</event>
<event>
 7    1  0.3597718E-013  0.7246162E+02  0.7816164E-02  0.1226708E+00
        -11   -1    0    0    0    0  0.00000000000E+00  0.00000000000E+00  0.45593999997E+02  0.45594000000E+02  0.51100000000E-03 0. -1.
         11   -1    0    0    0    0 -0.00000000000E+00 -0.00000000000E+00 -0.45593999997E+02  0.45594000000E+02  0.51100000000E-03 0.  1.
    9900012    2    1    2    0    0 -0.15313700106E+02  0.19103602227E+01 -0.10607461537E+02  0.72461624820E+02  0.70000071030E+02 0.  0.
         12    1    1    2    0    0  0.15313700106E+02 -0.19103602227E+01  0.10607461537E+02  0.18726375180E+02  0.00000000000E+00 0. -1.
         11    1    3    3    0    0  0.14077443418E+01 -0.55961984245E+00 -0.18549741759E+01  0.23949630382E+01  0.51100000000E-03 0. -1.
        -11    1    3    3    0    0 -0.21208619223E+02 -0.29681655990E+02 -0.14036240113E+00  0.36480487024E+02  0.51100000000E-03 0.  1.
         12    1    3    3    0    0  0.44871747758E+01  0.32151636056E+02 -0.86121249604E+01  0.33586174758E+02  0.00000000000E+00 0. -1.
</event>
<event>
 7    1  0.3597718E-013  0.7246155E+02  0.7816164E-02  0.1226708E+00
        -11   -1    0    0    0    0  0.00000000000E+00  0.00000000000E+00  0.45593999997E+02  0.45594000000E+02  0.51100000000E-03 0. -1.
         11   -1    0    0    0    0 -0.00000000000E+00 -0.00000000000E+00 -0.45593999997E+02  0.45594000000E+02  0.51100000000E-03 0.  1.
    9900012    2    1    2    0    0  0.24005850808E+01  0.40488768919E+01 -0.18125224455E+02  0.72461548805E+02  0.69999972006E+02 0.  0.
         12    1    1    2    0    0 -0.24005850808E+01 -0.40488768919E+01  0.18125224455E+02  0.18726451195E+02  0.00000000000E+00 0. -1.
         11    1    3    3    0    0 -0.28960323287E+01  0.11595431728E+02 -0.26888660990E+02  0.29425178509E+02  0.51100000000E-03 0. -1.
        -11    1    3    3    0    0 -0.38402699151E+01  0.16209056177E+02  0.41891614121E+01  0.17176444590E+02  0.51100000000E-03 0.  1.
         12    1    3    3    0    0  0.91368873245E+01 -0.23755611013E+02  0.45742751228E+01  0.25859925705E+02  0.00000000000E+00 0. -1.
</event>
<event>
 7    1  0.3597718E-013  0.7246152E+02  0.7816164E-02  0.1226708E+00
        -11   -1    0    0    0    0  0.00000000000E+00  0.00000000000E+00  0.45593999997E+02  0.45594000000E+02  0.51100000000E-03 0. -1.
         11   -1    0    0    0    0 -0.00000000000E+00 -0.00000000000E+00 -0.45593999997E+02  0.45594000000E+02  0.51100000000E-03 0.  1.
    9900012    2    1    2    0    0  0.12414013098E+02 -0.13677040634E+02  0.30841544534E+01  0.72461516871E+02  0.69999930406E+02 0.  0.
         12    1    1    2    0    0 -0.12414013098E+02  0.13677040634E+02 -0.30841544534E+01  0.18726483129E+02  0.00000000000E+00 0. -1.
         11    1    3    3    0    0 -0.74191977736E+01 -0.79078439221E+01  0.91510669620E+01  0.14188746171E+02  0.51100000000E-03 0. -1.
        -11    1    3    3    0    0 -0.13005996159E+02  0.70389329592E+01 -0.15864018927E+02  0.21688006135E+02  0.51100000000E-03 0.  1.
         12    1    3    3    0    0  0.32839207031E+02 -0.12808129671E+02  0.97971064189E+01  0.36584764565E+02  0.00000000000E+00 0. -1.
</event>
<event>
 7    1  0.3597718E-013  0.7246157E+02  0.7816164E-02  0.1226708E+00
        -11   -1    0    0    0    0  0.00000000000E+00  0.00000000000E+00  0.45593999997E+02  0.45594000000E+02  0.51100000000E-03 0. -1.
         11   -1    0    0    0    0 -0.00000000000E+00 -0.00000000000E+00 -0.45593999997E+02  0.45594000000E+02  0.51100000000E-03 0.  1.
    9900012    2    1    2    0    0  0.11528942709E+02 -0.13839130492E+02 -0.51226138730E+01  0.72461568795E+02  0.69999998047E+02 0.  0.
         12    1    1    2    0    0 -0.11528942709E+02  0.13839130492E+02  0.51226138730E+01  0.18726431205E+02  0.00000000000E+00 0. -1.
         11    1    3    3    0    0  0.24697431005E+02  0.62860814953E+01 -0.72930096125E+01  0.26507846165E+02  0.51100000000E-03 0. -1.
        -11    1    3    3    0    0  0.13719605948E+02 -0.10471852919E+02 -0.45051699892E+00  0.17265290520E+02  0.51100000000E-03 0.  1.
         12    1    3    3    0    0 -0.26888094244E+02 -0.96533590682E+01  0.26209127384E+01  0.28688432110E+02  0.00000000000E+00 0. -1.
</event>
<event>
 7    1  0.3597718E-013  0.7246154E+02  0.7816164E-02  0.1226708E+00
        -11   -1    0    0    0    0  0.00000000000E+00  0.00000000000E+00  0.45593999997E+02  0.45594000000E+02  0.51100000000E-03 0. -1.
         11   -1    0    0    0    0 -0.00000000000E+00 -0.00000000000E+00 -0.45593999997E+02  0.45594000000E+02  0.51100000000E-03 0.  1.
    9900012    2    1    2    0    0  0.20670574157E+00  0.17867166844E+02 -0.56037532657E+01  0.72461536667E+02  0.69999956194E+02 0.  0.
         12    1    1    2    0    0 -0.20670574157E+00 -0.17867166844E+02  0.56037532657E+01  0.18726463333E+02  0.00000000000E+00 0. -1.
         11    1    3    3    0    0  0.16464819292E+02  0.35478233593E+02 -0.25032760761E+01  0.39192623344E+02  0.51100000000E-03 0. -1.
        -11    1    3    3    0    0 -0.12594779311E+02  0.19730189346E+01  0.14545308277E+01  0.12831092307E+02  0.51100000000E-03 0.  1.
        -12    1    3    3    0    0 -0.36633342393E+01 -0.19584085684E+02 -0.45550080172E+01  0.20437821016E+02  0.00000000000E+00 0.  1.
</event>
<event>
 7    1  0.3597718E-013  0.7246161E+02  0.7816164E-02  0.1226708E+00
        -11   -1    0    0    0    0  0.00000000000E+00  0.00000000000E+00  0.45593999997E+02  0.45594000000E+02  0.51100000000E-03 0.  1.
         11   -1    0    0    0    0 -0.00000000000E+00 -0.00000000000E+00 -0.45593999997E+02  0.45594000000E+02  0.51100000000E-03 0. -1.
    9900012    2    1    2    0    0  0.25156481785E+01  0.18556591112E+02  0.46108986990E-01  0.72461609919E+02  0.70000051618E+02 0.  0.
         12    1    1    2    0    0 -0.25156481785E+01 -0.18556591112E+02 -0.46108986990E-01  0.18726390081E+02  0.00000000000E+00 0. -1.
         11    1    3    3    0    0  0.11106554427E+02  0.18135947988E+02  0.28362318420E+02  0.35449813358E+02  0.51100000000E-03 0. -1.
        -11    1    3    3    0    0 -0.31958859724E+01  0.12420327865E+01  0.34004865100E+01  0.48290414533E+01  0.51100000000E-03 0.  1.
         12    1    3    3    0    0 -0.53950202764E+01 -0.82138966287E+00 -0.31716695943E+02  0.32182755108E+02  0.00000000000E+00 0. -1.
</event>
<event>
 7    1  0.3597718E-013  0.7246154E+02  0.7816164E-02  0.1226708E+00
        -11   -1    0    0    0    0  0.00000000000E+00  0.00000000000E+00  0.45593999997E+02  0.45594000000E+02  0.51100000000E-03 0.  1.
         11   -1    0    0    0    0 -0.00000000000E+00 -0.00000000000E+00 -0.45593999997E+02  0.45594000000E+02  0.51100000000E-03 0. -1.
    9900012    2    1    2    0    0 -0.80420212538E+01 -0.15845279158E+02  0.59104373874E+01  0.72461541511E+02  0.69999962504E+02 0.  0.
         12    1    1    2    0    0  0.80420212538E+01  0.15845279158E+02 -0.59104373874E+01  0.18726458489E+02  0.00000000000E+00 0. -1.
         11    1    3    3    0    0  0.80164790337E+01  0.67338778925E-02  0.80714604847E+01  0.11375959567E+02  0.51100000000E-03 0. -1.
        -11    1    3    3    0    0  0.78465415114E+01 -0.31486758102E+02 -0.13614976430E+00  0.32450002873E+02  0.51100000000E-03 0.  1.
         12    1    3    3    0    0 -0.23905041799E+02  0.15634745066E+02 -0.20248733330E+01  0.28635579070E+02  0.00000000000E+00 0. -1.
</event>
<event>
 7    1  0.3597718E-013  0.7246166E+02  0.7816164E-02  0.1226708E+00
        -11   -1    0    0    0    0  0.00000000000E+00  0.00000000000E+00  0.45593999997E+02  0.45594000000E+02  0.51100000000E-03 0. -1.
         11   -1    0    0    0    0 -0.00000000000E+00 -0.00000000000E+00 -0.45593999997E+02  0.45594000000E+02  0.51100000000E-03 0.  1.
    9900012    2    1    2    0    0 -0.18300257830E+01  0.34998250824E+01 -0.18305133577E+02  0.72461663325E+02  0.70000121190E+02 0.  0.
         12    1    1    2    0    0  0.18300257830E+01 -0.34998250824E+01  0.18305133577E+02  0.18726336675E+02  0.00000000000E+00 0. -1.
         11    1    3    3    0    0  0.17047577636E+00  0.76527640143E+00 -0.73616973904E+00  0.10754794776E+01  0.51100000000E-03 0. -1.
        -11    1    3    3    0    0  0.13726025063E+02  0.20465466670E+01 -0.40928715999E+02  0.43217495426E+02  0.51100000000E-03 0.  1.
         12    1    3    3    0    0 -0.15726526622E+02  0.68800201399E+00  0.23359752161E+02  0.28168688422E+02  0.00000000000E+00 0. -1.
</event>
<event>
 7    1  0.3597718E-013  0.7246158E+02  0.7816164E-02  0.1226708E+00
        -11   -1    0    0    0    0  0.00000000000E+00  0.00000000000E+00  0.45593999997E+02  0.45594000000E+02  0.51100000000E-03 0.  1.
         11   -1    0    0    0    0 -0.00000000000E+00 -0.00000000000E+00 -0.45593999997E+02  0.45594000000E+02  0.51100000000E-03 0. -1.
    9900012    2    1    2    0    0  0.10943844981E+01  0.86443286313E+01  0.16575791341E+02  0.72461576062E+02  0.70000007513E+02 0.  0.
         12    1    1    2    0    0 -0.10943844981E+01 -0.86443286313E+01 -0.16575791341E+02  0.18726423938E+02  0.00000000000E+00 0. -1.
         11    1    3    3    0    0  0.51795765868E+01 -0.84810811846E+01 -0.12585855092E+02  0.16036224628E+02  0.51100000000E-03 0. -1.
        -11    1    3    3    0    0  0.15048926797E+02 -0.11631578601E+01 -0.23463981856E+01  0.15275101265E+02  0.51100000000E-03 0.  1.
        -12    1    3    3    0    0 -0.19134118886E+02  0.18288567676E+02  0.31508044619E+02  0.41150250168E+02  0.00000000000E+00 0.  1.
</event>
<event>
 7    1  0.3597718E-013  0.7246226E+02  0.7816164E-02  0.1226706E+00
        -11   -1    0    0    0    0  0.00000000000E+00  0.00000000000E+00  0.45593999997E+02  0.45594000000E+02  0.51100000000E-03 0. -1.
         11   -1    0    0    0    0 -0.00000000000E+00 -0.00000000000E+00 -0.45593999997E+02  0.45594000000E+02  0.51100000000E-03 0.  1.
    9900012    2    1    2    0    0  0.21917063155E+01 -0.98061149354E+01 -0.15801581226E+02  0.72462257400E+02  0.70000895077E+02 0.  0.
         12    1    1    2    0    0 -0.21917063155E+01  0.98061149354E+01  0.15801581226E+02  0.18725742600E+02  0.00000000000E+00 0. -1.
         11    1    3    3    0    0 -0.18536370203E+02 -0.11498567711E+02  0.13297261920E+02  0.25546648597E+02  0.51100000000E-03 0. -1.
        -11    1    3    3    0    0 -0.78370210606E+00  0.84217905314E+01  0.18213573982E+01  0.86520568525E+01  0.51100000000E-03 0.  1.
        -12    1    3    3    0    0  0.21511778624E+02 -0.67293377558E+01 -0.30920200544E+02  0.38263551951E+02  0.00000000000E+00 0.  1.
</event>
<event>
 7    1  0.3597718E-013  0.7246162E+02  0.7816164E-02  0.1226708E+00
        -11   -1    0    0    0    0  0.00000000000E+00  0.00000000000E+00  0.45593999997E+02  0.45594000000E+02  0.51100000000E-03 0.  1.
         11   -1    0    0    0    0 -0.00000000000E+00 -0.00000000000E+00 -0.45593999997E+02  0.45594000000E+02  0.51100000000E-03 0. -1.
    9900012    2    1    2    0    0 -0.17116471503E+02  0.53224639095E+01 -0.54198951241E+01  0.72461615353E+02  0.70000058698E+02 0.  0.
         12    1    1    2    0    0  0.17116471503E+02 -0.53224639095E+01  0.54198951241E+01  0.18726384647E+02  0.00000000000E+00 0. -1.
         11    1    3    3    0    0  0.12366488578E+02 -0.76131486415E+00 -0.22498320448E+02  0.25684315512E+02  0.51100000000E-03 0. -1.
        -11    1    3    3    0    0 -0.16666605184E+02  0.13038239346E+02 -0.36102115223E+01  0.21466370002E+02  0.51100000000E-03 0.  1.
        -12    1    3    3    0    0 -0.12816354898E+02 -0.69544605722E+01  0.20688636846E+02  0.25310929838E+02  0.00000000000E+00 0.  1.
</event>
<event>
 7    1  0.5868757E-013  0.7246156E+02  0.7816164E-02  0.1226708E+00
        -11   -1    0    0    0    0  0.00000000000E+00  0.00000000000E+00  0.45593999997E+02  0.45594000000E+02  0.51100000000E-03 0. -1.
         11   -1    0    0    0    0 -0.00000000000E+00 -0.00000000000E+00 -0.45593999997E+02  0.45594000000E+02  0.51100000000E-03 0.  1.
    9900012    2    1    2    0    0  0.62123753994E+01 -0.91432087531E+01 -0.15115805778E+02  0.72461562572E+02  0.69999989941E+02 0.  0.
         12    1    1    2    0    0 -0.62123753994E+01  0.91432087531E+01  0.15115805778E+02  0.18726437428E+02  0.00000000000E+00 0. -1.
         11    1    3    3    0    0  0.15600556220E+01  0.83313964532E+01 -0.12021341307E+02  0.14709132792E+02  0.51100000000E-03 0. -1.
        -11    1    3    3    0    0  0.17870482555E+02 -0.12760886408E+02 -0.24027774973E+02  0.32550396912E+02  0.51100000000E-03 0.  1.
         12    1    3    3    0    0 -0.13218162778E+02 -0.47137187979E+01  0.20933310502E+02  0.25202032869E+02  0.00000000000E+00 0. -1.
</event>
<event>
 7    1  0.3597718E-013  0.7246156E+02  0.7816164E-02  0.1226708E+00
        -11   -1    0    0    0    0  0.00000000000E+00  0.00000000000E+00  0.45593999997E+02  0.45594000000E+02  0.51100000000E-03 0.  1.
         11   -1    0    0    0    0 -0.00000000000E+00 -0.00000000000E+00 -0.45593999997E+02  0.45594000000E+02  0.51100000000E-03 0. -1.
    9900012    2    1    2    0    0 -0.14304521429E+02  0.10282162922E+02  0.63511658248E+01  0.72461561070E+02  0.69999987984E+02 0.  0.
         12    1    1    2    0    0  0.14304521429E+02 -0.10282162922E+02 -0.63511658248E+01  0.18726438930E+02  0.00000000000E+00 0. -1.
         11    1    3    3    0    0  0.82903349223E+01 -0.23999612207E+01 -0.12615769381E+02  0.15285519432E+02  0.51100000000E-03 0. -1.
        -11    1    3    3    0    0  0.18889141902E+01  0.57270658047E+01 -0.14165554950E+02  0.15395786010E+02  0.51100000000E-03 0.  1.
        -12    1    3    3    0    0 -0.24483770542E+02  0.69550583376E+01  0.33132490156E+02  0.41780255628E+02  0.00000000000E+00 0.  1.
</event>
<event>
 7    1  0.3597718E-013  0.7246160E+02  0.7816164E-02  0.1226708E+00
        -11   -1    0    0    0    0  0.00000000000E+00  0.00000000000E+00  0.45593999997E+02  0.45594000000E+02  0.51100000000E-03 0.  1.
         11   -1    0    0    0    0 -0.00000000000E+00 -0.00000000000E+00 -0.45593999997E+02  0.45594000000E+02  0.51100000000E-03 0. -1.
    9900012    2    1    2    0    0  0.14955084256E+02  0.10237942972E+02  0.47125301748E+01  0.72461602534E+02  0.70000041999E+02 0.  0.
         12    1    1    2    0    0 -0.14955084256E+02 -0.10237942972E+02 -0.47125301748E+01  0.18726397466E+02  0.00000000000E+00 0. -1.
         11    1    3    3    0    0  0.18947281121E+02 -0.12078458749E+02 -0.52274983090E+00  0.22475806889E+02  0.51100000000E-03 0. -1.
        -11    1    3    3    0    0 -0.19103985294E+02 -0.36046106571E+01  0.45845516809E+01  0.19974323180E+02  0.51100000000E-03 0.  1.
         12    1    3    3    0    0  0.15111788429E+02  0.25921012378E+02  0.65072832480E+00  0.30011472466E+02  0.00000000000E+00 0. -1.
</event>
<event>
 7    1  0.3597718E-013  0.7246156E+02  0.7816164E-02  0.1226708E+00
        -11   -1    0    0    0    0  0.00000000000E+00  0.00000000000E+00  0.45593999997E+02  0.45594000000E+02  0.51100000000E-03 0. -1.
         11   -1    0    0    0    0 -0.00000000000E+00 -0.00000000000E+00 -0.45593999997E+02  0.45594000000E+02  0.51100000000E-03 0.  1.
    9900012    2    1    2    0    0 -0.46115893083E+01 -0.12520112762E+02 -0.13139995268E+02  0.72461562667E+02  0.69999990064E+02 0.  0.
         12    1    1    2    0    0  0.46115893083E+01  0.12520112762E+02  0.13139995268E+02  0.18726437333E+02  0.00000000000E+00 0. -1.
         11    1    3    3    0    0 -0.36542121650E+01 -0.23884641067E+02 -0.24303386651E+02  0.34270744789E+02  0.51100000000E-03 0. -1.
        -11    1    3    3    0    0 -0.14878382456E+02 -0.20186801711E+01 -0.15135981004E+01  0.15090802285E+02  0.51100000000E-03 0.  1.
         12    1    3    3    0    0  0.13921005313E+02  0.13383208476E+02  0.12676989483E+02  0.23100015593E+02  0.00000000000E+00 0. -1.
</event>
<event>
 7    1  0.3597718E-013  0.7246160E+02  0.7816164E-02  0.1226708E+00
        -11   -1    0    0    0    0  0.00000000000E+00  0.00000000000E+00  0.45593999997E+02  0.45594000000E+02  0.51100000000E-03 0.  1.
         11   -1    0    0    0    0 -0.00000000000E+00 -0.00000000000E+00 -0.45593999997E+02  0.45594000000E+02  0.51100000000E-03 0. -1.
    9900012    2    1    2    0    0 -0.10664037786E+02 -0.45209075521E+01 -0.14714537006E+02  0.72461604023E+02  0.70000043937E+02 0.  0.
         12    1    1    2    0    0  0.10664037786E+02  0.45209075521E+01  0.14714537006E+02  0.18726395977E+02  0.00000000000E+00 0. -1.
         11    1    3    3    0    0 -0.94350060931E+01 -0.17282661476E+02 -0.12569787131E+02  0.23360421153E+02  0.51100000000E-03 0. -1.
        -11    1    3    3    0    0 -0.17779644841E+01 -0.41105744020E+01 -0.22337203359E+02  0.22781760990E+02  0.51100000000E-03 0.  1.
        -12    1    3    3    0    0  0.54893279149E+00  0.16872328326E+02  0.20192453484E+02  0.26319421879E+02  0.00000000000E+00 0.  1.
</event>
<event>
 7    1  0.3597718E-013  0.7246154E+02  0.7816164E-02  0.1226708E+00
        -11   -1    0    0    0    0  0.00000000000E+00  0.00000000000E+00  0.45593999997E+02  0.45594000000E+02  0.51100000000E-03 0. -1.
         11   -1    0    0    0    0 -0.00000000000E+00 -0.00000000000E+00 -0.45593999997E+02  0.45594000000E+02  0.51100000000E-03 0.  1.
    9900012    2    1    2    0    0  0.14079665326E+02 -0.11353757176E+02  0.48513319738E+01  0.72461542790E+02  0.69999964170E+02 0.  0.
         12    1    1    2    0    0 -0.14079665326E+02  0.11353757176E+02 -0.48513319738E+01  0.18726457210E+02  0.00000000000E+00 0. -1.
         11    1    3    3    0    0 -0.17651738879E+02 -0.56555314304E+01 -0.18974245251E+02  0.26525288016E+02  0.51100000000E-03 0. -1.
        -11    1    3    3    0    0  0.12271128494E+00 -0.75720230937E+01  0.54020316663E+01  0.93022867176E+01  0.51100000000E-03 0.  1.
        -12    1    3    3    0    0  0.31608692921E+02  0.18737973476E+01  0.18423545558E+02  0.36633968057E+02  0.00000000000E+00 0.  1.
</event>
<event>
 7    1  0.3597718E-013  0.7246159E+02  0.7816164E-02  0.1226708E+00
        -11   -1    0    0    0    0  0.00000000000E+00  0.00000000000E+00  0.45593999997E+02  0.45594000000E+02  0.51100000000E-03 0. -1.
         11   -1    0    0    0    0 -0.00000000000E+00 -0.00000000000E+00 -0.45593999997E+02  0.45594000000E+02  0.51100000000E-03 0.  1.
    9900012    2    1    2    0    0  0.14927053122E+02 -0.71694983804E+01 -0.87441272230E+01  0.72461591299E+02  0.70000027362E+02 0.  0.
         12    1    1    2    0    0 -0.14927053122E+02  0.71694983804E+01  0.87441272230E+01  0.18726408701E+02  0.00000000000E+00 0. -1.
         11    1    3    3    0    0  0.17602178716E+02 -0.15172758767E+02  0.30340075474E+01  0.23436179429E+02  0.51100000000E-03 0. -1.
        -11    1    3    3    0    0 -0.88388664277E+01 -0.12685492878E+02  0.99583190006E+01  0.18390633672E+02  0.51100000000E-03 0.  1.
        -12    1    3    3    0    0  0.61637408337E+01  0.20688753264E+02 -0.21736453771E+02  0.30634778198E+02  0.00000000000E+00 0.  1.
</event>
<event>
 7    1  0.3597718E-013  0.7246151E+02  0.7816164E-02  0.1226708E+00
        -11   -1    0    0    0    0  0.00000000000E+00  0.00000000000E+00  0.45593999997E+02  0.45594000000E+02  0.51100000000E-03 0. -1.
         11   -1    0    0    0    0 -0.00000000000E+00 -0.00000000000E+00 -0.45593999997E+02  0.45594000000E+02  0.51100000000E-03 0.  1.
    9900012    2    1    2    0    0  0.13055358127E+02 -0.11841894296E+02 -0.63252233392E+01  0.72461513767E+02  0.69999926362E+02 0.  0.
         12    1    1    2    0    0 -0.13055358127E+02  0.11841894296E+02  0.63252233392E+01  0.18726486233E+02  0.00000000000E+00 0. -1.
         11    1    3    3    0    0 -0.41506054283E+01 -0.33255913677E+02  0.41686615496E+01  0.33772193581E+02  0.51100000000E-03 0. -1.
        -11    1    3    3    0    0  0.31338258056E+01  0.89895673160E+01 -0.16440382470E+02  0.18997877795E+02  0.51100000000E-03 0.  1.
        -12    1    3    3    0    0  0.14072137750E+02  0.12424452064E+02  0.59464975808E+01  0.19691442391E+02  0.00000000000E+00 0.  1.
</event>
<event>
 7    1  0.3597718E-013  0.7246161E+02  0.7816164E-02  0.1226708E+00
        -11   -1    0    0    0    0  0.00000000000E+00  0.00000000000E+00  0.45593999997E+02  0.45594000000E+02  0.51100000000E-03 0.  1.
         11   -1    0    0    0    0 -0.00000000000E+00 -0.00000000000E+00 -0.45593999997E+02  0.45594000000E+02  0.51100000000E-03 0. -1.
    9900012    2    1    2    0    0  0.61148162204E+01  0.16013220367E+02  0.75407931965E+01  0.72461607770E+02  0.70000048818E+02 0.  0.
         12    1    1    2    0    0 -0.61148162204E+01 -0.16013220367E+02 -0.75407931965E+01  0.18726392230E+02  0.00000000000E+00 0. -1.
         11    1    3    3    0    0  0.27309413683E+01 -0.20435645023E+02  0.15289794653E+01  0.20673930607E+02  0.51100000000E-03 0. -1.
        -11    1    3    3    0    0 -0.42580287277E+01 -0.41618482702E+01 -0.63006805230E+01  0.86689310174E+01  0.51100000000E-03 0.  1.
        -12    1    3    3    0    0  0.76419035799E+01  0.40610713661E+02  0.12312494254E+02  0.43118746145E+02  0.00000000000E+00 0.  1.
</event>
<event>
 7    1  0.3597718E-013  0.7246157E+02  0.7816164E-02  0.1226708E+00
        -11   -1    0    0    0    0  0.00000000000E+00  0.00000000000E+00  0.45593999997E+02  0.45594000000E+02  0.51100000000E-03 0.  1.
         11   -1    0    0    0    0 -0.00000000000E+00 -0.00000000000E+00 -0.45593999997E+02  0.45594000000E+02  0.51100000000E-03 0. -1.
    9900012    2    1    2    0    0  0.13253170445E+02  0.11410306118E+02  0.66960911778E+01  0.72461568156E+02  0.69999997214E+02 0.  0.
         12    1    1    2    0    0 -0.13253170445E+02 -0.11410306118E+02 -0.66960911778E+01  0.18726431844E+02  0.00000000000E+00 0. -1.
         11    1    3    3    0    0 -0.34015165245E+01  0.45551789836E+01  0.13235886226E+02  0.14405160696E+02  0.51100000000E-03 0. -1.
        -11    1    3    3    0    0  0.28019139297E+02  0.13538751169E+02  0.13619621897E+02  0.33968574463E+02  0.51100000000E-03 0.  1.
         12    1    3    3    0    0 -0.11364452328E+02 -0.66836240342E+01 -0.20159416945E+02  0.24087832997E+02  0.00000000000E+00 0. -1.
</event>
<event>
 7    1  0.6972552E-013  0.7246157E+02  0.7816164E-02  0.1226708E+00
        -11   -1    0    0    0    0  0.00000000000E+00  0.00000000000E+00  0.45593999997E+02  0.45594000000E+02  0.51100000000E-03 0. -1.
         11   -1    0    0    0    0 -0.00000000000E+00 -0.00000000000E+00 -0.45593999997E+02  0.45594000000E+02  0.51100000000E-03 0.  1.
    9900012    2    1    2    0    0 -0.34597695762E+01  0.16864586464E+02 -0.73685170096E+01  0.72461566142E+02  0.69999994591E+02 0.  0.
         12    1    1    2    0    0  0.34597695762E+01 -0.16864586464E+02  0.73685170096E+01  0.18726433858E+02  0.00000000000E+00 0. -1.
         11    1    3    3    0    0 -0.85780493094E+01  0.16425360699E+01 -0.76308831550E+01  0.11597897770E+02  0.51100000000E-03 0. -1.
        -11    1    3    3    0    0  0.13972881160E+01  0.26669194832E+02 -0.22626883040E+02  0.35002488532E+02  0.51100000000E-03 0.  1.
         12    1    3    3    0    0  0.37209916172E+01 -0.11447144438E+02  0.22889249186E+02  0.25861179839E+02  0.00000000000E+00 0. -1.
</event>
<event>
 7    1  0.3597718E-013  0.7246173E+02  0.7816164E-02  0.1226708E+00
        -11   -1    0    0    0    0  0.00000000000E+00  0.00000000000E+00  0.45593999997E+02  0.45594000000E+02  0.51100000000E-03 0.  1.
         11   -1    0    0    0    0 -0.00000000000E+00 -0.00000000000E+00 -0.45593999997E+02  0.45594000000E+02  0.51100000000E-03 0. -1.
    9900012    2    1    2    0    0  0.97258098389E-01  0.18221277746E+02  0.43184102535E+01  0.72461732647E+02  0.70000211494E+02 0.  0.
         12    1    1    2    0    0 -0.97258098389E-01 -0.18221277746E+02 -0.43184102535E+01  0.18726267353E+02  0.00000000000E+00 0. -1.
         11    1    3    3    0    0 -0.10562056955E+02 -0.18616378681E+00 -0.20013889938E+02  0.22630675968E+02  0.51100000000E-03 0. -1.
        -11    1    3    3    0    0  0.12195353969E+02 -0.95461686326E+01  0.83682034087E+01  0.17603488931E+02  0.51100000000E-03 0.  1.
        -12    1    3    3    0    0 -0.15360389156E+01  0.27953610166E+02  0.15964096783E+02  0.32227567748E+02  0.00000000000E+00 0.  1.
</event>
<event>
 7    1  0.3597718E-013  0.7246154E+02  0.7816164E-02  0.1226708E+00
        -11   -1    0    0    0    0  0.00000000000E+00  0.00000000000E+00  0.45593999997E+02  0.45594000000E+02  0.51100000000E-03 0. -1.
         11   -1    0    0    0    0 -0.00000000000E+00 -0.00000000000E+00 -0.45593999997E+02  0.45594000000E+02  0.51100000000E-03 0.  1.
    9900012    2    1    2    0    0 -0.11427336385E+02 -0.14803637605E+02  0.97386815687E+00  0.72461544853E+02  0.69999966857E+02 0.  0.
         12    1    1    2    0    0  0.11427336385E+02  0.14803637605E+02 -0.97386815687E+00  0.18726455147E+02  0.00000000000E+00 0. -1.
         11    1    3    3    0    0 -0.16805543497E+02  0.11034357825E+02  0.24759724503E+02  0.31894001044E+02  0.51100000000E-03 0. -1.
        -11    1    3    3    0    0  0.26776535082E+01  0.27653797675E+01 -0.12312108172E+01  0.40414148396E+01  0.51100000000E-03 0.  1.
        -12    1    3    3    0    0  0.27005536041E+01 -0.28603375198E+02 -0.22554645529E+02  0.36526128969E+02  0.00000000000E+00 0.  1.
</event>
<event>
 7    1  0.3597718E-013  0.7246155E+02  0.7816164E-02  0.1226708E+00
        -11   -1    0    0    0    0  0.00000000000E+00  0.00000000000E+00  0.45593999997E+02  0.45594000000E+02  0.51100000000E-03 0. -1.
         11   -1    0    0    0    0 -0.00000000000E+00 -0.00000000000E+00 -0.45593999997E+02  0.45594000000E+02  0.51100000000E-03 0.  1.
    9900012    2    1    2    0    0  0.17581107800E+01  0.10950494709E+02 -0.15088921468E+02  0.72461552420E+02  0.69999976716E+02 0.  0.
         12    1    1    2    0    0 -0.17581107800E+01 -0.10950494709E+02  0.15088921468E+02  0.18726447580E+02  0.00000000000E+00 0. -1.
         11    1    3    3    0    0 -0.33486194309E+01  0.18656918451E+02  0.14391306613E+02  0.23799234536E+02  0.51100000000E-03 0. -1.
        -11    1    3    3    0    0  0.11150858898E+02  0.12278699782E+02 -0.19254992331E+02  0.25413831912E+02  0.51100000000E-03 0.  1.
        -12    1    3    3    0    0 -0.60441286872E+01 -0.19985123524E+02 -0.10225235750E+02  0.23248485973E+02  0.00000000000E+00 0.  1.
</event>
<event>
 7    1  0.3597718E-013  0.7246156E+02  0.7816164E-02  0.1226708E+00
        -11   -1    0    0    0    0  0.00000000000E+00  0.00000000000E+00  0.45593999997E+02  0.45594000000E+02  0.51100000000E-03 0.  1.
         11   -1    0    0    0    0 -0.00000000000E+00 -0.00000000000E+00 -0.45593999997E+02  0.45594000000E+02  0.51100000000E-03 0. -1.
    9900012    2    1    2    0    0  0.18119086103E+01 -0.72849888634E+01 -0.17155912088E+02  0.72461564271E+02  0.69999992153E+02 0.  0.
         12    1    1    2    0    0 -0.18119086103E+01  0.72849888634E+01  0.17155912088E+02  0.18726435729E+02  0.00000000000E+00 0. -1.
         11    1    3    3    0    0  0.77856840955E+01  0.13951004382E+01  0.38433159635E+00  0.79190209688E+01  0.51100000000E-03 0. -1.
        -11    1    3    3    0    0 -0.43840803419E+01 -0.30446311951E+02  0.71593326923E+01  0.31582496999E+02  0.51100000000E-03 0.  1.
         12    1    3    3    0    0 -0.15896951433E+01  0.21766222649E+02 -0.24699576377E+02  0.32960046302E+02  0.00000000000E+00 0. -1.
</event>
<event>
 7    1  0.3597718E-013  0.7246157E+02  0.7816164E-02  0.1226708E+00
        -11   -1    0    0    0    0  0.00000000000E+00  0.00000000000E+00  0.45593999997E+02  0.45594000000E+02  0.51100000000E-03 0. -1.
         11   -1    0    0    0    0 -0.00000000000E+00 -0.00000000000E+00 -0.45593999997E+02  0.45594000000E+02  0.51100000000E-03 0.  1.
    9900012    2    1    2    0    0  0.61343095494E+01  0.17370792234E+02 -0.33623042878E+01  0.72461567702E+02  0.69999996624E+02 0.  0.
         12    1    1    2    0    0 -0.61343095494E+01 -0.17370792234E+02  0.33623042878E+01  0.18726432298E+02  0.00000000000E+00 0. -1.
         11    1    3    3    0    0  0.13821296087E+02 -0.51345989022E+01  0.23635479863E+02  0.27857283429E+02  0.51100000000E-03 0. -1.
        -11    1    3    3    0    0  0.76204638499E+01  0.14211775130E+00 -0.10152501131E+02  0.12695075668E+02  0.51100000000E-03 0.  1.
        -12    1    3    3    0    0 -0.15307450387E+02  0.22363273385E+02 -0.16845283019E+02  0.31909208606E+02  0.00000000000E+00 0.  1.
</event>
<event>
 7    1  0.3597718E-013  0.7246155E+02  0.7816164E-02  0.1226708E+00
        -11   -1    0    0    0    0  0.00000000000E+00  0.00000000000E+00  0.45593999997E+02  0.45594000000E+02  0.51100000000E-03 0. -1.
         11   -1    0    0    0    0 -0.00000000000E+00 -0.00000000000E+00 -0.45593999997E+02  0.45594000000E+02  0.51100000000E-03 0.  1.
    9900012    2    1    2    0    0  0.10392568328E+02 -0.15325902653E+02  0.27912399359E+01  0.72461553755E+02  0.69999978455E+02 0.  0.
         12    1    1    2    0    0 -0.10392568328E+02  0.15325902653E+02 -0.27912399359E+01  0.18726446245E+02  0.00000000000E+00 0. -1.
         11    1    3    3    0    0  0.22023917817E+02 -0.11218292907E+02  0.13507303953E+02  0.28166474968E+02  0.51100000000E-03 0. -1.
        -11    1    3    3    0    0  0.67749352301E+01  0.99861106439E+01  0.80187858992E+01  0.14488722536E+02  0.51100000000E-03 0.  1.
        -12    1    3    3    0    0 -0.18406284720E+02 -0.14093720390E+02 -0.18734849916E+02  0.29806356252E+02  0.00000000000E+00 0.  1.
</event>
<event>
 7    1  0.3597718E-013  0.7246165E+02  0.7816164E-02  0.1226708E+00
        -11   -1    0    0    0    0  0.00000000000E+00  0.00000000000E+00  0.45593999997E+02  0.45594000000E+02  0.51100000000E-03 0. -1.
         11   -1    0    0    0    0 -0.00000000000E+00 -0.00000000000E+00 -0.45593999997E+02  0.45594000000E+02  0.51100000000E-03 0.  1.
    9900012    2    1    2    0    0 -0.57815102879E+01 -0.17597181907E+02 -0.27548802286E+01  0.72461653924E+02  0.70000108943E+02 0.  0.
         12    1    1    2    0    0  0.57815102879E+01  0.17597181907E+02  0.27548802286E+01  0.18726346076E+02  0.00000000000E+00 0. -1.
         11    1    3    3    0    0 -0.13772786740E+02 -0.20502192636E+02  0.17379165364E+02  0.30200413018E+02  0.51100000000E-03 0. -1.
        -11    1    3    3    0    0 -0.54198828956E+01 -0.91928512774E+01  0.46114481914E+01  0.11625364506E+02  0.51100000000E-03 0.  1.
        -12    1    3    3    0    0  0.13411159348E+02  0.12097862006E+02 -0.24745493784E+02  0.30635876400E+02  0.00000000000E+00 0.  1.
</event>
<event>
 7    1  0.3597718E-013  0.7246159E+02  0.7816164E-02  0.1226708E+00
        -11   -1    0    0    0    0  0.00000000000E+00  0.00000000000E+00  0.45593999997E+02  0.45594000000E+02  0.51100000000E-03 0. -1.
         11   -1    0    0    0    0 -0.00000000000E+00 -0.00000000000E+00 -0.45593999997E+02  0.45594000000E+02  0.51100000000E-03 0.  1.
    9900012    2    1    2    0    0 -0.81194392629E+01  0.16519413177E+02  0.34441340309E+01  0.72461591779E+02  0.70000027987E+02 0.  0.
         12    1    1    2    0    0  0.81194392629E+01 -0.16519413177E+02 -0.34441340309E+01  0.18726408221E+02  0.00000000000E+00 0. -1.
         11    1    3    3    0    0 -0.15723733757E+02  0.80241560634E+01  0.87441992798E+01  0.19699845306E+02  0.51100000000E-03 0. -1.
        -11    1    3    3    0    0  0.27739520344E+01  0.54633624724E+01 -0.28356255412E+02  0.29010693902E+02  0.51100000000E-03 0.  1.
         12    1    3    3    0    0  0.48303424596E+01  0.30318946409E+01  0.23056190163E+02  0.23751052571E+02  0.00000000000E+00 0. -1.
</event>
<event>
 7    1  0.3597718E-013  0.7246162E+02  0.7816164E-02  0.1226708E+00
        -11   -1    0    0    0    0  0.00000000000E+00  0.00000000000E+00  0.45593999997E+02  0.45594000000E+02  0.51100000000E-03 0.  1.
         11   -1    0    0    0    0 -0.00000000000E+00 -0.00000000000E+00 -0.45593999997E+02  0.45594000000E+02  0.51100000000E-03 0. -1.
    9900012    2    1    2    0    0 -0.10771091681E+02 -0.64454726475E+01  0.13896641484E+02  0.72461623464E+02  0.70000069263E+02 0.  0.
         12    1    1    2    0    0  0.10771091681E+02  0.64454726475E+01 -0.13896641484E+02  0.18726376536E+02  0.00000000000E+00 0. -1.
         11    1    3    3    0    0 -0.69418544788E+01 -0.16279011595E+01 -0.76010374232E+01  0.10421860485E+02  0.51100000000E-03 0. -1.
        -11    1    3    3    0    0 -0.30127491658E+02 -0.86765607899E+01  0.14568622447E+02  0.34571566655E+02  0.51100000000E-03 0.  1.
         12    1    3    3    0    0  0.26298254456E+02  0.38589893019E+01  0.69290564601E+01  0.27468196324E+02  0.00000000000E+00 0. -1.
</event>
<event>
 7    1  0.3597718E-013  0.7246158E+02  0.7816164E-02  0.1226708E+00
        -11   -1    0    0    0    0  0.00000000000E+00  0.00000000000E+00  0.45593999997E+02  0.45594000000E+02  0.51100000000E-03 0.  1.
         11   -1    0    0    0    0 -0.00000000000E+00 -0.00000000000E+00 -0.45593999997E+02  0.45594000000E+02  0.51100000000E-03 0. -1.
    9900012    2    1    2    0    0  0.14460645203E+02  0.41823966045E+01  0.11138952026E+02  0.72461576068E+02  0.70000007521E+02 0.  0.
         12    1    1    2    0    0 -0.14460645203E+02 -0.41823966045E+01 -0.11138952026E+02  0.18726423932E+02  0.00000000000E+00 0. -1.
         11    1    3    3    0    0 -0.40333950242E+01  0.12080897343E+01 -0.97737023362E+01  0.10642039929E+02  0.51100000000E-03 0. -1.
        -11    1    3    3    0    0  0.35677001812E+02  0.10020086629E+01  0.13628712795E+01  0.35717081320E+02  0.51100000000E-03 0.  1.
         12    1    3    3    0    0 -0.17182961584E+02  0.19722982073E+01  0.19549783083E+02  0.26102454819E+02  0.00000000000E+00 0. -1.
</event>
<event>
 7    1  0.3597718E-013  0.7246161E+02  0.7816164E-02  0.1226708E+00
        -11   -1    0    0    0    0  0.00000000000E+00  0.00000000000E+00  0.45593999997E+02  0.45594000000E+02  0.51100000000E-03 0. -1.
         11   -1    0    0    0    0 -0.00000000000E+00 -0.00000000000E+00 -0.45593999997E+02  0.45594000000E+02  0.51100000000E-03 0.  1.
    9900012    2    1    2    0    0 -0.12183203304E+02  0.48607838081E+01  0.13364882577E+02  0.72461608242E+02  0.70000049434E+02 0.  0.
         12    1    1    2    0    0  0.12183203304E+02 -0.48607838081E+01 -0.13364882577E+02  0.18726391758E+02  0.00000000000E+00 0. -1.
         11    1    3    3    0    0 -0.12565711947E+02  0.28815334823E+02  0.10272710462E+01  0.31452757014E+02  0.51100000000E-03 0.  1.
        -11    1    3    3    0    0  0.14602763288E+02 -0.12826549920E+02  0.54762364747E+00  0.19443790022E+02  0.51100000000E-03 0. -1.
        -12    1    3    3    0    0 -0.14220254645E+02 -0.11128001095E+02  0.11789987883E+02  0.21565061206E+02  0.00000000000E+00 0.  1.
</event>
<event>
 7    1  0.4485181E-013  0.7246167E+02  0.7816164E-02  0.1226708E+00
        -11   -1    0    0    0    0  0.00000000000E+00  0.00000000000E+00  0.45593999997E+02  0.45594000000E+02  0.51100000000E-03 0. -1.
         11   -1    0    0    0    0 -0.00000000000E+00 -0.00000000000E+00 -0.45593999997E+02  0.45594000000E+02  0.51100000000E-03 0.  1.
    9900012    2    1    2    0    0  0.18892155301E+01  0.71965133253E+01 -0.17184775069E+02  0.72461670046E+02  0.70000129945E+02 0.  0.
         12    1    1    2    0    0 -0.18892155301E+01 -0.71965133253E+01  0.17184775069E+02  0.18726329954E+02  0.00000000000E+00 0. -1.
         11    1    3    3    0    0  0.68176777011E+01  0.12042933288E+02 -0.20853750866E+02  0.25027822456E+02  0.51100000000E-03 0. -1.
        -11    1    3    3    0    0  0.86063054920E+01 -0.22709662286E+02 -0.18388334165E+01  0.24355257419E+02  0.51100000000E-03 0.  1.
         12    1    3    3    0    0 -0.13534767663E+02  0.17863242323E+02  0.55078092138E+01  0.23078590172E+02  0.00000000000E+00 0. -1.
</event>
<event>
 7    1  0.3597718E-013  0.7246153E+02  0.7816164E-02  0.1226708E+00
        -11   -1    0    0    0    0  0.00000000000E+00  0.00000000000E+00  0.45593999997E+02  0.45594000000E+02  0.51100000000E-03 0.  1.
         11   -1    0    0    0    0 -0.00000000000E+00 -0.00000000000E+00 -0.45593999997E+02  0.45594000000E+02  0.51100000000E-03 0. -1.
    9900012    2    1    2    0    0  0.85291745494E+01  0.12847933343E+02  0.10623767002E+02  0.72461531166E+02  0.69999949028E+02 0.  0.
         12    1    1    2    0    0 -0.85291745494E+01 -0.12847933343E+02 -0.10623767002E+02  0.18726468834E+02  0.00000000000E+00 0. -1.
         11    1    3    3    0    0  0.22751354520E+02  0.26946283815E+02  0.21525354136E+01  0.35332134848E+02  0.51100000000E-03 0. -1.
        -11    1    3    3    0    0 -0.14685745130E+01 -0.73028398401E+01 -0.10751923307E+02  0.13080215438E+02  0.51100000000E-03 0.  1.
        -12    1    3    3    0    0 -0.12753605457E+02 -0.67955106325E+01  0.19223154895E+02  0.24049180881E+02  0.00000000000E+00 0.  1.
</event>
<event>
 7    1  0.3597718E-013  0.7246154E+02  0.7816164E-02  0.1226708E+00
        -11   -1    0    0    0    0  0.00000000000E+00  0.00000000000E+00  0.45593999997E+02  0.45594000000E+02  0.51100000000E-03 0.  1.
         11   -1    0    0    0    0 -0.00000000000E+00 -0.00000000000E+00 -0.45593999997E+02  0.45594000000E+02  0.51100000000E-03 0. -1.
    9900012    2    1    2    0    0  0.11682817990E+02  0.22636964926E+01  0.14459170581E+02  0.72461543531E+02  0.69999965136E+02 0.  0.
         12    1    1    2    0    0 -0.11682817990E+02 -0.22636964926E+01 -0.14459170581E+02  0.18726456469E+02  0.00000000000E+00 0. -1.
         11    1    3    3    0    0 -0.14677633108E+02 -0.11294483370E+02  0.28853458589E+02  0.34285862116E+02  0.51100000000E-03 0. -1.
        -11    1    3    3    0    0  0.15198146038E+02  0.16123567727E+02 -0.36203037234E+01  0.22451273428E+02  0.51100000000E-03 0.  1.
        -12    1    3    3    0    0  0.11162305060E+02 -0.25653878647E+01 -0.10773984285E+02  0.15724407986E+02  0.00000000000E+00 0.  1.
</event>
<event>
 7    1  0.3597718E-013  0.7246152E+02  0.7816164E-02  0.1226708E+00
        -11   -1    0    0    0    0  0.00000000000E+00  0.00000000000E+00  0.45593999997E+02  0.45594000000E+02  0.51100000000E-03 0.  1.
         11   -1    0    0    0    0 -0.00000000000E+00 -0.00000000000E+00 -0.45593999997E+02  0.45594000000E+02  0.51100000000E-03 0. -1.
    9900012    2    1    2    0    0 -0.15977353000E+02  0.46137272477E-01 -0.97674606461E+01  0.72461515413E+02  0.69999928506E+02 0.  0.
         12    1    1    2    0    0  0.15977353000E+02 -0.46137272477E-01  0.97674606461E+01  0.18726484587E+02  0.00000000000E+00 0. -1.
         11    1    3    3    0    0  0.16266320994E+02 -0.13125498140E+02 -0.72601668924E+01  0.22126498225E+02  0.51100000000E-03 0. -1.
        -11    1    3    3    0    0  0.72055002396E+01  0.11636753109E+01 -0.52757502805E+01  0.90059377755E+01  0.51100000000E-03 0.  1.
        -12    1    3    3    0    0 -0.39449174234E+02  0.12007960102E+02  0.27684565268E+01  0.41329079412E+02  0.00000000000E+00 0.  1.
</event>
<event>
 7    1  0.3597718E-013  0.7246160E+02  0.7816164E-02  0.1226708E+00
        -11   -1    0    0    0    0  0.00000000000E+00  0.00000000000E+00  0.45593999997E+02  0.45594000000E+02  0.51100000000E-03 0. -1.
         11   -1    0    0    0    0 -0.00000000000E+00 -0.00000000000E+00 -0.45593999997E+02  0.45594000000E+02  0.51100000000E-03 0.  1.
    9900012    2    1    2    0    0  0.36910880546E+00 -0.16574094469E+02 -0.87086939455E+01  0.72461596207E+02  0.70000033756E+02 0.  0.
         12    1    1    2    0    0 -0.36910880546E+00  0.16574094469E+02  0.87086939455E+01  0.18726403793E+02  0.00000000000E+00 0. -1.
         11    1    3    3    0    0 -0.10833901613E+02 -0.17589004393E+02  0.25106397781E+02  0.32512731499E+02  0.51100000000E-03 0. -1.
        -11    1    3    3    0    0 -0.47181967434E+01 -0.16342624661E+01 -0.61727621183E+01  0.79394701805E+01  0.51100000000E-03 0.  1.
        -12    1    3    3    0    0  0.15921207162E+02  0.26491723900E+01 -0.27642329608E+02  0.32009394528E+02  0.00000000000E+00 0.  1.
</event>
<event>
 7    1  0.3597718E-013  0.7246162E+02  0.7816164E-02  0.1226708E+00
        -11   -1    0    0    0    0  0.00000000000E+00  0.00000000000E+00  0.45593999997E+02  0.45594000000E+02  0.51100000000E-03 0.  1.
         11   -1    0    0    0    0 -0.00000000000E+00 -0.00000000000E+00 -0.45593999997E+02  0.45594000000E+02  0.51100000000E-03 0. -1.
    9900012    2    1    2    0    0  0.35150488152E+01  0.72164741240E+01  0.16918759368E+02  0.72461615258E+02  0.70000058574E+02 0.  0.
         12    1    1    2    0    0 -0.35150488152E+01 -0.72164741240E+01 -0.16918759368E+02  0.18726384742E+02  0.00000000000E+00 0. -1.
         11    1    3    3    0    0 -0.19508020407E+01  0.12752031518E+02  0.60692353295E+01  0.14256772221E+02  0.51100000000E-03 0. -1.
        -11    1    3    3    0    0  0.86018055652E+01 -0.93756452813E+01  0.33072451785E+02  0.35435587349E+02  0.51100000000E-03 0.  1.
         12    1    3    3    0    0 -0.31359547093E+01  0.38400878877E+01 -0.22222927747E+02  0.22769255688E+02  0.00000000000E+00 0. -1.
</event>
<event>
 7    1  0.3597718E-013  0.7246130E+02  0.7816164E-02  0.1226709E+00
        -11   -1    0    0    0    0  0.00000000000E+00  0.00000000000E+00  0.45593999997E+02  0.45594000000E+02  0.51100000000E-03 0.  1.
         11   -1    0    0    0    0 -0.00000000000E+00 -0.00000000000E+00 -0.45593999997E+02  0.45594000000E+02  0.51100000000E-03 0. -1.
    9900012    2    1    2    0    0  0.46559361273E+00 -0.59892215925E+00  0.18711329676E+02  0.72461298651E+02  0.69999646133E+02 0.  0.
         12    1    1    2    0    0 -0.46559361273E+00  0.59892215925E+00 -0.18711329676E+02  0.18726701349E+02  0.00000000000E+00 0. -1.
         11    1    3    3    0    0  0.11429917560E+02  0.11382265689E+01 -0.17065153415E+02  0.20570805440E+02  0.51100000000E-03 0. -1.
        -11    1    3    3    0    0 -0.16291726121E+02 -0.68356013954E+01  0.25441599203E+01  0.17849888974E+02  0.51100000000E-03 0.  1.
         12    1    3    3    0    0  0.53274021739E+01  0.50984526672E+01  0.33232323170E+02  0.34040604237E+02  0.00000000000E+00 0. -1.
</event>
<event>
 7    1  0.3597718E-013  0.7246143E+02  0.7816164E-02  0.1226708E+00
        -11   -1    0    0    0    0  0.00000000000E+00  0.00000000000E+00  0.45593999997E+02  0.45594000000E+02  0.51100000000E-03 0.  1.
         11   -1    0    0    0    0 -0.00000000000E+00 -0.00000000000E+00 -0.45593999997E+02  0.45594000000E+02  0.51100000000E-03 0. -1.
    9900012    2    1    2    0    0  0.99840689834E+01  0.14643281833E+02  0.60479067732E+01  0.72461427632E+02  0.69999814156E+02 0.  0.
         12    1    1    2    0    0 -0.99840689834E+01 -0.14643281833E+02 -0.60479067732E+01  0.18726572368E+02  0.00000000000E+00 0. -1.
         11    1    3    3    0    0  0.45331919014E+01  0.18219720886E+02 -0.21481904820E+02  0.28530339867E+02  0.51100000000E-03 0. -1.
        -11    1    3    3    0    0  0.73355704960E+01  0.11161558473E+02  0.83803258723E+00  0.13382573778E+02  0.51100000000E-03 0.  1.
        -12    1    3    3    0    0 -0.18846934140E+01 -0.14737997525E+02  0.26691779006E+02  0.30548513987E+02  0.00000000000E+00 0.  1.
</event>
<event>
 7    1  0.3597718E-013  0.7246157E+02  0.7816164E-02  0.1226708E+00
        -11   -1    0    0    0    0  0.00000000000E+00  0.00000000000E+00  0.45593999997E+02  0.45594000000E+02  0.51100000000E-03 0. -1.
         11   -1    0    0    0    0 -0.00000000000E+00 -0.00000000000E+00 -0.45593999997E+02  0.45594000000E+02  0.51100000000E-03 0.  1.
    9900012    2    1    2    0    0  0.16761100006E+02  0.47671926651E+01 -0.68569969827E+01  0.72461574636E+02  0.70000005655E+02 0.  0.
         12    1    1    2    0    0 -0.16761100006E+02 -0.47671926651E+01  0.68569969827E+01  0.18726425364E+02  0.00000000000E+00 0. -1.
         11    1    3    3    0    0 -0.24662944139E+02 -0.96320270452E+01 -0.47606432100E+01  0.26901681781E+02  0.51100000000E-03 0. -1.
        -11    1    3    3    0    0  0.13644636480E+01  0.45918382059E+00 -0.27888356853E+01  0.31385053080E+01  0.51100000000E-03 0.  1.
        -12    1    3    3    0    0  0.40059580497E+02  0.13940035890E+02  0.69248191269E+00  0.42421387547E+02  0.00000000000E+00 0.  1.
</event>
<event>
 7    1  0.3597718E-013  0.7246160E+02  0.7816164E-02  0.1226708E+00
        -11   -1    0    0    0    0  0.00000000000E+00  0.00000000000E+00  0.45593999997E+02  0.45594000000E+02  0.51100000000E-03 0.  1.
         11   -1    0    0    0    0 -0.00000000000E+00 -0.00000000000E+00 -0.45593999997E+02  0.45594000000E+02  0.51100000000E-03 0. -1.
    9900012    2    1    2    0    0 -0.60218644527E+01 -0.17184441751E+02  0.43715371959E+01  0.72461595454E+02  0.70000032775E+02 0.  0.
         12    1    1    2    0    0  0.60218644527E+01  0.17184441751E+02 -0.43715371959E+01  0.18726404546E+02  0.00000000000E+00 0. -1.
         11    1    3    3    0    0  0.80951390564E+01  0.16530235487E+02  0.36833966728E+01  0.18770918275E+02  0.51100000000E-03 0. -1.
        -11    1    3    3    0    0 -0.58011609180E+01 -0.14644905185E+02  0.19895146168E+02  0.25376042977E+02  0.51100000000E-03 0.  1.
         12    1    3    3    0    0 -0.83158425911E+01 -0.19069772052E+02 -0.19207005644E+02  0.28314634201E+02  0.00000000000E+00 0. -1.
</event>
<event>
 7    1  0.3597718E-013  0.7246093E+02  0.7816164E-02  0.1226710E+00
        -11   -1    0    0    0    0  0.00000000000E+00  0.00000000000E+00  0.45593999997E+02  0.45594000000E+02  0.51100000000E-03 0.  1.
         11   -1    0    0    0    0 -0.00000000000E+00 -0.00000000000E+00 -0.45593999997E+02  0.45594000000E+02  0.51100000000E-03 0. -1.
    9900012    2    1    2    0    0  0.12048147433E+02  0.11673993662E+02  0.83224403497E+01  0.72460934081E+02  0.69999171209E+02 0.  0.
         12    1    1    2    0    0 -0.12048147433E+02 -0.11673993662E+02 -0.83224403497E+01  0.18727065919E+02  0.00000000000E+00 0. -1.
         11    1    3    3    0    0  0.57362797357E+01  0.11022516481E+02  0.15200012344E+02  0.19632655202E+02  0.51100000000E-03 0. -1.
        -11    1    3    3    0    0 -0.21404259309E+02 -0.48504005553E+01  0.44357228182E+01  0.22390719937E+02  0.51100000000E-03 0.  1.
         12    1    3    3    0    0  0.27716127006E+02  0.55018777363E+01 -0.11313294812E+02  0.30437558942E+02  0.00000000000E+00 0. -1.
</event>
<event>
 7    1  0.3597718E-013  0.7246157E+02  0.7816164E-02  0.1226708E+00
        -11   -1    0    0    0    0  0.00000000000E+00  0.00000000000E+00  0.45593999997E+02  0.45594000000E+02  0.51100000000E-03 0.  1.
         11   -1    0    0    0    0 -0.00000000000E+00 -0.00000000000E+00 -0.45593999997E+02  0.45594000000E+02  0.51100000000E-03 0. -1.
    9900012    2    1    2    0    0  0.70880536356E+01  0.17207718020E+02  0.20815929813E+01  0.72461572334E+02  0.70000002657E+02 0.  0.
         12    1    1    2    0    0 -0.70880536356E+01 -0.17207718020E+02 -0.20815929813E+01  0.18726427666E+02  0.00000000000E+00 0. -1.
         11    1    3    3    0    0  0.13202358105E+02  0.12817779432E+02 -0.25845648044E+02  0.31726885321E+02  0.51100000000E-03 0. -1.
        -11    1    3    3    0    0  0.30928639118E+01  0.39282157692E+01 -0.46806325139E+01  0.68487230415E+01  0.51100000000E-03 0.  1.
        -12    1    3    3    0    0 -0.92071683814E+01  0.46172281827E+00  0.32607873539E+02  0.33885963972E+02  0.00000000000E+00 0.  1.
</event>
<event>
 7    1  0.3597718E-013  0.7246159E+02  0.7816164E-02  0.1226708E+00
        -11   -1    0    0    0    0  0.00000000000E+00  0.00000000000E+00  0.45593999997E+02  0.45594000000E+02  0.51100000000E-03 0. -1.
         11   -1    0    0    0    0 -0.00000000000E+00 -0.00000000000E+00 -0.45593999997E+02  0.45594000000E+02  0.51100000000E-03 0.  1.
    9900012    2    1    2    0    0  0.45984557908E+01  0.24686165953E+01 -0.17984399623E+02  0.72461588348E+02  0.70000023518E+02 0.  0.
         12    1    1    2    0    0 -0.45984557908E+01 -0.24686165953E+01  0.17984399623E+02  0.18726411652E+02  0.00000000000E+00 0. -1.
         11    1    3    3    0    0  0.19706394932E+02 -0.12052835256E+02 -0.14790650173E+00  0.23100534962E+02  0.51100000000E-03 0. -1.
        -11    1    3    3    0    0  0.10503652543E+02 -0.42903985699E+01 -0.12937067470E+02  0.17207613188E+02  0.51100000000E-03 0.  1.
         12    1    3    3    0    0 -0.25611591685E+02  0.18811850421E+02 -0.48994256509E+01  0.32153440198E+02  0.00000000000E+00 0. -1.
</event>
<event>
 7    1  0.3597718E-013  0.7246157E+02  0.7816164E-02  0.1226708E+00
        -11   -1    0    0    0    0  0.00000000000E+00  0.00000000000E+00  0.45593999997E+02  0.45594000000E+02  0.51100000000E-03 0. -1.
         11   -1    0    0    0    0 -0.00000000000E+00 -0.00000000000E+00 -0.45593999997E+02  0.45594000000E+02  0.51100000000E-03 0.  1.
    9900012    2    1    2    0    0  0.11221609329E+02  0.59879211402E+01 -0.13744076107E+02  0.72461565648E+02  0.69999993947E+02 0.  0.
         12    1    1    2    0    0 -0.11221609329E+02 -0.59879211402E+01  0.13744076107E+02  0.18726434352E+02  0.00000000000E+00 0. -1.
         11    1    3    3    0    0 -0.20749882642E+02  0.15957520335E+00 -0.25039341045E+02  0.32520019897E+02  0.51100000000E-03 0. -1.
        -11    1    3    3    0    0  0.13539910708E+02  0.66886272723E+01 -0.43867172570E+01  0.15726099495E+02  0.51100000000E-03 0.  1.
        -12    1    3    3    0    0  0.18431581262E+02 -0.86028133536E+00  0.15681982194E+02  0.24215446255E+02  0.00000000000E+00 0.  1.
</event>
<event>
 7    1  0.3597718E-013  0.7246158E+02  0.7816164E-02  0.1226708E+00
        -11   -1    0    0    0    0  0.00000000000E+00  0.00000000000E+00  0.45593999997E+02  0.45594000000E+02  0.51100000000E-03 0.  1.
         11   -1    0    0    0    0 -0.00000000000E+00 -0.00000000000E+00 -0.45593999997E+02  0.45594000000E+02  0.51100000000E-03 0. -1.
    9900012    2    1    2    0    0 -0.15677730440E+02 -0.82116047962E+01  0.61202325720E+01  0.72461576641E+02  0.70000008268E+02 0.  0.
         12    1    1    2    0    0  0.15677730440E+02  0.82116047962E+01 -0.61202325720E+01  0.18726423359E+02  0.00000000000E+00 0. -1.
         11    1    3    3    0    0  0.28994241348E+01 -0.45027668587E+00 -0.19546282324E+01  0.35256178459E+01  0.51100000000E-03 0. -1.
        -11    1    3    3    0    0  0.17250540127E+02 -0.19345165519E+02 -0.92063848471E+01  0.27505891839E+02  0.51100000000E-03 0.  1.
         12    1    3    3    0    0 -0.35827694702E+02  0.11583837409E+02  0.17281245651E+02  0.41430066957E+02  0.00000000000E+00 0. -1.
</event>
<event>
 7    1  0.3597718E-013  0.7246155E+02  0.7816164E-02  0.1226708E+00
        -11   -1    0    0    0    0  0.00000000000E+00  0.00000000000E+00  0.45593999997E+02  0.45594000000E+02  0.51100000000E-03 0.  1.
         11   -1    0    0    0    0 -0.00000000000E+00 -0.00000000000E+00 -0.45593999997E+02  0.45594000000E+02  0.51100000000E-03 0. -1.
    9900012    2    1    2    0    0 -0.10039351570E+02  0.96039072002E+01  0.12556123178E+02  0.72461552320E+02  0.69999976585E+02 0.  0.
         12    1    1    2    0    0  0.10039351570E+02 -0.96039072002E+01 -0.12556123178E+02  0.18726447680E+02  0.00000000000E+00 0. -1.
         11    1    3    3    0    0  0.16055740041E+02  0.12070724043E+02 -0.62805920419E+01  0.21046021093E+02  0.51100000000E-03 0. -1.
        -11    1    3    3    0    0 -0.17912542043E+02 -0.36130136927E+01 -0.10405630868E+02  0.21028318630E+02  0.51100000000E-03 0.  1.
        -12    1    3    3    0    0 -0.81825495673E+01  0.11461968498E+01  0.29242346088E+02  0.30387212597E+02  0.00000000000E+00 0.  1.
</event>
<event>
 7    1  0.3597718E-013  0.7246153E+02  0.7816164E-02  0.1226708E+00
        -11   -1    0    0    0    0  0.00000000000E+00  0.00000000000E+00  0.45593999997E+02  0.45594000000E+02  0.51100000000E-03 0.  1.
         11   -1    0    0    0    0 -0.00000000000E+00 -0.00000000000E+00 -0.45593999997E+02  0.45594000000E+02  0.51100000000E-03 0. -1.
    9900012    2    1    2    0    0 -0.46930690896E+01  0.13720922843E+02  0.11848708750E+02  0.72461534231E+02  0.69999953021E+02 0.  0.
         12    1    1    2    0    0  0.46930690896E+01 -0.13720922843E+02 -0.11848708750E+02  0.18726465769E+02  0.00000000000E+00 0. -1.
         11    1    3    3    0    0 -0.16446630630E+02  0.52324292590E+01  0.10179654758E+02  0.20037348784E+02  0.51100000000E-03 0. -1.
        -11    1    3    3    0    0  0.23274268312E+02  0.91829814733E+01  0.19128511827E+02  0.31494740500E+02  0.51100000000E-03 0.  1.
         12    1    3    3    0    0 -0.11520706771E+02 -0.69448788943E+00 -0.17459457835E+02  0.20929444947E+02  0.00000000000E+00 0. -1.
</event>
<event>
 7    1  0.3597718E-013  0.7246156E+02  0.7816164E-02  0.1226708E+00
        -11   -1    0    0    0    0  0.00000000000E+00  0.00000000000E+00  0.45593999997E+02  0.45594000000E+02  0.51100000000E-03 0. -1.
         11   -1    0    0    0    0 -0.00000000000E+00 -0.00000000000E+00 -0.45593999997E+02  0.45594000000E+02  0.51100000000E-03 0.  1.
    9900012    2    1    2    0    0 -0.16027599376E+02 -0.63590565803E+01  0.73046561881E+01  0.72461560285E+02  0.69999986962E+02 0.  0.
         12    1    1    2    0    0  0.16027599376E+02  0.63590565803E+01 -0.73046561881E+01  0.18726439715E+02  0.00000000000E+00 0. -1.
         11    1    3    3    0    0 -0.37832911511E+01 -0.23387807906E+01  0.14512592448E+02  0.15178884259E+02  0.51100000000E-03 0. -1.
        -11    1    3    3    0    0 -0.25906818139E+02 -0.18792821521E+02  0.68581709196E+01  0.32731756376E+02  0.51100000000E-03 0.  1.
         12    1    3    3    0    0  0.13662509914E+02  0.14772545731E+02 -0.14066107179E+02  0.24550919651E+02  0.00000000000E+00 0. -1.
</event>
<event>
 7    1  0.3597718E-013  0.7246156E+02  0.7816164E-02  0.1226708E+00
        -11   -1    0    0    0    0  0.00000000000E+00  0.00000000000E+00  0.45593999997E+02  0.45594000000E+02  0.51100000000E-03 0.  1.
         11   -1    0    0    0    0 -0.00000000000E+00 -0.00000000000E+00 -0.45593999997E+02  0.45594000000E+02  0.51100000000E-03 0. -1.
    9900012    2    1    2    0    0 -0.12182602874E+02  0.92824222520E+01  0.10774992986E+02  0.72461557479E+02  0.69999983305E+02 0.  0.
         12    1    1    2    0    0  0.12182602874E+02 -0.92824222520E+01 -0.10774992986E+02  0.18726442521E+02  0.00000000000E+00 0. -1.
         11    1    3    3    0    0 -0.88393696786E+01 -0.13755226401E+02  0.19760440609E+02  0.25647918492E+02  0.51100000000E-03 0. -1.
        -11    1    3    3    0    0 -0.13278731789E+02  0.18379495337E+02  0.10081396191E+02  0.24814614971E+02  0.51100000000E-03 0.  1.
        -12    1    3    3    0    0  0.99354985929E+01  0.46581533159E+01 -0.19066843814E+02  0.21999024015E+02  0.00000000000E+00 0.  1.
</event>
<event>
 7    1  0.6179052E-013  0.7246161E+02  0.7816164E-02  0.1226708E+00
        -11   -1    0    0    0    0  0.00000000000E+00  0.00000000000E+00  0.45593999997E+02  0.45594000000E+02  0.51100000000E-03 0. -1.
         11   -1    0    0    0    0 -0.00000000000E+00 -0.00000000000E+00 -0.45593999997E+02  0.45594000000E+02  0.51100000000E-03 0.  1.
    9900012    2    1    2    0    0 -0.94917669514E+01  0.96881228782E+01 -0.12912183765E+02  0.72461605410E+02  0.70000045744E+02 0.  0.
         12    1    1    2    0    0  0.94917669514E+01 -0.96881228782E+01  0.12912183765E+02  0.18726394590E+02  0.00000000000E+00 0. -1.
         11    1    3    3    0    0  0.30091929129E+01  0.34392544173E+01 -0.66639411939E+01  0.80803357251E+01  0.51100000000E-03 0. -1.
        -11    1    3    3    0    0 -0.25921681776E+02 -0.10611586496E+02 -0.23668809387E+02  0.36670858895E+02  0.51100000000E-03 0.  1.
         12    1    3    3    0    0  0.13420721911E+02  0.16860454957E+02  0.17420566815E+02  0.27710410790E+02  0.00000000000E+00 0. -1.
</event>
<event>
 7    1  0.3597718E-013  0.7246143E+02  0.7816164E-02  0.1226708E+00
        -11   -1    0    0    0    0  0.00000000000E+00  0.00000000000E+00  0.45593999997E+02  0.45594000000E+02  0.51100000000E-03 0.  1.
         11   -1    0    0    0    0 -0.00000000000E+00 -0.00000000000E+00 -0.45593999997E+02  0.45594000000E+02  0.51100000000E-03 0. -1.
    9900012    2    1    2    0    0  0.11656200586E+02  0.13346954756E+02  0.60560950671E+01  0.72461427948E+02  0.69999814567E+02 0.  0.
         12    1    1    2    0    0 -0.11656200586E+02 -0.13346954756E+02 -0.60560950671E+01  0.18726572052E+02  0.00000000000E+00 0. -1.
         11    1    3    3    0    0  0.80153244445E+01 -0.13191115682E+01  0.11741069102E+01  0.82075580155E+01  0.51100000000E-03 0. -1.
        -11    1    3    3    0    0  0.31364351783E+02 -0.23425314912E+01  0.68582223776E+00  0.31459185764E+02  0.51100000000E-03 0.  1.
         12    1    3    3    0    0 -0.27723475641E+02  0.17008597816E+02  0.41961659191E+01  0.32794684168E+02  0.00000000000E+00 0. -1.
</event>
<event>
 7    1  0.3597718E-013  0.7246156E+02  0.7816164E-02  0.1226708E+00
        -11   -1    0    0    0    0  0.00000000000E+00  0.00000000000E+00  0.45593999997E+02  0.45594000000E+02  0.51100000000E-03 0. -1.
         11   -1    0    0    0    0 -0.00000000000E+00 -0.00000000000E+00 -0.45593999997E+02  0.45594000000E+02  0.51100000000E-03 0.  1.
    9900012    2    1    2    0    0  0.80370448823E+01 -0.16270002487E+02 -0.46230418166E+01  0.72461559147E+02  0.69999985479E+02 0.  0.
         12    1    1    2    0    0 -0.80370448823E+01  0.16270002487E+02  0.46230418166E+01  0.18726440853E+02  0.00000000000E+00 0. -1.
         11    1    3    3    0    0  0.22668796157E+02 -0.19523802701E+02 -0.19421117243E+01  0.29980410092E+02  0.51100000000E-03 0. -1.
        -11    1    3    3    0    0  0.92425696979E+01 -0.76549000806E+01  0.76952353164E+01  0.14256199939E+02  0.51100000000E-03 0.  1.
        -12    1    3    3    0    0 -0.23874320972E+02  0.10908700294E+02 -0.10376165409E+02  0.28224949116E+02  0.00000000000E+00 0.  1.
</event>
<event>
 7    1  0.3597718E-013  0.7246129E+02  0.7816164E-02  0.1226709E+00
        -11   -1    0    0    0    0  0.00000000000E+00  0.00000000000E+00  0.45593999997E+02  0.45594000000E+02  0.51100000000E-03 0.  1.
         11   -1    0    0    0    0 -0.00000000000E+00 -0.00000000000E+00 -0.45593999997E+02  0.45594000000E+02  0.51100000000E-03 0. -1.
    9900012    2    1    2    0    0 -0.24777825989E+01  0.64176821920E+01  0.17417333801E+02  0.72461292653E+02  0.69999638319E+02 0.  0.
         12    1    1    2    0    0  0.24777825989E+01 -0.64176821920E+01 -0.17417333801E+02  0.18726707347E+02  0.00000000000E+00 0. -1.
         11    1    3    3    0    0  0.12223788358E+02 -0.75076782146E+01 -0.13092396139E+02  0.19421562010E+02  0.51100000000E-03 0. -1.
        -11    1    3    3    0    0  0.31413894495E+01  0.16886535054E+01 -0.80612567035E+01  0.88149723899E+01  0.51100000000E-03 0.  1.
        -12    1    3    3    0    0 -0.17842960406E+02  0.12236706901E+02  0.38570986644E+02  0.44224758253E+02  0.00000000000E+00 0.  1.
</event>
<event>
 7    1  0.3597718E-013  0.7246159E+02  0.7816164E-02  0.1226708E+00
        -11   -1    0    0    0    0  0.00000000000E+00  0.00000000000E+00  0.45593999997E+02  0.45594000000E+02  0.51100000000E-03 0.  1.
         11   -1    0    0    0    0 -0.00000000000E+00 -0.00000000000E+00 -0.45593999997E+02  0.45594000000E+02  0.51100000000E-03 0. -1.
    9900012    2    1    2    0    0 -0.12163398797E+02  0.10920248497E+02  0.91366484007E+01  0.72461589732E+02  0.70000025321E+02 0.  0.
         12    1    1    2    0    0  0.12163398797E+02 -0.10920248497E+02 -0.91366484007E+01  0.18726410268E+02  0.00000000000E+00 0. -1.
         11    1    3    3    0    0 -0.88039621254E+01  0.13620289050E+02 -0.26037221137E+02  0.30675053508E+02  0.51100000000E-03 0. -1.
        -11    1    3    3    0    0 -0.27686878375E+01  0.82420127477E+01  0.58429700397E+01  0.10475528895E+02  0.51100000000E-03 0.  1.
        -12    1    3    3    0    0 -0.59074883388E+00 -0.10942053301E+02  0.29330899498E+02  0.31311007329E+02  0.00000000000E+00 0.  1.
</event>
<event>
 7    1  0.3597718E-013  0.7246156E+02  0.7816164E-02  0.1226708E+00
        -11   -1    0    0    0    0  0.00000000000E+00  0.00000000000E+00  0.45593999997E+02  0.45594000000E+02  0.51100000000E-03 0. -1.
         11   -1    0    0    0    0 -0.00000000000E+00 -0.00000000000E+00 -0.45593999997E+02  0.45594000000E+02  0.51100000000E-03 0.  1.
    9900012    2    1    2    0    0  0.84643227209E+01 -0.16694561294E+02  0.57145237643E+00  0.72461556297E+02  0.69999981766E+02 0.  0.
         12    1    1    2    0    0 -0.84643227209E+01  0.16694561294E+02 -0.57145237643E+00  0.18726443703E+02  0.00000000000E+00 0. -1.
         11    1    3    3    0    0  0.36608643896E+01 -0.29836121384E+01 -0.14387427853E+02  0.15142719372E+02  0.51100000000E-03 0. -1.
        -11    1    3    3    0    0  0.16531504560E+02  0.12121179632E+02 -0.67653625040E+01  0.21586657193E+02  0.51100000000E-03 0.  1.
        -12    1    3    3    0    0 -0.11728046229E+02 -0.25832128788E+02  0.21724242734E+02  0.35732179732E+02  0.00000000000E+00 0.  1.
</event>
<event>
 7    1  0.3597718E-013  0.7246159E+02  0.7816164E-02  0.1226708E+00
        -11   -1    0    0    0    0  0.00000000000E+00  0.00000000000E+00  0.45593999997E+02  0.45594000000E+02  0.51100000000E-03 0.  1.
         11   -1    0    0    0    0 -0.00000000000E+00 -0.00000000000E+00 -0.45593999997E+02  0.45594000000E+02  0.51100000000E-03 0. -1.
    9900012    2    1    2    0    0  0.46708732822E+01 -0.11174794232E+02  0.14282345795E+02  0.72461588578E+02  0.70000023818E+02 0.  0.
         12    1    1    2    0    0 -0.46708732822E+01  0.11174794232E+02 -0.14282345795E+02  0.18726411422E+02  0.00000000000E+00 0. -1.
         11    1    3    3    0    0  0.11560586789E+01 -0.14046292551E+02 -0.70782777887E+01  0.15771392545E+02  0.51100000000E-03 0. -1.
        -11    1    3    3    0    0 -0.12203593197E+02  0.11452518136E+01 -0.13606814087E+02  0.18313510819E+02  0.51100000000E-03 0.  1.
        -12    1    3    3    0    0  0.15718407800E+02  0.17262465059E+01  0.34967437671E+02  0.38376685214E+02  0.00000000000E+00 0.  1.
</event>
<event>
 7    1  0.3597718E-013  0.7246151E+02  0.7816164E-02  0.1226708E+00
        -11   -1    0    0    0    0  0.00000000000E+00  0.00000000000E+00  0.45593999997E+02  0.45594000000E+02  0.51100000000E-03 0.  1.
         11   -1    0    0    0    0 -0.00000000000E+00 -0.00000000000E+00 -0.45593999997E+02  0.45594000000E+02  0.51100000000E-03 0. -1.
    9900012    2    1    2    0    0  0.52024895254E+01 -0.12371432499E+02  0.13059980302E+02  0.72461512747E+02  0.69999925034E+02 0.  0.
         12    1    1    2    0    0 -0.52024895254E+01  0.12371432499E+02 -0.13059980302E+02  0.18726487253E+02  0.00000000000E+00 0. -1.
         11    1    3    3    0    0 -0.38710390645E+01 -0.69146460935E+01 -0.18325655266E+02  0.19965643371E+02  0.51100000000E-03 0. -1.
        -11    1    3    3    0    0 -0.14446754307E+02 -0.66612692027E+01  0.40535689107E+01  0.16416840091E+02  0.51100000000E-03 0.  1.
        -12    1    3    3    0    0  0.23520282897E+02  0.12044827967E+01  0.27332066657E+02  0.36079029285E+02  0.00000000000E+00 0.  1.
</event>
<event>
 7    1  0.3597718E-013  0.7246160E+02  0.7816164E-02  0.1226708E+00
        -11   -1    0    0    0    0  0.00000000000E+00  0.00000000000E+00  0.45593999997E+02  0.45594000000E+02  0.51100000000E-03 0.  1.
         11   -1    0    0    0    0 -0.00000000000E+00 -0.00000000000E+00 -0.45593999997E+02  0.45594000000E+02  0.51100000000E-03 0. -1.
    9900012    2    1    2    0    0 -0.99243146212E+01 -0.95432907997E-01  0.15880077303E+02  0.72461601967E+02  0.70000041259E+02 0.  0.
         12    1    1    2    0    0  0.99243146212E+01  0.95432907997E-01 -0.15880077303E+02  0.18726398033E+02  0.00000000000E+00 0. -1.
         11    1    3    3    0    0  0.12504016598E+01 -0.67520403529E+01  0.45909617172E+01  0.82601745132E+01  0.51100000000E-03 0. -1.
        -11    1    3    3    0    0 -0.13134351783E+02 -0.23420094569E+02  0.19236095898E+02  0.33030885729E+02  0.51100000000E-03 0.  1.
         12    1    3    3    0    0  0.19596355017E+01  0.30076702014E+02 -0.79469803120E+01  0.31170541725E+02  0.00000000000E+00 0. -1.
</event>
<event>
 7    1  0.3597718E-013  0.7246156E+02  0.7816164E-02  0.1226708E+00
        -11   -1    0    0    0    0  0.00000000000E+00  0.00000000000E+00  0.45593999997E+02  0.45594000000E+02  0.51100000000E-03 0. -1.
         11   -1    0    0    0    0 -0.00000000000E+00 -0.00000000000E+00 -0.45593999997E+02  0.45594000000E+02  0.51100000000E-03 0.  1.
    9900012    2    1    2    0    0 -0.17335245365E+02 -0.21979173045E+01 -0.67333603972E+01  0.72461555741E+02  0.69999981042E+02 0.  0.
         12    1    1    2    0    0  0.17335245365E+02  0.21979173045E+01  0.67333603972E+01  0.18726444259E+02  0.00000000000E+00 0. -1.
         11    1    3    3    0    0  0.23141189109E+02  0.14742054683E+01  0.78862560820E+01  0.24492467217E+02  0.51100000000E-03 0. -1.
        -11    1    3    3    0    0 -0.67608828946E+01 -0.72207229881E+01 -0.94409342574E+01  0.13674049067E+02  0.51100000000E-03 0.  1.
        -12    1    3    3    0    0 -0.33715551579E+02  0.35486002154E+01 -0.51786822219E+01  0.34295039457E+02  0.00000000000E+00 0.  1.
</event>
<event>
 7    1  0.3597718E-013  0.7246157E+02  0.7816164E-02  0.1226708E+00
        -11   -1    0    0    0    0  0.00000000000E+00  0.00000000000E+00  0.45593999997E+02  0.45594000000E+02  0.51100000000E-03 0. -1.
         11   -1    0    0    0    0 -0.00000000000E+00 -0.00000000000E+00 -0.45593999997E+02  0.45594000000E+02  0.51100000000E-03 0.  1.
    9900012    2    1    2    0    0  0.87522933824E+01  0.16546415689E+02 -0.54090449997E+00  0.72461572437E+02  0.70000002791E+02 0.  0.
         12    1    1    2    0    0 -0.87522933824E+01 -0.16546415689E+02  0.54090449997E+00  0.18726427563E+02  0.00000000000E+00 0. -1.
         11    1    3    3    0    0  0.13274692272E+02  0.28000923450E+02  0.14351502160E+02  0.34150179845E+02  0.51100000000E-03 0. -1.
        -11    1    3    3    0    0 -0.64249234523E+00  0.10210088572E+02  0.21761939412E+01  0.10459183782E+02  0.51100000000E-03 0.  1.
         12    1    3    3    0    0 -0.38799065446E+01 -0.21664596333E+02 -0.17068600601E+02  0.27852208809E+02  0.00000000000E+00 0. -1.
</event>
<event>
 7    1  0.3597718E-013  0.7246149E+02  0.7816164E-02  0.1226708E+00
        -11   -1    0    0    0    0  0.00000000000E+00  0.00000000000E+00  0.45593999997E+02  0.45594000000E+02  0.51100000000E-03 0. -1.
         11   -1    0    0    0    0 -0.00000000000E+00 -0.00000000000E+00 -0.45593999997E+02  0.45594000000E+02  0.51100000000E-03 0.  1.
    9900012    2    1    2    0    0  0.12198670147E+02 -0.10747251040E+02 -0.92936093566E+01  0.72461491165E+02  0.69999896919E+02 0.  0.
         12    1    1    2    0    0 -0.12198670147E+02  0.10747251040E+02  0.92936093566E+01  0.18726508835E+02  0.00000000000E+00 0. -1.
         11    1    3    3    0    0 -0.83283665655E+01 -0.18219951751E+02  0.11042168434E+02  0.22874829299E+02  0.51100000000E-03 0. -1.
        -11    1    3    3    0    0 -0.11963079107E+02  0.83992035063E+00 -0.41792306139E+01  0.12699869949E+02  0.51100000000E-03 0.  1.
        -12    1    3    3    0    0  0.32490115820E+02  0.66327803603E+01 -0.16156547177E+02  0.36886791918E+02  0.00000000000E+00 0.  1.
</event>
<event>
 7    1  0.3597718E-013  0.7246160E+02  0.7816164E-02  0.1226708E+00
        -11   -1    0    0    0    0  0.00000000000E+00  0.00000000000E+00  0.45593999997E+02  0.45594000000E+02  0.51100000000E-03 0. -1.
         11   -1    0    0    0    0 -0.00000000000E+00 -0.00000000000E+00 -0.45593999997E+02  0.45594000000E+02  0.51100000000E-03 0.  1.
    9900012    2    1    2    0    0  0.18341648245E+02 -0.87798882226E+00 -0.36730085207E+01  0.72461603755E+02  0.70000043589E+02 0.  0.
         12    1    1    2    0    0 -0.18341648245E+02  0.87798882226E+00  0.36730085207E+01  0.18726396245E+02  0.00000000000E+00 0. -1.
         11    1    3    3    0    0  0.46051110050E+01  0.17126591823E+02  0.18361871119E+02  0.25528131661E+02  0.51100000000E-03 0. -1.
        -11    1    3    3    0    0  0.38077110175E+01  0.74158696818E+01  0.39731361594E+01  0.92346953134E+01  0.51100000000E-03 0.  1.
        -12    1    3    3    0    0  0.99288262226E+01 -0.25420450327E+02 -0.26008015799E+02  0.37698776781E+02  0.00000000000E+00 0.  1.
</event>
<event>
 7    1  0.3597718E-013  0.7246160E+02  0.7816164E-02  0.1226708E+00
        -11   -1    0    0    0    0  0.00000000000E+00  0.00000000000E+00  0.45593999997E+02  0.45594000000E+02  0.51100000000E-03 0. -1.
         11   -1    0    0    0    0 -0.00000000000E+00 -0.00000000000E+00 -0.45593999997E+02  0.45594000000E+02  0.51100000000E-03 0.  1.
    9900012    2    1    2    0    0 -0.46220933235E+01  0.11472127149E+01 -0.18110725817E+02  0.72461595291E+02  0.70000032562E+02 0.  0.
         12    1    1    2    0    0  0.46220933235E+01 -0.11472127149E+01  0.18110725817E+02  0.18726404709E+02  0.00000000000E+00 0. -1.
         11    1    3    3    0    0  0.15649221663E+02 -0.19884040527E+01 -0.26465761684E+02  0.30810524681E+02  0.51100000000E-03 0. -1.
        -11    1    3    3    0    0 -0.36167526771E+01 -0.20343427744E+01 -0.13251005359E+02  0.13885553419E+02  0.51100000000E-03 0.  1.
         12    1    3    3    0    0 -0.16654562310E+02  0.51699595420E+01  0.21606041226E+02  0.27765517191E+02  0.00000000000E+00 0. -1.
</event>
<event>
 7    1  0.3597718E-013  0.7246157E+02  0.7816164E-02  0.1226708E+00
        -11   -1    0    0    0    0  0.00000000000E+00  0.00000000000E+00  0.45593999997E+02  0.45594000000E+02  0.51100000000E-03 0.  1.
         11   -1    0    0    0    0 -0.00000000000E+00 -0.00000000000E+00 -0.45593999997E+02  0.45594000000E+02  0.51100000000E-03 0. -1.
    9900012    2    1    2    0    0  0.74912009817E+01 -0.10179070618E+02  0.13818385296E+02  0.72461565663E+02  0.69999993967E+02 0.  0.
         12    1    1    2    0    0 -0.74912009817E+01  0.10179070618E+02 -0.13818385296E+02  0.18726434337E+02  0.00000000000E+00 0. -1.
         11    1    3    3    0    0 -0.23970497094E+01 -0.11590264753E+02  0.23487326756E+01  0.12066342851E+02  0.51100000000E-03 0.  1.
        -11    1    3    3    0    0 -0.21384665041E+02 -0.12176996882E+02  0.63135325089E+00  0.24616696756E+02  0.51100000000E-03 0. -1.
         12    1    3    3    0    0  0.31272915732E+02  0.13588191017E+02  0.10838299369E+02  0.35778526056E+02  0.00000000000E+00 0. -1.
</event>
<event>
 7    1  0.3597718E-013  0.7246154E+02  0.7816164E-02  0.1226708E+00
        -11   -1    0    0    0    0  0.00000000000E+00  0.00000000000E+00  0.45593999997E+02  0.45594000000E+02  0.51100000000E-03 0. -1.
         11   -1    0    0    0    0 -0.00000000000E+00 -0.00000000000E+00 -0.45593999997E+02  0.45594000000E+02  0.51100000000E-03 0.  1.
    9900012    2    1    2    0    0 -0.12360431612E+02  0.11287250917E+02 -0.83963082259E+01  0.72461540251E+02  0.69999960863E+02 0.  0.
         12    1    1    2    0    0  0.12360431612E+02 -0.11287250917E+02  0.83963082259E+01  0.18726459749E+02  0.00000000000E+00 0. -1.
         11    1    3    3    0    0  0.92091293875E+01  0.31470907408E+02 -0.42548168477E+01  0.33065534078E+02  0.51100000000E-03 0. -1.
        -11    1    3    3    0    0 -0.61130692733E-01  0.54168701366E+01 -0.23689923427E+01  0.59125581620E+01  0.51100000000E-03 0.  1.
        -12    1    3    3    0    0 -0.21508430307E+02 -0.25600526628E+02 -0.17724990356E+01  0.33483448011E+02  0.00000000000E+00 0.  1.
</event>
<event>
 7    1  0.3597718E-013  0.7246162E+02  0.7816164E-02  0.1226708E+00
        -11   -1    0    0    0    0  0.00000000000E+00  0.00000000000E+00  0.45593999997E+02  0.45594000000E+02  0.51100000000E-03 0. -1.
         11   -1    0    0    0    0 -0.00000000000E+00 -0.00000000000E+00 -0.45593999997E+02  0.45594000000E+02  0.51100000000E-03 0.  1.
    9900012    2    1    2    0    0  0.15385049567E+02 -0.10479916446E+02 -0.20369296422E+01  0.72461615371E+02  0.70000058721E+02 0.  0.
         12    1    1    2    0    0 -0.15385049567E+02  0.10479916446E+02  0.20369296422E+01  0.18726384629E+02  0.00000000000E+00 0. -1.
         11    1    3    3    0    0 -0.15122067210E+01 -0.95114067929E+01 -0.55684403495E+01  0.11124799168E+02  0.51100000000E-03 0. -1.
        -11    1    3    3    0    0  0.76147149741E+01 -0.20690628392E+02 -0.19638288673E+02  0.29525385174E+02  0.51100000000E-03 0.  1.
         12    1    3    3    0    0  0.92825413141E+01  0.19722118739E+02  0.23169799380E+02  0.31811431029E+02  0.00000000000E+00 0. -1.
</event>
<event>
 7    1  0.3597718E-013  0.7246151E+02  0.7816164E-02  0.1226708E+00
        -11   -1    0    0    0    0  0.00000000000E+00  0.00000000000E+00  0.45593999997E+02  0.45594000000E+02  0.51100000000E-03 0. -1.
         11   -1    0    0    0    0 -0.00000000000E+00 -0.00000000000E+00 -0.45593999997E+02  0.45594000000E+02  0.51100000000E-03 0.  1.
    9900012    2    1    2    0    0  0.19876737578E+01  0.14067835741E+02 -0.12199453985E+02  0.72461507351E+02  0.69999918005E+02 0.  0.
         12    1    1    2    0    0 -0.19876737578E+01 -0.14067835741E+02  0.12199453985E+02  0.18726492649E+02  0.00000000000E+00 0. -1.
         11    1    3    3    0    0  0.13040499338E+01  0.22076000036E+02 -0.27587547490E+02  0.35357079921E+02  0.51100000000E-03 0. -1.
        -11    1    3    3    0    0  0.12207780081E+02  0.16010516162E+01 -0.36707122481E+01  0.12847855442E+02  0.51100000000E-03 0.  1.
        -12    1    3    3    0    0 -0.11524156257E+02 -0.96092159109E+01  0.19058805753E+02  0.24256571988E+02  0.00000000000E+00 0.  1.
</event>
<event>
 7    1  0.3597718E-013  0.7246223E+02  0.7816164E-02  0.1226706E+00
        -11   -1    0    0    0    0  0.00000000000E+00  0.00000000000E+00  0.45593999997E+02  0.45594000000E+02  0.51100000000E-03 0. -1.
         11   -1    0    0    0    0 -0.00000000000E+00 -0.00000000000E+00 -0.45593999997E+02  0.45594000000E+02  0.51100000000E-03 0.  1.
    9900012    2    1    2    0    0  0.12282702722E+02  0.11913754410E+02  0.76060543179E+01  0.72462231856E+02  0.70000861802E+02 0.  0.
         12    1    1    2    0    0 -0.12282702722E+02 -0.11913754410E+02 -0.76060543179E+01  0.18725768144E+02  0.00000000000E+00 0. -1.
         11    1    3    3    0    0  0.32435640251E+02  0.27053474235E+01  0.18562757257E+02  0.37469529226E+02  0.51100000000E-03 0.  1.
        -11    1    3    3    0    0 -0.55889119205E+01  0.71660763310E+01  0.72234773395E+01  0.11608928097E+02  0.51100000000E-03 0. -1.
        -12    1    3    3    0    0 -0.14564025608E+02  0.20423306552E+01 -0.18180180279E+02  0.23383774533E+02  0.00000000000E+00 0.  1.
</event>
<event>
 7    1  0.3597718E-013  0.7246157E+02  0.7816164E-02  0.1226708E+00
        -11   -1    0    0    0    0  0.00000000000E+00  0.00000000000E+00  0.45593999997E+02  0.45594000000E+02  0.51100000000E-03 0. -1.
         11   -1    0    0    0    0 -0.00000000000E+00 -0.00000000000E+00 -0.45593999997E+02  0.45594000000E+02  0.51100000000E-03 0.  1.
    9900012    2    1    2    0    0  0.15820790181E+02 -0.61377078211E+00 -0.10000260826E+02  0.72461565926E+02  0.69999994310E+02 0.  0.
         12    1    1    2    0    0 -0.15820790181E+02  0.61377078211E+00  0.10000260826E+02  0.18726434074E+02  0.00000000000E+00 0. -1.
         11    1    3    3    0    0  0.17230925427E+02  0.11387598656E+02  0.22659281585E+02  0.30659830991E+02  0.51100000000E-03 0. -1.
        -11    1    3    3    0    0  0.30447862922E+01  0.54256030244E+01 -0.16453700189E+02  0.17590683384E+02  0.51100000000E-03 0.  1.
        -12    1    3    3    0    0 -0.44549215385E+01 -0.17426972462E+02 -0.16205842222E+02  0.24211051552E+02  0.00000000000E+00 0.  1.
</event>
<event>
 7    1  0.3597718E-013  0.7246157E+02  0.7816164E-02  0.1226708E+00
        -11   -1    0    0    0    0  0.00000000000E+00  0.00000000000E+00  0.45593999997E+02  0.45594000000E+02  0.51100000000E-03 0.  1.
         11   -1    0    0    0    0 -0.00000000000E+00 -0.00000000000E+00 -0.45593999997E+02  0.45594000000E+02  0.51100000000E-03 0. -1.
    9900012    2    1    2    0    0 -0.71855407558E+01  0.14544971996E+02  0.93536525193E+01  0.72461574239E+02  0.70000005139E+02 0.  0.
         12    1    1    2    0    0  0.71855407558E+01 -0.14544971996E+02 -0.93536525193E+01  0.18726425761E+02  0.00000000000E+00 0. -1.
         11    1    3    3    0    0  0.10308539658E+02 -0.24748150649E+01  0.17816332152E+02  0.20731917208E+02  0.51100000000E-03 0. -1.
        -11    1    3    3    0    0 -0.24517706812E+02  0.19877363741E+02  0.88912099228E+01  0.32791479850E+02  0.51100000000E-03 0.  1.
         12    1    3    3    0    0  0.70236263974E+01 -0.28575766798E+01 -0.17353889556E+02  0.18938177182E+02  0.00000000000E+00 0. -1.
</event>
<event>
 7    1  0.3597718E-013  0.7246155E+02  0.7816164E-02  0.1226708E+00
        -11   -1    0    0    0    0  0.00000000000E+00  0.00000000000E+00  0.45593999997E+02  0.45594000000E+02  0.51100000000E-03 0. -1.
         11   -1    0    0    0    0 -0.00000000000E+00 -0.00000000000E+00 -0.45593999997E+02  0.45594000000E+02  0.51100000000E-03 0.  1.
    9900012    2    1    2    0    0 -0.16705446929E+02  0.50976948808E+01  0.67543614701E+01  0.72461552150E+02  0.69999976364E+02 0.  0.
         12    1    1    2    0    0  0.16705446929E+02 -0.50976948808E+01 -0.67543614701E+01  0.18726447850E+02  0.00000000000E+00 0. -1.
         11    1    3    3    0    0  0.12702370512E+01  0.16935165197E+02 -0.73998099022E+01  0.18524861923E+02  0.51100000000E-03 0. -1.
        -11    1    3    3    0    0 -0.87712273436E+01  0.14897737686E+02 -0.69716985857E+01  0.18640858315E+02  0.51100000000E-03 0.  1.
         12    1    3    3    0    0 -0.92044566371E+01 -0.26735208002E+02  0.21125869958E+02  0.35295831912E+02  0.00000000000E+00 0. -1.
</event>
<event>
 7    1  0.3597718E-013  0.7246162E+02  0.7816164E-02  0.1226708E+00
        -11   -1    0    0    0    0  0.00000000000E+00  0.00000000000E+00  0.45593999997E+02  0.45594000000E+02  0.51100000000E-03 0. -1.
         11   -1    0    0    0    0 -0.00000000000E+00 -0.00000000000E+00 -0.45593999997E+02  0.45594000000E+02  0.51100000000E-03 0.  1.
    9900012    2    1    2    0    0  0.42664524419E+01 -0.49135514168E+01 -0.17559373817E+02  0.72461622540E+02  0.70000068059E+02 0.  0.
         12    1    1    2    0    0 -0.42664524419E+01  0.49135514168E+01  0.17559373817E+02  0.18726377460E+02  0.00000000000E+00 0. -1.
         11    1    3    3    0    0  0.95145239592E+01  0.16470779363E+02  0.17278852012E+02  0.25697693789E+02  0.51100000000E-03 0. -1.
        -11    1    3    3    0    0 -0.16697309821E-01 -0.74958467329E+01  0.13809952993E+01  0.76220171425E+01  0.51100000000E-03 0.  1.
        -12    1    3    3    0    0 -0.52313742074E+01 -0.13888484047E+02 -0.36219221127E+02  0.39141911608E+02  0.00000000000E+00 0.  1.
</event>
<event>
 7    1  0.3597718E-013  0.7246179E+02  0.7816164E-02  0.1226707E+00
        -11   -1    0    0    0    0  0.00000000000E+00  0.00000000000E+00  0.45593999997E+02  0.45594000000E+02  0.51100000000E-03 0. -1.
         11   -1    0    0    0    0 -0.00000000000E+00 -0.00000000000E+00 -0.45593999997E+02  0.45594000000E+02  0.51100000000E-03 0.  1.
    9900012    2    1    2    0    0 -0.13403146199E+02  0.12320261252E+02  0.43861056438E+01  0.72461786072E+02  0.70000281090E+02 0.  0.
         12    1    1    2    0    0  0.13403146199E+02 -0.12320261252E+02 -0.43861056438E+01  0.18726213928E+02  0.00000000000E+00 0. -1.
         11    1    3    3    0    0  0.28185803886E+01 -0.18755568860E+02  0.23134868640E+02  0.29915512797E+02  0.51100000000E-03 0. -1.
        -11    1    3    3    0    0 -0.28263594170E+01  0.75935182088E+01  0.21420001650E+01  0.83808108981E+01  0.51100000000E-03 0.  1.
        -12    1    3    3    0    0 -0.13395367170E+02  0.23482311904E+02 -0.20890763161E+02  0.34165462377E+02  0.00000000000E+00 0.  1.
</event>
<event>
 7    1  0.3597718E-013  0.7246179E+02  0.7816164E-02  0.1226707E+00
        -11   -1    0    0    0    0  0.00000000000E+00  0.00000000000E+00  0.45593999997E+02  0.45594000000E+02  0.51100000000E-03 0.  1.
         11   -1    0    0    0    0 -0.00000000000E+00 -0.00000000000E+00 -0.45593999997E+02  0.45594000000E+02  0.51100000000E-03 0. -1.
    9900012    2    1    2    0    0 -0.12857464198E+02 -0.12396864114E+02  0.56279870737E+01  0.72461792056E+02  0.70000288885E+02 0.  0.
         12    1    1    2    0    0  0.12857464198E+02  0.12396864114E+02 -0.56279870737E+01  0.18726207944E+02  0.00000000000E+00 0. -1.
         11    1    3    3    0    0 -0.31024825869E+01 -0.12405996405E+02 -0.31284114616E+02  0.33796892943E+02  0.51100000000E-03 0. -1.
        -11    1    3    3    0    0 -0.28510311178E+01 -0.25406012305E+00  0.33832963605E+01  0.44316610323E+01  0.51100000000E-03 0.  1.
        -12    1    3    3    0    0 -0.69039504930E+01  0.26319241406E+00  0.33528805330E+02  0.34233238081E+02  0.00000000000E+00 0.  1.
</event>
<event>
 7    1  0.3597718E-013  0.7246108E+02  0.7816164E-02  0.1226709E+00
        -11   -1    0    0    0    0  0.00000000000E+00  0.00000000000E+00  0.45593999997E+02  0.45594000000E+02  0.51100000000E-03 0.  1.
         11   -1    0    0    0    0 -0.00000000000E+00 -0.00000000000E+00 -0.45593999997E+02  0.45594000000E+02  0.51100000000E-03 0. -1.
    9900012    2    1    2    0    0 -0.10375503617E+02  0.42090591457E+01  0.15011005992E+02  0.72461079402E+02  0.69999360518E+02 0.  0.
         12    1    1    2    0    0  0.10375503617E+02 -0.42090591457E+01 -0.15011005992E+02  0.18726920598E+02  0.00000000000E+00 0. -1.
         11    1    3    3    0    0 -0.35933085153E+01  0.13459911999E+02 -0.88704567704E+01  0.16515632010E+02  0.51100000000E-03 0. -1.
        -11    1    3    3    0    0 -0.14057941139E+02 -0.15497765119E+01 -0.11990412818E+02  0.18541777587E+02  0.51100000000E-03 0.  1.
         12    1    3    3    0    0  0.72757460371E+01 -0.77010763413E+01  0.35871875580E+02  0.37403669804E+02  0.00000000000E+00 0. -1.
</event>
<event>
 7    1  0.3597718E-013  0.7246159E+02  0.7816164E-02  0.1226708E+00
        -11   -1    0    0    0    0  0.00000000000E+00  0.00000000000E+00  0.45593999997E+02  0.45594000000E+02  0.51100000000E-03 0.  1.
         11   -1    0    0    0    0 -0.00000000000E+00 -0.00000000000E+00 -0.45593999997E+02  0.45594000000E+02  0.51100000000E-03 0. -1.
    9900012    2    1    2    0    0 -0.23594262982E+00 -0.38204130236E+01  0.18331041574E+02  0.72461593250E+02  0.70000029904E+02 0.  0.
         12    1    1    2    0    0  0.23594262982E+00  0.38204130236E+01 -0.18331041574E+02  0.18726406750E+02  0.00000000000E+00 0. -1.
         11    1    3    3    0    0 -0.90116976396E+01  0.11702217794E+02  0.82782786960E+01  0.16931700862E+02  0.51100000000E-03 0. -1.
        -11    1    3    3    0    0 -0.19976535203E+02 -0.23574028955E+01 -0.46660206315E+01  0.20649238628E+02  0.51100000000E-03 0.  1.
         12    1    3    3    0    0  0.28752290213E+02 -0.13165227922E+02  0.14718783509E+02  0.34880653760E+02  0.00000000000E+00 0. -1.
</event>
<event>
 7    1  0.3597718E-013  0.7246157E+02  0.7816164E-02  0.1226708E+00
        -11   -1    0    0    0    0  0.00000000000E+00  0.00000000000E+00  0.45593999997E+02  0.45594000000E+02  0.51100000000E-03 0. -1.
         11   -1    0    0    0    0 -0.00000000000E+00 -0.00000000000E+00 -0.45593999997E+02  0.45594000000E+02  0.51100000000E-03 0.  1.
    9900012    2    1    2    0    0 -0.16707192238E+02  0.84290927321E+01  0.70668183650E+00  0.72461567451E+02  0.69999996297E+02 0.  0.
         12    1    1    2    0    0  0.16707192238E+02 -0.84290927321E+01 -0.70668183650E+00  0.18726432549E+02  0.00000000000E+00 0. -1.
         11    1    3    3    0    0 -0.13848178059E+02 -0.99512401911E+01  0.56141215590E+01  0.17953205230E+02  0.51100000000E-03 0. -1.
        -11    1    3    3    0    0  0.20110170286E+02 -0.43563064100E+01  0.40485461004E+01  0.20971101074E+02  0.51100000000E-03 0.  1.
        -12    1    3    3    0    0 -0.22969184465E+02  0.22736639333E+02 -0.89559858229E+01  0.33537261147E+02  0.00000000000E+00 0.  1.
</event>
<event>
 7    1  0.3597718E-013  0.7246156E+02  0.7816164E-02  0.1226708E+00
        -11   -1    0    0    0    0  0.00000000000E+00  0.00000000000E+00  0.45593999997E+02  0.45594000000E+02  0.51100000000E-03 0. -1.
         11   -1    0    0    0    0 -0.00000000000E+00 -0.00000000000E+00 -0.45593999997E+02  0.45594000000E+02  0.51100000000E-03 0.  1.
    9900012    2    1    2    0    0  0.12191965143E+02 -0.12784781162E+02 -0.62116826254E+01  0.72461557613E+02  0.69999983481E+02 0.  0.
         12    1    1    2    0    0 -0.12191965143E+02  0.12784781162E+02  0.62116826254E+01  0.18726442387E+02  0.00000000000E+00 0. -1.
         11    1    3    3    0    0 -0.27651568822E+01  0.29964136985E+01  0.38297734600E+01  0.55939031679E+01  0.51100000000E-03 0. -1.
        -11    1    3    3    0    0  0.36079511907E+02 -0.13047404065E+02  0.77197938070E+01  0.39135165120E+02  0.51100000000E-03 0.  1.
         12    1    3    3    0    0 -0.21122389882E+02 -0.27337907957E+01 -0.17761249892E+02  0.27732489325E+02  0.00000000000E+00 0. -1.
</event>
<event>
 7    1  0.3597718E-013  0.7246169E+02  0.7816164E-02  0.1226708E+00
        -11   -1    0    0    0    0  0.00000000000E+00  0.00000000000E+00  0.45593999997E+02  0.45594000000E+02  0.51100000000E-03 0. -1.
         11   -1    0    0    0    0 -0.00000000000E+00 -0.00000000000E+00 -0.45593999997E+02  0.45594000000E+02  0.51100000000E-03 0.  1.
    9900012    2    1    2    0    0  0.18230812961E+02 -0.27655289831E+01 -0.32655504109E+01  0.72461694672E+02  0.70000162025E+02 0.  0.
         12    1    1    2    0    0 -0.18230812961E+02  0.27655289831E+01  0.32655504109E+01  0.18726305328E+02  0.00000000000E+00 0. -1.
         11    1    3    3    0    0 -0.85526551420E+01 -0.16973802681E+02  0.83473786109E+01  0.20759012919E+02  0.51100000000E-03 0. -1.
        -11    1    3    3    0    0 -0.31866204252E+01 -0.10770265836E+02 -0.10337527000E+01  0.11279265083E+02  0.51100000000E-03 0.  1.
        -12    1    3    3    0    0  0.29970088528E+02  0.24978539534E+02 -0.10579176322E+02  0.40423416670E+02  0.00000000000E+00 0.  1.
</event>
<event>
 7    1  0.3597718E-013  0.7246155E+02  0.7816164E-02  0.1226708E+00
        -11   -1    0    0    0    0  0.00000000000E+00  0.00000000000E+00  0.45593999997E+02  0.45594000000E+02  0.51100000000E-03 0.  1.
         11   -1    0    0    0    0 -0.00000000000E+00 -0.00000000000E+00 -0.45593999997E+02  0.45594000000E+02  0.51100000000E-03 0. -1.
    9900012    2    1    2    0    0 -0.53527360313E+01  0.17468750130E+02  0.41074233189E+01  0.72461549711E+02  0.69999973186E+02 0.  0.
         12    1    1    2    0    0  0.53527360313E+01 -0.17468750130E+02 -0.41074233189E+01  0.18726450289E+02  0.00000000000E+00 0. -1.
         11    1    3    3    0    0  0.85336252501E+01 -0.15828462050E+02  0.11912543800E+02  0.21570156949E+02  0.51100000000E-03 0. -1.
        -11    1    3    3    0    0 -0.16999831923E+02  0.51688246142E+01  0.68241491718E+01  0.19033655599E+02  0.51100000000E-03 0.  1.
        -12    1    3    3    0    0  0.31134706415E+01  0.28128387566E+02 -0.14629269653E+02  0.31857737162E+02  0.00000000000E+00 0.  1.
</event>
<event>
 7    1  0.3597718E-013  0.7246183E+02  0.7816164E-02  0.1226707E+00
        -11   -1    0    0    0    0  0.00000000000E+00  0.00000000000E+00  0.45593999997E+02  0.45594000000E+02  0.51100000000E-03 0.  1.
         11   -1    0    0    0    0 -0.00000000000E+00 -0.00000000000E+00 -0.45593999997E+02  0.45594000000E+02  0.51100000000E-03 0. -1.
    9900012    2    1    2    0    0  0.11256471357E+02 -0.12349972277E+02  0.84521963585E+01  0.72461826180E+02  0.70000333337E+02 0.  0.
         12    1    1    2    0    0 -0.11256471357E+02  0.12349972277E+02 -0.84521963585E+01  0.18726173820E+02  0.00000000000E+00 0. -1.
         11    1    3    3    0    0  0.43694394805E+01  0.23424323419E+02  0.15608278338E+02  0.28485246742E+02  0.51100000000E-03 0. -1.
        -11    1    3    3    0    0 -0.25454364657E+00 -0.99598022836E+01 -0.13181412324E+02  0.16523077350E+02  0.51100000000E-03 0.  1.
        -12    1    3    3    0    0  0.71415755235E+01 -0.25814493413E+02  0.60253303454E+01  0.27453502088E+02  0.00000000000E+00 0.  1.
</event>
<event>
 7    1  0.3597718E-013  0.7246142E+02  0.7816164E-02  0.1226708E+00
        -11   -1    0    0    0    0  0.00000000000E+00  0.00000000000E+00  0.45593999997E+02  0.45594000000E+02  0.51100000000E-03 0. -1.
         11   -1    0    0    0    0 -0.00000000000E+00 -0.00000000000E+00 -0.45593999997E+02  0.45594000000E+02  0.51100000000E-03 0.  1.
    9900012    2    1    2    0    0 -0.57488965079E+00  0.44565918342E+01 -0.18179473145E+02  0.72461415883E+02  0.69999798850E+02 0.  0.
         12    1    1    2    0    0  0.57488965079E+00 -0.44565918342E+01  0.18179473145E+02  0.18726584117E+02  0.00000000000E+00 0. -1.
         11    1    3    3    0    0 -0.84853027901E+01  0.17676263130E+01  0.33491219078E+01  0.92920118401E+01  0.51100000000E-03 0. -1.
        -11    1    3    3    0    0 -0.12672162991E+02  0.54061701808E+00  0.15937095945E+02  0.20368284392E+02  0.51100000000E-03 0.  1.
         12    1    3    3    0    0  0.20582576130E+02  0.21483485031E+01 -0.37465690998E+02  0.42801119651E+02  0.00000000000E+00 0. -1.
</event>
<event>
 7    1  0.3597718E-013  0.7246154E+02  0.7816164E-02  0.1226708E+00
        -11   -1    0    0    0    0  0.00000000000E+00  0.00000000000E+00  0.45593999997E+02  0.45594000000E+02  0.51100000000E-03 0.  1.
         11   -1    0    0    0    0 -0.00000000000E+00 -0.00000000000E+00 -0.45593999997E+02  0.45594000000E+02  0.51100000000E-03 0. -1.
    9900012    2    1    2    0    0  0.13856644426E+02 -0.12526437539E+02  0.13274441865E+01  0.72461539036E+02  0.69999959280E+02 0.  0.
         12    1    1    2    0    0 -0.13856644426E+02  0.12526437539E+02 -0.13274441865E+01  0.18726460964E+02  0.00000000000E+00 0. -1.
         11    1    3    3    0    0 -0.11026162491E+01  0.44910565270E+01 -0.61060332434E+01  0.76595687576E+01  0.51100000000E-03 0. -1.
        -11    1    3    3    0    0  0.54863264213E+01  0.21532989597E+02 -0.57852341752E+01  0.22961671396E+02  0.51100000000E-03 0.  1.
         12    1    3    3    0    0  0.94729342541E+01 -0.38550483663E+02  0.13218711605E+02  0.41840298882E+02  0.00000000000E+00 0. -1.
</event>
<event>
 7    1  0.3597718E-013  0.7246162E+02  0.7816164E-02  0.1226708E+00
        -11   -1    0    0    0    0  0.00000000000E+00  0.00000000000E+00  0.45593999997E+02  0.45594000000E+02  0.51100000000E-03 0. -1.
         11   -1    0    0    0    0 -0.00000000000E+00 -0.00000000000E+00 -0.45593999997E+02  0.45594000000E+02  0.51100000000E-03 0.  1.
    9900012    2    1    2    0    0 -0.49573352861E+01 -0.15135798303E+02 -0.98493526056E+01  0.72461619940E+02  0.70000064673E+02 0.  0.
         12    1    1    2    0    0  0.49573352861E+01  0.15135798303E+02  0.98493526056E+01  0.18726380060E+02  0.00000000000E+00 0. -1.
         11    1    3    3    0    0 -0.12010176269E+02 -0.18242439171E+02  0.50416520114E+01  0.22415378118E+02  0.51100000000E-03 0. -1.
        -11    1    3    3    0    0  0.18927398896E+01 -0.21479848900E+02 -0.12213630706E+02  0.24781831013E+02  0.51100000000E-03 0.  1.
        -12    1    3    3    0    0  0.51601010931E+01  0.24586489769E+02 -0.26773739108E+01  0.25264410809E+02  0.00000000000E+00 0.  1.
</event>
<event>
 7    1  0.3597718E-013  0.7246152E+02  0.7816164E-02  0.1226708E+00
        -11   -1    0    0    0    0  0.00000000000E+00  0.00000000000E+00  0.45593999997E+02  0.45594000000E+02  0.51100000000E-03 0.  1.
         11   -1    0    0    0    0 -0.00000000000E+00 -0.00000000000E+00 -0.45593999997E+02  0.45594000000E+02  0.51100000000E-03 0. -1.
    9900012    2    1    2    0    0 -0.48873563510E+01 -0.13510289516E+02  0.12011116882E+02  0.72461518652E+02  0.69999932727E+02 0.  0.
         12    1    1    2    0    0  0.48873563510E+01  0.13510289516E+02 -0.12011116882E+02  0.18726481348E+02  0.00000000000E+00 0. -1.
         11    1    3    3    0    0  0.11816483573E+02 -0.14932526737E+01  0.21906924350E+01  0.12110252730E+02  0.51100000000E-03 0. -1.
        -11    1    3    3    0    0  0.83524942585E+01 -0.51937818573E+01  0.27319987738E+02  0.29036550425E+02  0.51100000000E-03 0.  1.
         12    1    3    3    0    0 -0.25056334183E+02 -0.68232549852E+01 -0.17499563291E+02  0.31314715497E+02  0.00000000000E+00 0. -1.
</event>
<event>
 7    1  0.3597718E-013  0.7246159E+02  0.7816164E-02  0.1226708E+00
        -11   -1    0    0    0    0  0.00000000000E+00  0.00000000000E+00  0.45593999997E+02  0.45594000000E+02  0.51100000000E-03 0. -1.
         11   -1    0    0    0    0 -0.00000000000E+00 -0.00000000000E+00 -0.45593999997E+02  0.45594000000E+02  0.51100000000E-03 0.  1.
    9900012    2    1    2    0    0  0.15365868030E+02 -0.94090642760E+01 -0.51027566002E+01  0.72461587749E+02  0.70000022738E+02 0.  0.
         12    1    1    2    0    0 -0.15365868030E+02  0.94090642760E+01  0.51027566002E+01  0.18726412251E+02  0.00000000000E+00 0. -1.
         11    1    3    3    0    0 -0.87663665959E+01  0.21498672275E+02  0.70977521706E+01  0.24277977243E+02  0.51100000000E-03 0. -1.
        -11    1    3    3    0    0  0.27985386054E+01 -0.12406652412E+02  0.65310090631E+01  0.14297234769E+02  0.51100000000E-03 0.  1.
        -12    1    3    3    0    0  0.21333696021E+02 -0.18501084139E+02 -0.18731517834E+02  0.33886375737E+02  0.00000000000E+00 0.  1.
</event>
<event>
 7    1  0.3597718E-013  0.7246150E+02  0.7816164E-02  0.1226708E+00
        -11   -1    0    0    0    0  0.00000000000E+00  0.00000000000E+00  0.45593999997E+02  0.45594000000E+02  0.51100000000E-03 0. -1.
         11   -1    0    0    0    0 -0.00000000000E+00 -0.00000000000E+00 -0.45593999997E+02  0.45594000000E+02  0.51100000000E-03 0.  1.
    9900012    2    1    2    0    0  0.99353934390E+01  0.34254985351E+01 -0.15499537403E+02  0.72461501590E+02  0.69999910499E+02 0.  0.
         12    1    1    2    0    0 -0.99353934390E+01 -0.34254985351E+01  0.15499537403E+02  0.18726498410E+02  0.00000000000E+00 0. -1.
         11    1    3    3    0    0 -0.42299381580E+01  0.10178323063E+01  0.13552713809E+02  0.14233917636E+02  0.51100000000E-03 0. -1.
        -11    1    3    3    0    0  0.15826549454E+02 -0.18311231299E+02 -0.22458869321E+01  0.24306889305E+02  0.51100000000E-03 0.  1.
        -12    1    3    3    0    0 -0.16612178567E+01  0.20718897528E+02 -0.26806364280E+02  0.33920694649E+02  0.00000000000E+00 0.  1.
</event>
<event>
 7    1  0.3597718E-013  0.7246158E+02  0.7816164E-02  0.1226708E+00
        -11   -1    0    0    0    0  0.00000000000E+00  0.00000000000E+00  0.45593999997E+02  0.45594000000E+02  0.51100000000E-03 0.  1.
         11   -1    0    0    0    0 -0.00000000000E+00 -0.00000000000E+00 -0.45593999997E+02  0.45594000000E+02  0.51100000000E-03 0. -1.
    9900012    2    1    2    0    0 -0.17298511239E+02  0.15069527287E+01 -0.70120873493E+01  0.72461581052E+02  0.70000014014E+02 0.  0.
         12    1    1    2    0    0  0.17298511239E+02 -0.15069527287E+01  0.70120873493E+01  0.18726418948E+02  0.00000000000E+00 0. -1.
         11    1    3    3    0    0 -0.11699148922E+02 -0.20518375999E+02  0.12604247921E+02  0.26772017202E+02  0.51100000000E-03 0. -1.
        -11    1    3    3    0    0 -0.10676655240E+02 -0.62144412413E+01 -0.80989853595E+01  0.14771723365E+02  0.51100000000E-03 0.  1.
         12    1    3    3    0    0  0.50772929223E+01  0.28239769969E+02 -0.11517349911E+02  0.30917840485E+02  0.00000000000E+00 0. -1.
</event>
<event>
 7    1  0.3597718E-013  0.7246158E+02  0.7816164E-02  0.1226708E+00
        -11   -1    0    0    0    0  0.00000000000E+00  0.00000000000E+00  0.45593999997E+02  0.45594000000E+02  0.51100000000E-03 0.  1.
         11   -1    0    0    0    0 -0.00000000000E+00 -0.00000000000E+00 -0.45593999997E+02  0.45594000000E+02  0.51100000000E-03 0. -1.
    9900012    2    1    2    0    0 -0.60260681925E+01 -0.24011005019E+01  0.17567017821E+02  0.72461577581E+02  0.70000009493E+02 0.  0.
         12    1    1    2    0    0  0.60260681925E+01  0.24011005019E+01 -0.17567017821E+02  0.18726422419E+02  0.00000000000E+00 0. -1.
         11    1    3    3    0    0 -0.17881732660E+02 -0.38820864252E+01 -0.73376758024E+01  0.19714675862E+02  0.51100000000E-03 0. -1.
        -11    1    3    3    0    0 -0.10794023872E+02  0.13756202523E+02  0.85917131921E+00  0.17506634023E+02  0.51100000000E-03 0.  1.
         12    1    3    3    0    0  0.22649688339E+02 -0.12275216600E+02  0.24045522304E+02  0.35240267696E+02  0.00000000000E+00 0. -1.
</event>
<event>
 7    1  0.3597718E-013  0.7246165E+02  0.7816164E-02  0.1226708E+00
        -11   -1    0    0    0    0  0.00000000000E+00  0.00000000000E+00  0.45593999997E+02  0.45594000000E+02  0.51100000000E-03 0. -1.
         11   -1    0    0    0    0 -0.00000000000E+00 -0.00000000000E+00 -0.45593999997E+02  0.45594000000E+02  0.51100000000E-03 0.  1.
    9900012    2    1    2    0    0  0.16785984893E+01  0.16583054379E+01 -0.18577096392E+02  0.72461650111E+02  0.70000103976E+02 0.  0.
         12    1    1    2    0    0 -0.16785984893E+01 -0.16583054379E+01  0.18577096392E+02  0.18726349889E+02  0.00000000000E+00 0. -1.
         11    1    3    3    0    0 -0.11322673590E+02 -0.21588936672E+02 -0.39645848550E+01  0.24698239961E+02  0.51100000000E-03 0. -1.
        -11    1    3    3    0    0  0.59515001004E+01 -0.99061903327E+01 -0.43669480898E+01  0.12354076098E+02  0.51100000000E-03 0.  1.
        -12    1    3    3    0    0  0.70497719785E+01  0.33153432442E+02 -0.10245563447E+02  0.35409334052E+02  0.00000000000E+00 0.  1.
</event>
<event>
 7    1  0.3597718E-013  0.7246160E+02  0.7816164E-02  0.1226708E+00
        -11   -1    0    0    0    0  0.00000000000E+00  0.00000000000E+00  0.45593999997E+02  0.45594000000E+02  0.51100000000E-03 0.  1.
         11   -1    0    0    0    0 -0.00000000000E+00 -0.00000000000E+00 -0.45593999997E+02  0.45594000000E+02  0.51100000000E-03 0. -1.
    9900012    2    1    2    0    0  0.15780686246E+02 -0.80636835417E+01  0.60518552835E+01  0.72461601440E+02  0.70000040573E+02 0.  0.
         12    1    1    2    0    0 -0.15780686246E+02  0.80636835417E+01 -0.60518552835E+01  0.18726398560E+02  0.00000000000E+00 0. -1.
         11    1    3    3    0    0  0.44125820852E+01  0.35057433496E+01 -0.33023069876E+01  0.65319483152E+01  0.51100000000E-03 0. -1.
        -11    1    3    3    0    0  0.83853516009E+01  0.24841798206E+02  0.12907921024E+02  0.29224022396E+02  0.51100000000E-03 0.  1.
         12    1    3    3    0    0  0.29827525600E+01 -0.36411225097E+02 -0.35537587530E+01  0.36705630729E+02  0.00000000000E+00 0. -1.
</event>
<event>
 7    1  0.3597718E-013  0.7246158E+02  0.7816164E-02  0.1226708E+00
        -11   -1    0    0    0    0  0.00000000000E+00  0.00000000000E+00  0.45593999997E+02  0.45594000000E+02  0.51100000000E-03 0. -1.
         11   -1    0    0    0    0 -0.00000000000E+00 -0.00000000000E+00 -0.45593999997E+02  0.45594000000E+02  0.51100000000E-03 0.  1.
    9900012    2    1    2    0    0  0.18430617195E+02 -0.32840362294E+01 -0.45406037465E+00  0.72461582431E+02  0.70000015810E+02 0.  0.
         12    1    1    2    0    0 -0.18430617195E+02  0.32840362294E+01  0.45406037465E+00  0.18726417569E+02  0.00000000000E+00 0. -1.
         11    1    3    3    0    0 -0.87796621879E+01  0.62452765480E+01  0.37278605650E+01  0.11401003989E+02  0.51100000000E-03 0. -1.
        -11    1    3    3    0    0 -0.11772542390E+02  0.67257638847E+01 -0.12001132244E+02  0.18106789598E+02  0.51100000000E-03 0.  1.
        -12    1    3    3    0    0  0.38982821773E+02 -0.16255076662E+02  0.78192113040E+01  0.42953788844E+02  0.00000000000E+00 0.  1.
</event>
<event>
 7    1  0.4476991E-013  0.7246174E+02  0.7816164E-02  0.1226708E+00
        -11   -1    0    0    0    0  0.00000000000E+00  0.00000000000E+00  0.45593999997E+02  0.45594000000E+02  0.51100000000E-03 0. -1.
         11   -1    0    0    0    0 -0.00000000000E+00 -0.00000000000E+00 -0.45593999997E+02  0.45594000000E+02  0.51100000000E-03 0.  1.
    9900012    2    1    2    0    0  0.47175261612E+01  0.10219248681E+02 -0.14966121198E+02  0.72461738216E+02  0.70000218749E+02 0.  0.
         12    1    1    2    0    0 -0.47175261612E+01 -0.10219248681E+02  0.14966121198E+02  0.18726261784E+02  0.00000000000E+00 0. -1.
         11    1    3    3    0    0 -0.15568484162E+01  0.92208004986E+01  0.13966292033E+01  0.94550257651E+01  0.51100000000E-03 0. -1.
        -11    1    3    3    0    0 -0.81042275133E+01  0.87498618352E+01 -0.35731565720E+02  0.37669395732E+02  0.51100000000E-03 0.  1.
         12    1    3    3    0    0  0.14378602091E+02 -0.77514136532E+01  0.19368815318E+02  0.25337316719E+02  0.00000000000E+00 0. -1.
</event>
<event>
 7    1  0.3597718E-013  0.7246153E+02  0.7816164E-02  0.1226708E+00
        -11   -1    0    0    0    0  0.00000000000E+00  0.00000000000E+00  0.45593999997E+02  0.45594000000E+02  0.51100000000E-03 0. -1.
         11   -1    0    0    0    0 -0.00000000000E+00 -0.00000000000E+00 -0.45593999997E+02  0.45594000000E+02  0.51100000000E-03 0.  1.
    9900012    2    1    2    0    0 -0.10957698994E+02  0.10885982100E+02 -0.10587963716E+02  0.72461528117E+02  0.69999945056E+02 0.  0.
         12    1    1    2    0    0  0.10957698994E+02 -0.10885982100E+02  0.10587963716E+02  0.18726471883E+02  0.00000000000E+00 0. -1.
         11    1    3    3    0    0 -0.21215411695E+02  0.89113294566E+01  0.61029468919E+01  0.23806542107E+02  0.51100000000E-03 0. -1.
        -11    1    3    3    0    0 -0.15015415541E+02 -0.37677795171E+01 -0.16653593907E+02  0.22737657237E+02  0.51100000000E-03 0.  1.
         12    1    3    3    0    0  0.25273128241E+02  0.57424321604E+01 -0.37316700825E-01  0.25917328773E+02  0.00000000000E+00 0. -1.
</event>
<event>
 7    1  0.3597718E-013  0.7246159E+02  0.7816164E-02  0.1226708E+00
        -11   -1    0    0    0    0  0.00000000000E+00  0.00000000000E+00  0.45593999997E+02  0.45594000000E+02  0.51100000000E-03 0. -1.
         11   -1    0    0    0    0 -0.00000000000E+00 -0.00000000000E+00 -0.45593999997E+02  0.45594000000E+02  0.51100000000E-03 0.  1.
    9900012    2    1    2    0    0  0.29987070346E+01  0.12666118446E+02 -0.13463121466E+02  0.72461589773E+02  0.70000025375E+02 0.  0.
         12    1    1    2    0    0 -0.29987070346E+01 -0.12666118446E+02  0.13463121466E+02  0.18726410227E+02  0.00000000000E+00 0. -1.
         11    1    3    3    0    0  0.21490710517E+02  0.90783944901E+00  0.62094135347E+01  0.22388202869E+02  0.51100000000E-03 0. -1.
        -11    1    3    3    0    0  0.10536766048E+02  0.77584551567E+01  0.25068574561E+01  0.13322965125E+02  0.51100000000E-03 0.  1.
        -12    1    3    3    0    0 -0.29028769530E+02  0.39998238400E+01 -0.22179392457E+02  0.36750421779E+02  0.00000000000E+00 0.  1.
</event>
<event>
 7    1  0.3597718E-013  0.7246153E+02  0.7816164E-02  0.1226708E+00
        -11   -1    0    0    0    0  0.00000000000E+00  0.00000000000E+00  0.45593999997E+02  0.45594000000E+02  0.51100000000E-03 0. -1.
         11   -1    0    0    0    0 -0.00000000000E+00 -0.00000000000E+00 -0.45593999997E+02  0.45594000000E+02  0.51100000000E-03 0.  1.
    9900012    2    1    2    0    0 -0.71057215953E+01 -0.16180598748E+02 -0.61949823811E+01  0.72461525106E+02  0.69999941134E+02 0.  0.
         12    1    1    2    0    0  0.71057215953E+01  0.16180598748E+02  0.61949823811E+01  0.18726474894E+02  0.00000000000E+00 0. -1.
         11    1    3    3    0    0  0.15019750422E+02 -0.39727257783E+01 -0.96158529318E+01  0.18271291161E+02  0.51100000000E-03 0. -1.
        -11    1    3    3    0    0  0.14851143542E+01 -0.21014135468E+02 -0.12391379460E+02  0.24440657505E+02  0.51100000000E-03 0.  1.
         12    1    3    3    0    0 -0.23610586371E+02  0.88062624975E+01  0.15812250010E+02  0.29749576440E+02  0.00000000000E+00 0. -1.
</event>
<event>
 7    1  0.3597718E-013  0.7246158E+02  0.7816164E-02  0.1226708E+00
        -11   -1    0    0    0    0  0.00000000000E+00  0.00000000000E+00  0.45593999997E+02  0.45594000000E+02  0.51100000000E-03 0.  1.
         11   -1    0    0    0    0 -0.00000000000E+00 -0.00000000000E+00 -0.45593999997E+02  0.45594000000E+02  0.51100000000E-03 0. -1.
    9900012    2    1    2    0    0  0.27413917011E+01 -0.16275501706E+01  0.18453039149E+02  0.72461580111E+02  0.70000012788E+02 0.  0.
         12    1    1    2    0    0 -0.27413917011E+01  0.16275501706E+01 -0.18453039149E+02  0.18726419889E+02  0.00000000000E+00 0. -1.
         11    1    3    3    0    0 -0.77965108527E+01  0.30615658206E+01 -0.75627317366E+01  0.11285108698E+02  0.51100000000E-03 0. -1.
        -11    1    3    3    0    0 -0.12745676920E+02 -0.22574422999E+02  0.13893643098E+02  0.29412415281E+02  0.51100000000E-03 0.  1.
         12    1    3    3    0    0  0.23283579473E+02  0.17885307007E+02  0.12122127787E+02  0.31764056132E+02  0.00000000000E+00 0. -1.
</event>
<event>
 7    1  0.3597718E-013  0.7246158E+02  0.7816164E-02  0.1226708E+00
        -11   -1    0    0    0    0  0.00000000000E+00  0.00000000000E+00  0.45593999997E+02  0.45594000000E+02  0.51100000000E-03 0. -1.
         11   -1    0    0    0    0 -0.00000000000E+00 -0.00000000000E+00 -0.45593999997E+02  0.45594000000E+02  0.51100000000E-03 0.  1.
    9900012    2    1    2    0    0  0.32834550330E+01  0.11161923951E+02 -0.14673421000E+02  0.72461577301E+02  0.70000009128E+02 0.  0.
         12    1    1    2    0    0 -0.32834550330E+01 -0.11161923951E+02  0.14673421000E+02  0.18726422699E+02  0.00000000000E+00 0. -1.
         11    1    3    3    0    0 -0.10570547644E+02  0.17829119408E+02 -0.83549230077E+01  0.22347678069E+02  0.51100000000E-03 0. -1.
        -11    1    3    3    0    0  0.12872524909E+02  0.15175519769E+02 -0.16635595286E+02  0.25937257538E+02  0.51100000000E-03 0.  1.
         12    1    3    3    0    0  0.98147776808E+00 -0.21842715226E+02  0.10317097294E+02  0.24176641694E+02  0.00000000000E+00 0. -1.
</event>
<event>
 7    1  0.3597718E-013  0.7246159E+02  0.7816164E-02  0.1226708E+00
        -11   -1    0    0    0    0  0.00000000000E+00  0.00000000000E+00  0.45593999997E+02  0.45594000000E+02  0.51100000000E-03 0. -1.
         11   -1    0    0    0    0 -0.00000000000E+00 -0.00000000000E+00 -0.45593999997E+02  0.45594000000E+02  0.51100000000E-03 0.  1.
    9900012    2    1    2    0    0 -0.54113371035E+01 -0.99760541590E+01  0.14895448645E+02  0.72461585069E+02  0.70000019247E+02 0.  0.
         12    1    1    2    0    0  0.54113371035E+01  0.99760541590E+01 -0.14895448645E+02  0.18726414931E+02  0.00000000000E+00 0. -1.
         11    1    3    3    0    0 -0.85704802561E-01 -0.91367520504E+00  0.24755298610E+02  0.24772302219E+02  0.51100000000E-03 0. -1.
        -11    1    3    3    0    0  0.93994267916E+01 -0.74162585742E+01  0.14728934937E+02  0.18981349791E+02  0.51100000000E-03 0.  1.
        -12    1    3    3    0    0 -0.14725059093E+02 -0.16461203798E+01 -0.24588784902E+02  0.28707933059E+02  0.00000000000E+00 0.  1.
</event>
<event>
 7    1  0.3597718E-013  0.7246139E+02  0.7816164E-02  0.1226709E+00
        -11   -1    0    0    0    0  0.00000000000E+00  0.00000000000E+00  0.45593999997E+02  0.45594000000E+02  0.51100000000E-03 0. -1.
         11   -1    0    0    0    0 -0.00000000000E+00 -0.00000000000E+00 -0.45593999997E+02  0.45594000000E+02  0.51100000000E-03 0.  1.
    9900012    2    1    2    0    0 -0.90849587359E-01  0.13360111996E+02 -0.13121935784E+02  0.72461386720E+02  0.69999760860E+02 0.  0.
         12    1    1    2    0    0  0.90849587359E-01 -0.13360111996E+02  0.13121935784E+02  0.18726613280E+02  0.00000000000E+00 0. -1.
         11    1    3    3    0    0  0.40290486872E-01  0.44480028889E+00  0.45383122504E+01  0.45602356259E+01  0.51100000000E-03 0. -1.
        -11    1    3    3    0    0 -0.23752862929E+01  0.34892531356E+02  0.60516438044E+01  0.35493001034E+02  0.51100000000E-03 0.  1.
        -12    1    3    3    0    0  0.22441462186E+01 -0.21977219649E+02 -0.23711891839E+02  0.32408150060E+02  0.00000000000E+00 0.  1.
</event>
<event>
 7    1  0.3597718E-013  0.7246158E+02  0.7816164E-02  0.1226708E+00
        -11   -1    0    0    0    0  0.00000000000E+00  0.00000000000E+00  0.45593999997E+02  0.45594000000E+02  0.51100000000E-03 0.  1.
         11   -1    0    0    0    0 -0.00000000000E+00 -0.00000000000E+00 -0.45593999997E+02  0.45594000000E+02  0.51100000000E-03 0. -1.
    9900012    2    1    2    0    0 -0.56149921248E+01 -0.45605744635E+01  0.17272866324E+02  0.72461577836E+02  0.70000009825E+02 0.  0.
         12    1    1    2    0    0  0.56149921248E+01  0.45605744635E+01 -0.17272866324E+02  0.18726422164E+02  0.00000000000E+00 0. -1.
         11    1    3    3    0    0 -0.97495037473E+01 -0.65470074471E+01  0.19529992330E+02  0.22788960716E+02  0.51100000000E-03 0. -1.
        -11    1    3    3    0    0 -0.15292991840E+02 -0.10869569057E+02  0.12083314566E+02  0.22316577293E+02  0.51100000000E-03 0.  1.
         12    1    3    3    0    0  0.19427503463E+02  0.12856002040E+02 -0.14340440572E+02  0.27356039828E+02  0.00000000000E+00 0. -1.
</event>
<event>
 7    1  0.3597718E-013  0.7246159E+02  0.7816164E-02  0.1226708E+00
        -11   -1    0    0    0    0  0.00000000000E+00  0.00000000000E+00  0.45593999997E+02  0.45594000000E+02  0.51100000000E-03 0. -1.
         11   -1    0    0    0    0 -0.00000000000E+00 -0.00000000000E+00 -0.45593999997E+02  0.45594000000E+02  0.51100000000E-03 0.  1.
    9900012    2    1    2    0    0 -0.16885537043E+02  0.80463740203E+01  0.90167934465E+00  0.72461587590E+02  0.70000022531E+02 0.  0.
         12    1    1    2    0    0  0.16885537043E+02 -0.80463740203E+01 -0.90167934465E+00  0.18726412410E+02  0.00000000000E+00 0. -1.
         11    1    3    3    0    0  0.12257883302E+02  0.12768849252E+02  0.17395848848E+02  0.24817630259E+02  0.51100000000E-03 0. -1.
        -11    1    3    3    0    0 -0.18970182051E+02  0.12590490458E+02 -0.19540309629E+01  0.22851837875E+02  0.51100000000E-03 0.  1.
        -12    1    3    3    0    0 -0.10173238294E+02 -0.17312965689E+02 -0.14540138541E+02  0.24792119456E+02  0.00000000000E+00 0.  1.
</event>
<event>
 7    1  0.3597718E-013  0.7246171E+02  0.7816164E-02  0.1226708E+00
        -11   -1    0    0    0    0  0.00000000000E+00  0.00000000000E+00  0.45593999997E+02  0.45594000000E+02  0.51100000000E-03 0.  1.
         11   -1    0    0    0    0 -0.00000000000E+00 -0.00000000000E+00 -0.45593999997E+02  0.45594000000E+02  0.51100000000E-03 0. -1.
    9900012    2    1    2    0    0  0.12297163880E+02 -0.79337195889E+01  0.11683733695E+02  0.72461714222E+02  0.70000187492E+02 0.  0.
         12    1    1    2    0    0 -0.12297163880E+02  0.79337195889E+01 -0.11683733695E+02  0.18726285778E+02  0.00000000000E+00 0. -1.
         11    1    3    3    0    0  0.52200715794E+01  0.62118447249E+01 -0.26147678476E+01  0.85248562063E+01  0.51100000000E-03 0. -1.
        -11    1    3    3    0    0 -0.18323583765E+02  0.13334388010E+02  0.13759265163E+02  0.26511827619E+02  0.51100000000E-03 0.  1.
         12    1    3    3    0    0  0.25400676066E+02 -0.27479952324E+02  0.53923637940E+00  0.37425030397E+02  0.00000000000E+00 0. -1.
</event>
<event>
 7    1  0.3597718E-013  0.7246160E+02  0.7816164E-02  0.1226708E+00
        -11   -1    0    0    0    0  0.00000000000E+00  0.00000000000E+00  0.45593999997E+02  0.45594000000E+02  0.51100000000E-03 0.  1.
         11   -1    0    0    0    0 -0.00000000000E+00 -0.00000000000E+00 -0.45593999997E+02  0.45594000000E+02  0.51100000000E-03 0. -1.
    9900012    2    1    2    0    0  0.13677489164E+02 -0.11298645824E+02 -0.59954232291E+01  0.72461595994E+02  0.70000033479E+02 0.  0.
         12    1    1    2    0    0 -0.13677489164E+02  0.11298645824E+02  0.59954232291E+01  0.18726404006E+02  0.00000000000E+00 0. -1.
         11    1    3    3    0    0  0.26826517556E+02  0.91290256957E+01 -0.21351136619E+02  0.35480588911E+02  0.51100000000E-03 0. -1.
        -11    1    3    3    0    0  0.39938776282E+01  0.27137770068E+01  0.25858372056E+01  0.54774262630E+01  0.51100000000E-03 0.  1.
        -12    1    3    3    0    0 -0.17142906020E+02 -0.23141448526E+02  0.12769876184E+02  0.31503580820E+02  0.00000000000E+00 0.  1.
</event>
<event>
 7    1  0.3597718E-013  0.7246160E+02  0.7816164E-02  0.1226708E+00
        -11   -1    0    0    0    0  0.00000000000E+00  0.00000000000E+00  0.45593999997E+02  0.45594000000E+02  0.51100000000E-03 0. -1.
         11   -1    0    0    0    0 -0.00000000000E+00 -0.00000000000E+00 -0.45593999997E+02  0.45594000000E+02  0.51100000000E-03 0.  1.
    9900012    2    1    2    0    0 -0.39797591793E+01  0.15829509975E+02 -0.91796656582E+01  0.72461598029E+02  0.70000036129E+02 0.  0.
         12    1    1    2    0    0  0.39797591793E+01 -0.15829509975E+02  0.91796656582E+01  0.18726401971E+02  0.00000000000E+00 0. -1.
         11    1    3    3    0    0 -0.12089027697E+02  0.15786678984E+02  0.24042985705E+01  0.20028591460E+02  0.51100000000E-03 0. -1.
        -11    1    3    3    0    0 -0.42732832368E+01  0.23665507165E+02 -0.88375047228E+01  0.25620668785E+02  0.51100000000E-03 0.  1.
        -12    1    3    3    0    0  0.12382551754E+02 -0.23622676174E+02 -0.27464595058E+01  0.26812337783E+02  0.00000000000E+00 0.  1.
</event>
<event>
 7    1  0.3597718E-013  0.7246151E+02  0.7816164E-02  0.1226708E+00
        -11   -1    0    0    0    0  0.00000000000E+00  0.00000000000E+00  0.45593999997E+02  0.45594000000E+02  0.51100000000E-03 0.  1.
         11   -1    0    0    0    0 -0.00000000000E+00 -0.00000000000E+00 -0.45593999997E+02  0.45594000000E+02  0.51100000000E-03 0. -1.
    9900012    2    1    2    0    0 -0.51389599305E+01 -0.12369007425E+02  0.13087410788E+02  0.72461506069E+02  0.69999916334E+02 0.  0.
         12    1    1    2    0    0  0.51389599305E+01  0.12369007425E+02 -0.13087410788E+02  0.18726493931E+02  0.00000000000E+00 0. -1.
         11    1    3    3    0    0  0.61822961212E+01 -0.24692509238E+02  0.31723917071E+01  0.25651605549E+02  0.51100000000E-03 0. -1.
        -11    1    3    3    0    0  0.94511480122E+01 -0.10986713053E+02  0.23240245948E+01  0.14677641262E+02  0.51100000000E-03 0.  1.
        -12    1    3    3    0    0 -0.20772404064E+02  0.23310214866E+02  0.75909944858E+01  0.32132259258E+02  0.00000000000E+00 0.  1.
</event>
<event>
 7    1  0.3597718E-013  0.7246157E+02  0.7816164E-02  0.1226708E+00
        -11   -1    0    0    0    0  0.00000000000E+00  0.00000000000E+00  0.45593999997E+02  0.45594000000E+02  0.51100000000E-03 0.  1.
         11   -1    0    0    0    0 -0.00000000000E+00 -0.00000000000E+00 -0.45593999997E+02  0.45594000000E+02  0.51100000000E-03 0. -1.
    9900012    2    1    2    0    0  0.18505049412E+02 -0.21505647428E+01  0.19018966734E+01  0.72461574997E+02  0.70000006126E+02 0.  0.
         12    1    1    2    0    0 -0.18505049412E+02  0.21505647428E+01 -0.19018966734E+01  0.18726425003E+02  0.00000000000E+00 0. -1.
         11    1    3    3    0    0  0.27263432851E+02 -0.26543353063E+02 -0.10917012171E+02  0.39585673136E+02  0.51100000000E-03 0. -1.
        -11    1    3    3    0    0 -0.83441592078E+01  0.68148404302E+01 -0.55052409785E+00  0.10787498321E+02  0.51100000000E-03 0.  1.
        -12    1    3    3    0    0 -0.41422423174E+00  0.17577947890E+02  0.13369432943E+02  0.22088403540E+02  0.00000000000E+00 0.  1.
</event>
<event>
 7    1  0.3597718E-013  0.7246146E+02  0.7816164E-02  0.1226708E+00
        -11   -1    0    0    0    0  0.00000000000E+00  0.00000000000E+00  0.45593999997E+02  0.45594000000E+02  0.51100000000E-03 0. -1.
         11   -1    0    0    0    0 -0.00000000000E+00 -0.00000000000E+00 -0.45593999997E+02  0.45594000000E+02  0.51100000000E-03 0.  1.
    9900012    2    1    2    0    0 -0.17955453275E+02  0.36155041518E+01 -0.39004128037E+01  0.72461457537E+02  0.69999853112E+02 0.  0.
         12    1    1    2    0    0  0.17955453275E+02 -0.36155041518E+01  0.39004128037E+01  0.18726542463E+02  0.00000000000E+00 0. -1.
         11    1    3    3    0    0 -0.37543212190E+01 -0.80471930832E+01 -0.16238090119E+02  0.18507506999E+02  0.51100000000E-03 0. -1.
        -11    1    3    3    0    0  0.97771492159E+01 -0.43353467063E+01 -0.12110430534E+02  0.16157054367E+02  0.51100000000E-03 0.  1.
         12    1    3    3    0    0 -0.23978281272E+02  0.15998043941E+02  0.24448107849E+02  0.37796896170E+02  0.00000000000E+00 0. -1.
</event>
<event>
 7    1  0.3597718E-013  0.7246156E+02  0.7816164E-02  0.1226708E+00
        -11   -1    0    0    0    0  0.00000000000E+00  0.00000000000E+00  0.45593999997E+02  0.45594000000E+02  0.51100000000E-03 0.  1.
         11   -1    0    0    0    0 -0.00000000000E+00 -0.00000000000E+00 -0.45593999997E+02  0.45594000000E+02  0.51100000000E-03 0. -1.
    9900012    2    1    2    0    0 -0.49300065043E+01  0.14743327407E+02  0.10440725333E+02  0.72461563803E+02  0.69999991544E+02 0.  0.
         12    1    1    2    0    0  0.49300065043E+01 -0.14743327407E+02 -0.10440725333E+02  0.18726436197E+02  0.00000000000E+00 0. -1.
         11    1    3    3    0    0  0.16604418771E+02  0.14219720327E+02 -0.20902162971E+01  0.21960787175E+02  0.51100000000E-03 0. -1.
        -11    1    3    3    0    0 -0.57808980514E+01  0.95751905977E+01  0.25721868659E+02  0.28048486320E+02  0.51100000000E-03 0.  1.
         12    1    3    3    0    0 -0.15753527224E+02 -0.90515835184E+01 -0.13190927029E+02  0.22452290308E+02  0.00000000000E+00 0. -1.
</event>
<event>
 7    1  0.3597718E-013  0.7246156E+02  0.7816164E-02  0.1226708E+00
        -11   -1    0    0    0    0  0.00000000000E+00  0.00000000000E+00  0.45593999997E+02  0.45594000000E+02  0.51100000000E-03 0.  1.
         11   -1    0    0    0    0 -0.00000000000E+00 -0.00000000000E+00 -0.45593999997E+02  0.45594000000E+02  0.51100000000E-03 0. -1.
    9900012    2    1    2    0    0  0.53379673715E+00 -0.98867418317E+01  0.15894870439E+02  0.72461561223E+02  0.69999988183E+02 0.  0.
         12    1    1    2    0    0 -0.53379673715E+00  0.98867418317E+01 -0.15894870439E+02  0.18726438777E+02  0.00000000000E+00 0. -1.
         11    1    3    3    0    0 -0.32555151509E+01 -0.21531186980E+02  0.68878715023E+01  0.22839289958E+02  0.51100000000E-03 0.  1.
        -11    1    3    3    0    0 -0.69147678992E+01 -0.28561620214E+01 -0.16657983504E+02  0.18260889663E+02  0.51100000000E-03 0. -1.
        -12    1    3    3    0    0  0.10704079787E+02  0.14500607170E+02  0.25664982440E+02  0.31361381603E+02  0.00000000000E+00 0.  1.
</event>
<event>
 7    1  0.3597718E-013  0.7246155E+02  0.7816164E-02  0.1226708E+00
        -11   -1    0    0    0    0  0.00000000000E+00  0.00000000000E+00  0.45593999997E+02  0.45594000000E+02  0.51100000000E-03 0. -1.
         11   -1    0    0    0    0 -0.00000000000E+00 -0.00000000000E+00 -0.45593999997E+02  0.45594000000E+02  0.51100000000E-03 0.  1.
    9900012    2    1    2    0    0  0.17379275111E+02  0.64501857181E+01 -0.26525028472E+01  0.72461551577E+02  0.69999975617E+02 0.  0.
         12    1    1    2    0    0 -0.17379275111E+02 -0.64501857181E+01  0.26525028472E+01  0.18726448423E+02  0.00000000000E+00 0. -1.
         11    1    3    3    0    0  0.27249071389E+02  0.74056403937E+01  0.21789681675E+02  0.35667150559E+02  0.51100000000E-03 0. -1.
        -11    1    3    3    0    0 -0.11880290725E+01 -0.90035324631E+01  0.59344801164E+00  0.91009444947E+01  0.51100000000E-03 0.  1.
        -12    1    3    3    0    0 -0.86817672057E+01  0.80480777874E+01 -0.25035632534E+02  0.27693456524E+02  0.00000000000E+00 0.  1.
</event>
<event>
 7    1  0.3597718E-013  0.7246155E+02  0.7816164E-02  0.1226708E+00
        -11   -1    0    0    0    0  0.00000000000E+00  0.00000000000E+00  0.45593999997E+02  0.45594000000E+02  0.51100000000E-03 0.  1.
         11   -1    0    0    0    0 -0.00000000000E+00 -0.00000000000E+00 -0.45593999997E+02  0.45594000000E+02  0.51100000000E-03 0. -1.
    9900012    2    1    2    0    0 -0.10378862889E+02 -0.23445991723E+00 -0.15585385283E+02  0.72461548101E+02  0.69999971089E+02 0.  0.
         12    1    1    2    0    0  0.10378862889E+02  0.23445991723E+00  0.15585385283E+02  0.18726451899E+02  0.00000000000E+00 0. -1.
         11    1    3    3    0    0 -0.12586785404E+02 -0.28090681685E+02 -0.10223037358E+02  0.32434920340E+02  0.51100000000E-03 0. -1.
        -11    1    3    3    0    0  0.71857535016E+01 -0.32188404186E+01  0.94282457565E+00  0.79300003447E+01  0.51100000000E-03 0.  1.
        -12    1    3    3    0    0 -0.49778309864E+01  0.31075062187E+02 -0.63051725001E+01  0.32096627416E+02  0.00000000000E+00 0.  1.
</event>
<event>
 7    1  0.3597718E-013  0.7246159E+02  0.7816164E-02  0.1226708E+00
        -11   -1    0    0    0    0  0.00000000000E+00  0.00000000000E+00  0.45593999997E+02  0.45594000000E+02  0.51100000000E-03 0.  1.
         11   -1    0    0    0    0 -0.00000000000E+00 -0.00000000000E+00 -0.45593999997E+02  0.45594000000E+02  0.51100000000E-03 0. -1.
    9900012    2    1    2    0    0 -0.89749065350E+01 -0.95421620819E+01  0.13381956463E+02  0.72461586481E+02  0.70000021086E+02 0.  0.
         12    1    1    2    0    0  0.89749065350E+01  0.95421620819E+01 -0.13381956463E+02  0.18726413519E+02  0.00000000000E+00 0. -1.
         11    1    3    3    0    0 -0.16949305979E+02  0.23443901198E+02  0.15391838433E+02  0.32768951268E+02  0.51100000000E-03 0. -1.
        -11    1    3    3    0    0  0.56087972465E+00  0.17700957298E+01  0.32740566889E+01  0.37639437326E+01  0.51100000000E-03 0.  1.
        -12    1    3    3    0    0  0.74135197196E+01 -0.34756159010E+02 -0.52839386592E+01  0.35928691481E+02  0.00000000000E+00 0.  1.
</event>
<event>
 7    1  0.3597718E-013  0.7246159E+02  0.7816164E-02  0.1226708E+00
        -11   -1    0    0    0    0  0.00000000000E+00  0.00000000000E+00  0.45593999997E+02  0.45594000000E+02  0.51100000000E-03 0. -1.
         11   -1    0    0    0    0 -0.00000000000E+00 -0.00000000000E+00 -0.45593999997E+02  0.45594000000E+02  0.51100000000E-03 0.  1.
    9900012    2    1    2    0    0 -0.15116661429E+02  0.10634343184E+02  0.30125750349E+01  0.72461593082E+02  0.70000029685E+02 0.  0.
         12    1    1    2    0    0  0.15116661429E+02 -0.10634343184E+02 -0.30125750349E+01  0.18726406918E+02  0.00000000000E+00 0. -1.
         11    1    3    3    0    0 -0.19105340697E+02  0.20635075860E+02  0.11062850578E+01  0.28143281006E+02  0.51100000000E-03 0.  1.
        -11    1    3    3    0    0  0.12634488269E+02  0.11601948361E+02 -0.81241167678E+01  0.18979904455E+02  0.51100000000E-03 0. -1.
        -12    1    3    3    0    0 -0.86458090008E+01 -0.21602681038E+02  0.10030406745E+02  0.25338407621E+02  0.00000000000E+00 0.  1.
</event>
<event>
 7    1  0.3597718E-013  0.7246157E+02  0.7816164E-02  0.1226708E+00
        -11   -1    0    0    0    0  0.00000000000E+00  0.00000000000E+00  0.45593999997E+02  0.45594000000E+02  0.51100000000E-03 0.  1.
         11   -1    0    0    0    0 -0.00000000000E+00 -0.00000000000E+00 -0.45593999997E+02  0.45594000000E+02  0.51100000000E-03 0. -1.
    9900012    2    1    2    0    0  0.15889920983E+01  0.18583934883E+02  0.16708203248E+01  0.72461570223E+02  0.69999999907E+02 0.  0.
         12    1    1    2    0    0 -0.15889920983E+01 -0.18583934883E+02 -0.16708203248E+01  0.18726429777E+02  0.00000000000E+00 0. -1.
         11    1    3    3    0    0  0.11969765069E+02 -0.21319859333E+02  0.42872199698E+01  0.24823213594E+02  0.51100000000E-03 0. -1.
        -11    1    3    3    0    0 -0.85316364681E+00  0.34500261548E+00  0.59798680936E+01  0.60502675718E+01  0.51100000000E-03 0.  1.
        -12    1    3    3    0    0 -0.95276093238E+01  0.39558791601E+02 -0.85962677385E+01  0.41588089057E+02  0.00000000000E+00 0.  1.
</event>
<event>
 7    1  0.3597718E-013  0.7246151E+02  0.7816164E-02  0.1226708E+00
        -11   -1    0    0    0    0  0.00000000000E+00  0.00000000000E+00  0.45593999997E+02  0.45594000000E+02  0.51100000000E-03 0. -1.
         11   -1    0    0    0    0 -0.00000000000E+00 -0.00000000000E+00 -0.45593999997E+02  0.45594000000E+02  0.51100000000E-03 0.  1.
    9900012    2    1    2    0    0  0.15749667184E+02 -0.64308766081E+01 -0.78277234355E+01  0.72461509551E+02  0.69999920871E+02 0.  0.
         12    1    1    2    0    0 -0.15749667184E+02  0.64308766081E+01  0.78277234355E+01  0.18726490449E+02  0.00000000000E+00 0. -1.
         11    1    3    3    0    0  0.20907636255E+01 -0.24477906916E+01 -0.16595135893E+00  0.32234316996E+01  0.51100000000E-03 0. -1.
        -11    1    3    3    0    0  0.23628697814E+02 -0.28088164609E+02 -0.18363880204E+02  0.41042568729E+02  0.51100000000E-03 0.  1.
         12    1    3    3    0    0 -0.99697942559E+01  0.24105078693E+02  0.10702108127E+02  0.28195509122E+02  0.00000000000E+00 0. -1.
</event>
<event>
 7    1  0.3597718E-013  0.7246156E+02  0.7816164E-02  0.1226708E+00
        -11   -1    0    0    0    0  0.00000000000E+00  0.00000000000E+00  0.45593999997E+02  0.45594000000E+02  0.51100000000E-03 0.  1.
         11   -1    0    0    0    0 -0.00000000000E+00 -0.00000000000E+00 -0.45593999997E+02  0.45594000000E+02  0.51100000000E-03 0. -1.
    9900012    2    1    2    0    0 -0.18079649458E+02  0.41000847331E+01  0.26448605587E+01  0.72461555951E+02  0.69999981316E+02 0.  0.
         12    1    1    2    0    0  0.18079649458E+02 -0.41000847331E+01 -0.26448605587E+01  0.18726444049E+02  0.00000000000E+00 0. -1.
         11    1    3    3    0    0 -0.92750199739E+01 -0.11868448068E+02 -0.20412785281E+02  0.25368639267E+02  0.51100000000E-03 0. -1.
        -11    1    3    3    0    0 -0.87458620515E+01 -0.64728388874E+01  0.22097401220E+02  0.24630933544E+02  0.51100000000E-03 0.  1.
        -12    1    3    3    0    0 -0.58767432131E-01  0.22441371689E+02  0.96024461900E+00  0.22461983141E+02  0.00000000000E+00 0.  1.
</event>
<event>
 7    1  0.3597718E-013  0.7246161E+02  0.7816164E-02  0.1226708E+00
        -11   -1    0    0    0    0  0.00000000000E+00  0.00000000000E+00  0.45593999997E+02  0.45594000000E+02  0.51100000000E-03 0. -1.
         11   -1    0    0    0    0 -0.00000000000E+00 -0.00000000000E+00 -0.45593999997E+02  0.45594000000E+02  0.51100000000E-03 0.  1.
    9900012    2    1    2    0    0  0.10488305803E+02  0.42076607977E+01 -0.14932143039E+02  0.72461605159E+02  0.70000045418E+02 0.  0.
         12    1    1    2    0    0 -0.10488305803E+02 -0.42076607977E+01  0.14932143039E+02  0.18726394841E+02  0.00000000000E+00 0. -1.
         11    1    3    3    0    0  0.68415383625E+01  0.15240931060E+01 -0.40782014830E+01  0.81093300930E+01  0.51100000000E-03 0. -1.
        -11    1    3    3    0    0  0.32996260662E+02 -0.37235847558E+01 -0.81424601122E+01  0.34189442201E+02  0.51100000000E-03 0.  1.
         12    1    3    3    0    0 -0.29349493221E+02  0.64071524474E+01 -0.27114814433E+01  0.30162832865E+02  0.00000000000E+00 0. -1.
</event>
<event>
 7    1  0.3597718E-013  0.7246160E+02  0.7816164E-02  0.1226708E+00
        -11   -1    0    0    0    0  0.00000000000E+00  0.00000000000E+00  0.45593999997E+02  0.45594000000E+02  0.51100000000E-03 0. -1.
         11   -1    0    0    0    0 -0.00000000000E+00 -0.00000000000E+00 -0.45593999997E+02  0.45594000000E+02  0.51100000000E-03 0.  1.
    9900012    2    1    2    0    0  0.83709622399E+01  0.15716328449E+02 -0.57967281746E+01  0.72461600286E+02  0.70000039069E+02 0.  0.
         12    1    1    2    0    0 -0.83709622399E+01 -0.15716328449E+02  0.57967281746E+01  0.18726399714E+02  0.00000000000E+00 0. -1.
         11    1    3    3    0    0  0.14189974737E+02  0.46770529839E+00 -0.74335521140E+01  0.16025973561E+02  0.51100000000E-03 0. -1.
        -11    1    3    3    0    0  0.39192603059E+01 -0.19715047225E+02  0.12377908497E+01  0.20138912952E+02  0.51100000000E-03 0.  1.
         12    1    3    3    0    0 -0.97382728027E+01  0.34963670376E+02  0.39903308969E+00  0.36296713773E+02  0.00000000000E+00 0. -1.
</event>
<event>
 7    1  0.3597718E-013  0.7246158E+02  0.7816164E-02  0.1226708E+00
        -11   -1    0    0    0    0  0.00000000000E+00  0.00000000000E+00  0.45593999997E+02  0.45594000000E+02  0.51100000000E-03 0. -1.
         11   -1    0    0    0    0 -0.00000000000E+00 -0.00000000000E+00 -0.45593999997E+02  0.45594000000E+02  0.51100000000E-03 0.  1.
    9900012    2    1    2    0    0  0.17443401996E+02 -0.53146202040E+01  0.42616022643E+01  0.72461582431E+02  0.70000015811E+02 0.  0.
         12    1    1    2    0    0 -0.17443401996E+02  0.53146202040E+01 -0.42616022643E+01  0.18726417569E+02  0.00000000000E+00 0. -1.
         11    1    3    3    0    0 -0.12300648492E+02  0.66708746624E+01  0.65389883389E+01  0.15445545987E+02  0.51100000000E-03 0. -1.
        -11    1    3    3    0    0  0.14976804271E+02 -0.87238814304E+01  0.22248130091E+02  0.28202660623E+02  0.51100000000E-03 0.  1.
        -12    1    3    3    0    0  0.14767246217E+02 -0.32616134360E+01 -0.24525516166E+02  0.28813375822E+02  0.00000000000E+00 0.  1.
</event>
<event>
 7    1  0.3597718E-013  0.7246153E+02  0.7816164E-02  0.1226708E+00
        -11   -1    0    0    0    0  0.00000000000E+00  0.00000000000E+00  0.45593999997E+02  0.45594000000E+02  0.51100000000E-03 0. -1.
         11   -1    0    0    0    0 -0.00000000000E+00 -0.00000000000E+00 -0.45593999997E+02  0.45594000000E+02  0.51100000000E-03 0.  1.
    9900012    2    1    2    0    0  0.61323739291E+01  0.10872298600E+02 -0.13959505720E+02  0.72461529783E+02  0.69999947226E+02 0.  0.
         12    1    1    2    0    0 -0.61323739291E+01 -0.10872298600E+02  0.13959505720E+02  0.18726470217E+02  0.00000000000E+00 0. -1.
         11    1    3    3    0    0 -0.11258490049E+00 -0.21595106967E+01  0.20719742148E+01  0.29948688147E+01  0.51100000000E-03 0.  1.
        -11    1    3    3    0    0 -0.21125255710E+01 -0.14379109237E+02  0.19182196256E+02  0.24066121420E+02  0.51100000000E-03 0. -1.
        -12    1    3    3    0    0  0.83574844006E+01  0.27410918533E+02 -0.35213676191E+02  0.45400539548E+02  0.00000000000E+00 0.  1.
</event>
<event>
 7    1  0.3597718E-013  0.7246147E+02  0.7816164E-02  0.1226708E+00
        -11   -1    0    0    0    0  0.00000000000E+00  0.00000000000E+00  0.45593999997E+02  0.45594000000E+02  0.51100000000E-03 0. -1.
         11   -1    0    0    0    0 -0.00000000000E+00 -0.00000000000E+00 -0.45593999997E+02  0.45594000000E+02  0.51100000000E-03 0.  1.
    9900012    2    1    2    0    0  0.86835583005E+01 -0.15299533541E+02  0.64189696592E+01  0.72461465809E+02  0.69999863888E+02 0.  0.
         12    1    1    2    0    0 -0.86835583005E+01  0.15299533541E+02 -0.64189696592E+01  0.18726534191E+02  0.00000000000E+00 0. -1.
         11    1    3    3    0    0 -0.16649392946E+02 -0.97480366361E+01 -0.13192389303E+01  0.19338223686E+02  0.51100000000E-03 0. -1.
        -11    1    3    3    0    0 -0.83893534421E+01  0.10666356126E+02  0.79023093267E+01  0.15703467678E+02  0.51100000000E-03 0.  1.
        -12    1    3    3    0    0  0.33722304689E+02 -0.16217853030E+02 -0.16410073720E+00  0.37419774444E+02  0.00000000000E+00 0.  1.
</event>
<event>
 7    1  0.3597718E-013  0.7246158E+02  0.7816164E-02  0.1226708E+00
        -11   -1    0    0    0    0  0.00000000000E+00  0.00000000000E+00  0.45593999997E+02  0.45594000000E+02  0.51100000000E-03 0.  1.
         11   -1    0    0    0    0 -0.00000000000E+00 -0.00000000000E+00 -0.45593999997E+02  0.45594000000E+02  0.51100000000E-03 0. -1.
    9900012    2    1    2    0    0  0.17420773020E+02  0.66178030699E+01  0.18439845390E+01  0.72461576714E+02  0.70000008363E+02 0.  0.
         12    1    1    2    0    0 -0.17420773020E+02 -0.66178030699E+01 -0.18439845390E+01  0.18726423286E+02  0.00000000000E+00 0. -1.
         11    1    3    3    0    0 -0.27967343327E+01 -0.22551587660E+02 -0.11791562620E+02  0.25601499530E+02  0.51100000000E-03 0. -1.
        -11    1    3    3    0    0  0.16401951471E+01  0.68708648454E+01 -0.79909135672E+01  0.10665539074E+02  0.51100000000E-03 0.  1.
        -12    1    3    3    0    0  0.18577312206E+02  0.22298525885E+02  0.21626460726E+02  0.36194538110E+02  0.00000000000E+00 0.  1.
</event>
<event>
 7    1  0.3597718E-013  0.7246157E+02  0.7816164E-02  0.1226708E+00
        -11   -1    0    0    0    0  0.00000000000E+00  0.00000000000E+00  0.45593999997E+02  0.45594000000E+02  0.51100000000E-03 0. -1.
         11   -1    0    0    0    0 -0.00000000000E+00 -0.00000000000E+00 -0.45593999997E+02  0.45594000000E+02  0.51100000000E-03 0.  1.
    9900012    2    1    2    0    0 -0.36590847889E+01  0.95297969736E+01 -0.15699465590E+02  0.72461570771E+02  0.70000000621E+02 0.  0.
         12    1    1    2    0    0  0.36590847889E+01 -0.95297969736E+01  0.15699465590E+02  0.18726429229E+02  0.00000000000E+00 0. -1.
         11    1    3    3    0    0  0.39649409222E+01  0.24047863136E+01  0.95297152343E+01  0.10598076544E+02  0.51100000000E-03 0. -1.
        -11    1    3    3    0    0 -0.23636685685E+02  0.21624983653E+02 -0.52986655427E+01  0.32471659720E+02  0.51100000000E-03 0.  1.
         12    1    3    3    0    0  0.16012659974E+02 -0.14499972993E+02 -0.19930515282E+02  0.29391834506E+02  0.00000000000E+00 0. -1.
</event>
<event>
 7    1  0.3597718E-013  0.7246158E+02  0.7816164E-02  0.1226708E+00
        -11   -1    0    0    0    0  0.00000000000E+00  0.00000000000E+00  0.45593999997E+02  0.45594000000E+02  0.51100000000E-03 0. -1.
         11   -1    0    0    0    0 -0.00000000000E+00 -0.00000000000E+00 -0.45593999997E+02  0.45594000000E+02  0.51100000000E-03 0.  1.
    9900012    2    1    2    0    0 -0.97835014922E+01 -0.96518211326E+01  0.12720229002E+02  0.72461580735E+02  0.70000013601E+02 0.  0.
         12    1    1    2    0    0  0.97835014922E+01  0.96518211326E+01 -0.12720229002E+02  0.18726419265E+02  0.00000000000E+00 0. -1.
         11    1    3    3    0    0  0.15164950790E+02  0.16926077223E+02 -0.13985813013E+02  0.26684654551E+02  0.51100000000E-03 0. -1.
        -11    1    3    3    0    0 -0.30294890061E+01 -0.96698800944E+00  0.84668567320E+00  0.32908579943E+01  0.51100000000E-03 0.  1.
        -12    1    3    3    0    0 -0.21918963276E+02 -0.25610910346E+02  0.25859356342E+02  0.42486068190E+02  0.00000000000E+00 0.  1.
</event>
<event>
 7    1  0.3597718E-013  0.7246157E+02  0.7816164E-02  0.1226708E+00
        -11   -1    0    0    0    0  0.00000000000E+00  0.00000000000E+00  0.45593999997E+02  0.45594000000E+02  0.51100000000E-03 0. -1.
         11   -1    0    0    0    0 -0.00000000000E+00 -0.00000000000E+00 -0.45593999997E+02  0.45594000000E+02  0.51100000000E-03 0.  1.
    9900012    2    1    2    0    0  0.13163274238E+02 -0.11635128990E+02 -0.64831509187E+01  0.72461567848E+02  0.69999996814E+02 0.  0.
         12    1    1    2    0    0 -0.13163274238E+02  0.11635128990E+02  0.64831509187E+01  0.18726432152E+02  0.00000000000E+00 0. -1.
         11    1    3    3    0    0  0.54940264759E+00  0.18909786276E+02  0.15070518000E+02  0.24186822308E+02  0.51100000000E-03 0. -1.
        -11    1    3    3    0    0  0.45338633472E+01 -0.18609945412E+01  0.59594403923E+01  0.77158374519E+01  0.51100000000E-03 0.  1.
        -12    1    3    3    0    0  0.80800082437E+01 -0.28683920725E+02 -0.27513109311E+02  0.40558908089E+02  0.00000000000E+00 0.  1.
</event>
<event>
 7    1  0.3597718E-013  0.7246156E+02  0.7816164E-02  0.1226708E+00
        -11   -1    0    0    0    0  0.00000000000E+00  0.00000000000E+00  0.45593999997E+02  0.45594000000E+02  0.51100000000E-03 0.  1.
         11   -1    0    0    0    0 -0.00000000000E+00 -0.00000000000E+00 -0.45593999997E+02  0.45594000000E+02  0.51100000000E-03 0. -1.
    9900012    2    1    2    0    0  0.15969319782E+02  0.93630451184E+00  0.97356868932E+01  0.72461563080E+02  0.69999990602E+02 0.  0.
         12    1    1    2    0    0 -0.15969319782E+02 -0.93630451184E+00 -0.97356868932E+01  0.18726436920E+02  0.00000000000E+00 0. -1.
         11    1    3    3    0    0 -0.21344570552E+02  0.52846771921E+00  0.33685071398E+00  0.21353768727E+02  0.51100000000E-03 0. -1.
        -11    1    3    3    0    0 -0.52713882110E+01  0.51555039203E+01  0.96016173165E+00  0.74356348186E+01  0.51100000000E-03 0.  1.
        -12    1    3    3    0    0  0.42585278545E+02 -0.47476671277E+01  0.84386744476E+01  0.43672159534E+02  0.00000000000E+00 0.  1.
</event>
<event>
 7    1  0.3597718E-013  0.7246160E+02  0.7816164E-02  0.1226708E+00
        -11   -1    0    0    0    0  0.00000000000E+00  0.00000000000E+00  0.45593999997E+02  0.45594000000E+02  0.51100000000E-03 0. -1.
         11   -1    0    0    0    0 -0.00000000000E+00 -0.00000000000E+00 -0.45593999997E+02  0.45594000000E+02  0.51100000000E-03 0.  1.
    9900012    2    1    2    0    0 -0.16133895423E+02  0.86155388563E+01 -0.40184454987E+01  0.72461601640E+02  0.70000040834E+02 0.  0.
         12    1    1    2    0    0  0.16133895423E+02 -0.86155388563E+01  0.40184454987E+01  0.18726398360E+02  0.00000000000E+00 0. -1.
         11    1    3    3    0    0  0.10404288424E+02 -0.33676586746E+01 -0.88945936684E+00  0.10971849469E+02  0.51100000000E-03 0. -1.
        -11    1    3    3    0    0 -0.46663696800E+01 -0.23769539659E+01 -0.26131736528E+02  0.26651314609E+02  0.51100000000E-03 0.  1.
         12    1    3    3    0    0 -0.21871814167E+02  0.14360151497E+02  0.23002750396E+02  0.34838437562E+02  0.00000000000E+00 0. -1.
</event>
<event>
 7    1  0.3597718E-013  0.7246156E+02  0.7816164E-02  0.1226708E+00
        -11   -1    0    0    0    0  0.00000000000E+00  0.00000000000E+00  0.45593999997E+02  0.45594000000E+02  0.51100000000E-03 0.  1.
         11   -1    0    0    0    0 -0.00000000000E+00 -0.00000000000E+00 -0.45593999997E+02  0.45594000000E+02  0.51100000000E-03 0. -1.
    9900012    2    1    2    0    0 -0.12735558937E+02 -0.12761546209E+02  0.50624090886E+01  0.72461561234E+02  0.69999988197E+02 0.  0.
         12    1    1    2    0    0  0.12735558937E+02  0.12761546209E+02 -0.50624090886E+01  0.18726438766E+02  0.00000000000E+00 0. -1.
         11    1    3    3    0    0 -0.18671119367E+02  0.18555977928E+02 -0.16124748315E+02  0.30869767148E+02  0.51100000000E-03 0. -1.
        -11    1    3    3    0    0  0.47107849990E+01 -0.16506702853E+01  0.72228302709E+01  0.87798340007E+01  0.51100000000E-03 0.  1.
        -12    1    3    3    0    0  0.12247754316E+01 -0.29666853852E+02  0.13964327133E+02  0.32811960085E+02  0.00000000000E+00 0.  1.
</event>
<event>
 7    1  0.3597718E-013  0.7246156E+02  0.7816164E-02  0.1226708E+00
        -11   -1    0    0    0    0  0.00000000000E+00  0.00000000000E+00  0.45593999997E+02  0.45594000000E+02  0.51100000000E-03 0.  1.
         11   -1    0    0    0    0 -0.00000000000E+00 -0.00000000000E+00 -0.45593999997E+02  0.45594000000E+02  0.51100000000E-03 0. -1.
    9900012    2    1    2    0    0  0.17114334683E+02  0.58520203286E+01 -0.48510743549E+01  0.72461561044E+02  0.69999987950E+02 0.  0.
         12    1    1    2    0    0 -0.17114334683E+02 -0.58520203286E+01  0.48510743549E+01  0.18726438956E+02  0.00000000000E+00 0. -1.
         11    1    3    3    0    0 -0.15235654745E+01  0.27417826256E+02 -0.68487022927E+01  0.28301292757E+02  0.51100000000E-03 0.  1.
        -11    1    3    3    0    0  0.46989253456E+01 -0.25215107707E+01 -0.14444222415E+02  0.15397190569E+02  0.51100000000E-03 0. -1.
        -12    1    3    3    0    0  0.13938974812E+02 -0.19044295157E+02  0.16441850353E+02  0.28763077719E+02  0.00000000000E+00 0.  1.
</event>
<event>
 7    1  0.3597718E-013  0.7246157E+02  0.7816164E-02  0.1226708E+00
        -11   -1    0    0    0    0  0.00000000000E+00  0.00000000000E+00  0.45593999997E+02  0.45594000000E+02  0.51100000000E-03 0.  1.
         11   -1    0    0    0    0 -0.00000000000E+00 -0.00000000000E+00 -0.45593999997E+02  0.45594000000E+02  0.51100000000E-03 0. -1.
    9900012    2    1    2    0    0 -0.35212717337E+01 -0.81566816090E+01  0.16484789062E+02  0.72461572687E+02  0.70000003117E+02 0.  0.
         12    1    1    2    0    0  0.35212717337E+01  0.81566816090E+01 -0.16484789062E+02  0.18726427313E+02  0.00000000000E+00 0. -1.
         11    1    3    3    0    0  0.38246328274E+01  0.23407777515E+02  0.99411894061E+01  0.25717292073E+02  0.51100000000E-03 0. -1.
        -11    1    3    3    0    0  0.29408253312E+01  0.88677272126E+00 -0.88611679294E+01  0.93784389331E+01  0.51100000000E-03 0.  1.
        -12    1    3    3    0    0 -0.10286729892E+02 -0.32451231846E+02  0.15404767585E+02  0.37365841681E+02  0.00000000000E+00 0.  1.
</event>
<event>
 7    1  0.3597718E-013  0.7246136E+02  0.7816164E-02  0.1226709E+00
        -11   -1    0    0    0    0  0.00000000000E+00  0.00000000000E+00  0.45593999997E+02  0.45594000000E+02  0.51100000000E-03 0. -1.
         11   -1    0    0    0    0 -0.00000000000E+00 -0.00000000000E+00 -0.45593999997E+02  0.45594000000E+02  0.51100000000E-03 0.  1.
    9900012    2    1    2    0    0  0.89551142445E+01  0.99997077740E+01 -0.13057517108E+02  0.72461361761E+02  0.69999728346E+02 0.  0.
         12    1    1    2    0    0 -0.89551142445E+01 -0.99997077740E+01  0.13057517108E+02  0.18726638239E+02  0.00000000000E+00 0. -1.
         11    1    3    3    0    0  0.85096619551E+01 -0.73382166873E+01 -0.45186358332E+01  0.12111227881E+02  0.51100000000E-03 0. -1.
        -11    1    3    3    0    0  0.16467144382E+02 -0.11884157364E+02 -0.16407707141E+02  0.26107717140E+02  0.51100000000E-03 0.  1.
         12    1    3    3    0    0 -0.16021692093E+02  0.29222081825E+02  0.78688258663E+01  0.34242416740E+02  0.00000000000E+00 0. -1.
</event>
<event>
 7    1  0.3597718E-013  0.7246158E+02  0.7816164E-02  0.1226708E+00
        -11   -1    0    0    0    0  0.00000000000E+00  0.00000000000E+00  0.45593999997E+02  0.45594000000E+02  0.51100000000E-03 0.  1.
         11   -1    0    0    0    0 -0.00000000000E+00 -0.00000000000E+00 -0.45593999997E+02  0.45594000000E+02  0.51100000000E-03 0. -1.
    9900012    2    1    2    0    0  0.23601510369E+01 -0.18532505517E+02 -0.12864026852E+01  0.72461577343E+02  0.70000009182E+02 0.  0.
         12    1    1    2    0    0 -0.23601510369E+01  0.18532505517E+02  0.12864026852E+01  0.18726422657E+02  0.00000000000E+00 0. -1.
         11    1    3    3    0    0 -0.29757335762E+01 -0.96067702196E+01 -0.17700424403E+02  0.20358046288E+02  0.51100000000E-03 0. -1.
        -11    1    3    3    0    0 -0.20556789102E+02 -0.38282158275E+01 -0.21543670420E+00  0.20911318176E+02  0.51100000000E-03 0.  1.
         12    1    3    3    0    0  0.25892673715E+02 -0.50975194700E+01  0.16629458422E+02  0.31192212879E+02  0.00000000000E+00 0. -1.
</event>
<event>
 7    1  0.3597718E-013  0.7246153E+02  0.7816164E-02  0.1226708E+00
        -11   -1    0    0    0    0  0.00000000000E+00  0.00000000000E+00  0.45593999997E+02  0.45594000000E+02  0.51100000000E-03 0. -1.
         11   -1    0    0    0    0 -0.00000000000E+00 -0.00000000000E+00 -0.45593999997E+02  0.45594000000E+02  0.51100000000E-03 0.  1.
    9900012    2    1    2    0    0 -0.10428684387E+02  0.55402180730E+01 -0.14533732213E+02  0.72461525522E+02  0.69999941675E+02 0.  0.
         12    1    1    2    0    0  0.10428684387E+02 -0.55402180730E+01  0.14533732213E+02  0.18726474478E+02  0.00000000000E+00 0. -1.
         11    1    3    3    0    0  0.24039879317E+02  0.57855442998E+01 -0.23904377919E+00  0.24727423291E+02  0.51100000000E-03 0. -1.
        -11    1    3    3    0    0 -0.18791034032E+02 -0.14729339410E+02 -0.47066653724E+01  0.24335346692E+02  0.51100000000E-03 0.  1.
        -12    1    3    3    0    0 -0.15677529673E+02  0.14484013183E+02 -0.95880230614E+01  0.23398755539E+02  0.00000000000E+00 0.  1.
</event>
<event>
 7    1  0.3597718E-013  0.7246157E+02  0.7816164E-02  0.1226708E+00
        -11   -1    0    0    0    0  0.00000000000E+00  0.00000000000E+00  0.45593999997E+02  0.45594000000E+02  0.51100000000E-03 0. -1.
         11   -1    0    0    0    0 -0.00000000000E+00 -0.00000000000E+00 -0.45593999997E+02  0.45594000000E+02  0.51100000000E-03 0.  1.
    9900012    2    1    2    0    0  0.21974438832E+00  0.17625591899E+02  0.63221216581E+01  0.72461574830E+02  0.70000005908E+02 0.  0.
         12    1    1    2    0    0 -0.21974438832E+00 -0.17625591899E+02 -0.63221216581E+01  0.18726425170E+02  0.00000000000E+00 0. -1.
         11    1    3    3    0    0  0.10799072215E+02 -0.14345937723E+02 -0.24603514712E+00  0.17957906988E+02  0.51100000000E-03 0. -1.
        -11    1    3    3    0    0 -0.56653497694E+01 -0.98242295239E+01 -0.21080411503E+01  0.11534969072E+02  0.51100000000E-03 0.  1.
        -12    1    3    3    0    0 -0.49139780568E+01  0.41795759146E+02  0.86761979555E+01  0.42968698769E+02  0.00000000000E+00 0.  1.
</event>
<event>
 7    1  0.3597718E-013  0.7246157E+02  0.7816164E-02  0.1226708E+00
        -11   -1    0    0    0    0  0.00000000000E+00  0.00000000000E+00  0.45593999997E+02  0.45594000000E+02  0.51100000000E-03 0.  1.
         11   -1    0    0    0    0 -0.00000000000E+00 -0.00000000000E+00 -0.45593999997E+02  0.45594000000E+02  0.51100000000E-03 0. -1.
    9900012    2    1    2    0    0  0.10952533760E+02  0.78663779201E+01  0.12993887599E+02  0.72461574493E+02  0.70000005469E+02 0.  0.
         12    1    1    2    0    0 -0.10952533760E+02 -0.78663779201E+01 -0.12993887599E+02  0.18726425507E+02  0.00000000000E+00 0. -1.
         11    1    3    3    0    0  0.32266847234E+01  0.20804729157E+01  0.15872263804E+01  0.41544132800E+01  0.51100000000E-03 0. -1.
        -11    1    3    3    0    0  0.32024359470E+02  0.71632001203E+01  0.24235952297E+02  0.40795249961E+02  0.51100000000E-03 0.  1.
         12    1    3    3    0    0 -0.24298510434E+02 -0.13772951159E+01 -0.12829291078E+02  0.27511911251E+02  0.00000000000E+00 0. -1.
</event>
<event>
 7    1  0.3597718E-013  0.7246155E+02  0.7816164E-02  0.1226708E+00
        -11   -1    0    0    0    0  0.00000000000E+00  0.00000000000E+00  0.45593999997E+02  0.45594000000E+02  0.51100000000E-03 0. -1.
         11   -1    0    0    0    0 -0.00000000000E+00 -0.00000000000E+00 -0.45593999997E+02  0.45594000000E+02  0.51100000000E-03 0.  1.
    9900012    2    1    2    0    0  0.70743560743E+01 -0.17078261005E+02 -0.29944038238E+01  0.72461549000E+02  0.69999972260E+02 0.  0.
         12    1    1    2    0    0 -0.70743560743E+01  0.17078261005E+02  0.29944038238E+01  0.18726451000E+02  0.00000000000E+00 0. -1.
         11    1    3    3    0    0 -0.23139001984E+02 -0.15179420613E+02  0.72849457948E+01  0.28616405407E+02  0.51100000000E-03 0. -1.
        -11    1    3    3    0    0  0.15854628252E+01 -0.11516076145E+02  0.85918455549E+00  0.11656410276E+02  0.51100000000E-03 0.  1.
        -12    1    3    3    0    0  0.28627895233E+02  0.96172357535E+01 -0.11138534174E+02  0.32188733317E+02  0.00000000000E+00 0.  1.
</event>
<event>
 7    1  0.3597718E-013  0.7246153E+02  0.7816164E-02  0.1226708E+00
        -11   -1    0    0    0    0  0.00000000000E+00  0.00000000000E+00  0.45593999997E+02  0.45594000000E+02  0.51100000000E-03 0. -1.
         11   -1    0    0    0    0 -0.00000000000E+00 -0.00000000000E+00 -0.45593999997E+02  0.45594000000E+02  0.51100000000E-03 0.  1.
    9900012    2    1    2    0    0  0.10673872607E+02 -0.15037135805E+02 -0.32609531456E+01  0.72461526091E+02  0.69999942417E+02 0.  0.
         12    1    1    2    0    0 -0.10673872607E+02  0.15037135805E+02  0.32609531456E+01  0.18726473909E+02  0.00000000000E+00 0. -1.
         11    1    3    3    0    0 -0.11640558526E+02 -0.18933998910E+02  0.30166972173E+01  0.22429876947E+02  0.51100000000E-03 0. -1.
        -11    1    3    3    0    0 -0.78714969454E+01 -0.10777990071E+02 -0.93975374827E+01  0.16322966800E+02  0.51100000000E-03 0.  1.
        -12    1    3    3    0    0  0.30185928079E+02  0.14674853176E+02  0.31198871198E+01  0.33708682344E+02  0.00000000000E+00 0.  1.
</event>
<event>
 7    1  0.3597718E-013  0.7246153E+02  0.7816164E-02  0.1226708E+00
        -11   -1    0    0    0    0  0.00000000000E+00  0.00000000000E+00  0.45593999997E+02  0.45594000000E+02  0.51100000000E-03 0.  1.
         11   -1    0    0    0    0 -0.00000000000E+00 -0.00000000000E+00 -0.45593999997E+02  0.45594000000E+02  0.51100000000E-03 0. -1.
    9900012    2    1    2    0    0  0.16867571397E+02  0.70940507289E+01 -0.39799516402E+01  0.72461533819E+02  0.69999952484E+02 0.  0.
         12    1    1    2    0    0 -0.16867571397E+02 -0.70940507289E+01  0.39799516402E+01  0.18726466181E+02  0.00000000000E+00 0. -1.
         11    1    3    3    0    0 -0.14162767739E+01 -0.33287058257E+01  0.37487303970E+00  0.36368464954E+01  0.51100000000E-03 0. -1.
        -11    1    3    3    0    0 -0.15161236795E+02  0.21394126424E+02  0.13349699131E+02  0.29424245339E+02  0.51100000000E-03 0.  1.
         12    1    3    3    0    0  0.33445084966E+02 -0.10971369869E+02 -0.17704523811E+02  0.39400441985E+02  0.00000000000E+00 0. -1.
</event>
<event>
 7    1  0.3597718E-013  0.7246158E+02  0.7816164E-02  0.1226708E+00
        -11   -1    0    0    0    0  0.00000000000E+00  0.00000000000E+00  0.45593999997E+02  0.45594000000E+02  0.51100000000E-03 0.  1.
         11   -1    0    0    0    0 -0.00000000000E+00 -0.00000000000E+00 -0.45593999997E+02  0.45594000000E+02  0.51100000000E-03 0. -1.
    9900012    2    1    2    0    0  0.96075999301E+01  0.10416973388E+02  0.12241705768E+02  0.72461583603E+02  0.70000017337E+02 0.  0.
         12    1    1    2    0    0 -0.96075999301E+01 -0.10416973388E+02 -0.12241705768E+02  0.18726416397E+02  0.00000000000E+00 0. -1.
         11    1    3    3    0    0  0.12364932562E+02  0.19246173968E+02 -0.18890876514E+02  0.29667692620E+02  0.51100000000E-03 0. -1.
        -11    1    3    3    0    0  0.39992391202E+01  0.64520841086E+01  0.14917839097E+00  0.75924671444E+01  0.51100000000E-03 0.  1.
        -12    1    3    3    0    0 -0.67565717524E+01 -0.15281284689E+02  0.30983403891E+02  0.35201423838E+02  0.00000000000E+00 0.  1.
</event>
<event>
 7    1  0.3597718E-013  0.7246158E+02  0.7816164E-02  0.1226708E+00
        -11   -1    0    0    0    0  0.00000000000E+00  0.00000000000E+00  0.45593999997E+02  0.45594000000E+02  0.51100000000E-03 0.  1.
         11   -1    0    0    0    0 -0.00000000000E+00 -0.00000000000E+00 -0.45593999997E+02  0.45594000000E+02  0.51100000000E-03 0. -1.
    9900012    2    1    2    0    0 -0.11995822650E+02  0.15551766904E+01  0.14295474422E+02  0.72461576835E+02  0.70000008521E+02 0.  0.
         12    1    1    2    0    0  0.11995822650E+02 -0.15551766904E+01 -0.14295474422E+02  0.18726423165E+02  0.00000000000E+00 0. -1.
         11    1    3    3    0    0  0.36669286835E+01 -0.35150610743E+01 -0.13054751284E+02  0.14008160181E+02  0.51100000000E-03 0. -1.
        -11    1    3    3    0    0  0.88239689059E+01 -0.70493082233E+01 -0.79525530039E+01  0.13812974814E+02  0.51100000000E-03 0.  1.
        -12    1    3    3    0    0 -0.24486720240E+02  0.12119545988E+02  0.35302778709E+02  0.44640441840E+02  0.00000000000E+00 0.  1.
</event>
<event>
 7    1  0.3597718E-013  0.7246157E+02  0.7816164E-02  0.1226708E+00
        -11   -1    0    0    0    0  0.00000000000E+00  0.00000000000E+00  0.45593999997E+02  0.45594000000E+02  0.51100000000E-03 0. -1.
         11   -1    0    0    0    0 -0.00000000000E+00 -0.00000000000E+00 -0.45593999997E+02  0.45594000000E+02  0.51100000000E-03 0.  1.
    9900012    2    1    2    0    0 -0.15131322088E+02  0.10989637762E+02 -0.97470772707E+00  0.72461572113E+02  0.70000002369E+02 0.  0.
         12    1    1    2    0    0  0.15131322088E+02 -0.10989637762E+02  0.97470772707E+00  0.18726427887E+02  0.00000000000E+00 0. -1.
         11    1    3    3    0    0 -0.18408971139E+02  0.17979956639E+02 -0.63849887005E+01  0.26512961738E+02  0.51100000000E-03 0. -1.
        -11    1    3    3    0    0 -0.17930763586E+02 -0.12069467908E+02 -0.43634465454E+01  0.22050487622E+02  0.51100000000E-03 0.  1.
         12    1    3    3    0    0  0.21208412638E+02  0.50791490302E+01  0.97737275188E+01  0.23898122753E+02  0.00000000000E+00 0. -1.
</event>
<event>
 7    1  0.3597718E-013  0.7246155E+02  0.7816164E-02  0.1226708E+00
        -11   -1    0    0    0    0  0.00000000000E+00  0.00000000000E+00  0.45593999997E+02  0.45594000000E+02  0.51100000000E-03 0. -1.
         11   -1    0    0    0    0 -0.00000000000E+00 -0.00000000000E+00 -0.45593999997E+02  0.45594000000E+02  0.51100000000E-03 0.  1.
    9900012    2    1    2    0    0 -0.79464645090E+00  0.13456926447E+02 -0.12998441859E+02  0.72461552842E+02  0.69999977265E+02 0.  0.
         12    1    1    2    0    0  0.79464645090E+00 -0.13456926447E+02  0.12998441859E+02  0.18726447158E+02  0.00000000000E+00 0. -1.
         11    1    3    3    0    0 -0.10895571069E+02 -0.78297478209E+01 -0.17775509719E+02  0.22270769315E+02  0.51100000000E-03 0. -1.
        -11    1    3    3    0    0  0.16509683107E+02  0.27677855138E+02 -0.92214051168E+01  0.33521151739E+02  0.51100000000E-03 0.  1.
        -12    1    3    3    0    0 -0.64087584884E+01 -0.63911808695E+01  0.13998472977E+02  0.16669631788E+02  0.00000000000E+00 0.  1.
</event>
<event>
 7    1  0.3597718E-013  0.7246158E+02  0.7816164E-02  0.1226708E+00
        -11   -1    0    0    0    0  0.00000000000E+00  0.00000000000E+00  0.45593999997E+02  0.45594000000E+02  0.51100000000E-03 0. -1.
         11   -1    0    0    0    0 -0.00000000000E+00 -0.00000000000E+00 -0.45593999997E+02  0.45594000000E+02  0.51100000000E-03 0.  1.
    9900012    2    1    2    0    0 -0.98307295214E+01  0.75450059968E+01 -0.14039531057E+02  0.72461580408E+02  0.70000013175E+02 0.  0.
         12    1    1    2    0    0  0.98307295214E+01 -0.75450059968E+01  0.14039531057E+02  0.18726419592E+02  0.00000000000E+00 0. -1.
         11    1    3    3    0    0  0.65008881251E+01  0.20629719961E+02  0.96204815743E+01  0.23672780954E+02  0.51100000000E-03 0. -1.
        -11    1    3    3    0    0  0.88070710611E+01 -0.11354226098E+02 -0.17875764231E+02  0.22935254480E+02  0.51100000000E-03 0.  1.
         12    1    3    3    0    0 -0.25138688708E+02 -0.17304878670E+01 -0.57842484002E+01  0.25853544975E+02  0.00000000000E+00 0. -1.
</event>
<event>
 7    1  0.3597718E-013  0.7246151E+02  0.7816164E-02  0.1226708E+00
        -11   -1    0    0    0    0  0.00000000000E+00  0.00000000000E+00  0.45593999997E+02  0.45594000000E+02  0.51100000000E-03 0. -1.
         11   -1    0    0    0    0 -0.00000000000E+00 -0.00000000000E+00 -0.45593999997E+02  0.45594000000E+02  0.51100000000E-03 0.  1.
    9900012    2    1    2    0    0  0.15545530780E+02  0.95990515452E+01 -0.41080500465E+01  0.72461510927E+02  0.69999922663E+02 0.  0.
         12    1    1    2    0    0 -0.15545530780E+02 -0.95990515452E+01  0.41080500465E+01  0.18726489073E+02  0.00000000000E+00 0. -1.
         11    1    3    3    0    0  0.25950051312E+00  0.20802606062E+02  0.12392265053E+02  0.24215366875E+02  0.51100000000E-03 0. -1.
        -11    1    3    3    0    0  0.36890146863E+01  0.14313152863E+02  0.16215380979E+01  0.14869585075E+02  0.51100000000E-03 0.  1.
        -12    1    3    3    0    0  0.11597015581E+02 -0.25516707380E+02 -0.18121853197E+02  0.33376558978E+02  0.00000000000E+00 0.  1.
</event>
<event>
 7    1  0.3597718E-013  0.7246160E+02  0.7816164E-02  0.1226708E+00
        -11   -1    0    0    0    0  0.00000000000E+00  0.00000000000E+00  0.45593999997E+02  0.45594000000E+02  0.51100000000E-03 0.  1.
         11   -1    0    0    0    0 -0.00000000000E+00 -0.00000000000E+00 -0.45593999997E+02  0.45594000000E+02  0.51100000000E-03 0. -1.
    9900012    2    1    2    0    0 -0.77521855144E+01 -0.13529097657E+02  0.10370408679E+02  0.72461595118E+02  0.70000032337E+02 0.  0.
         12    1    1    2    0    0  0.77521855144E+01  0.13529097657E+02 -0.10370408679E+02  0.18726404882E+02  0.00000000000E+00 0. -1.
         11    1    3    3    0    0 -0.18173661710E+01 -0.56952822626E+00 -0.27511280038E+01  0.33460256655E+01  0.51100000000E-03 0. -1.
        -11    1    3    3    0    0 -0.17704833887E+02 -0.41640070886E+01  0.36914147110E+02  0.41151602097E+02  0.51100000000E-03 0.  1.
         12    1    3    3    0    0  0.11770014544E+02 -0.87955623418E+01 -0.23792610428E+02  0.27963967355E+02  0.00000000000E+00 0. -1.
</event>
<event>
 7    1  0.3597718E-013  0.7246159E+02  0.7816164E-02  0.1226708E+00
        -11   -1    0    0    0    0  0.00000000000E+00  0.00000000000E+00  0.45593999997E+02  0.45594000000E+02  0.51100000000E-03 0.  1.
         11   -1    0    0    0    0 -0.00000000000E+00 -0.00000000000E+00 -0.45593999997E+02  0.45594000000E+02  0.51100000000E-03 0. -1.
    9900012    2    1    2    0    0 -0.66805381176E+01  0.58106497631E+01  0.16501062271E+02  0.72461593610E+02  0.70000030373E+02 0.  0.
         12    1    1    2    0    0  0.66805381176E+01 -0.58106497631E+01 -0.16501062271E+02  0.18726406390E+02  0.00000000000E+00 0. -1.
         11    1    3    3    0    0 -0.11986834994E+02 -0.18290734649E+02  0.28147420599E+02  0.35644248818E+02  0.51100000000E-03 0. -1.
        -11    1    3    3    0    0  0.39311446361E+01  0.76257968825E+01  0.75883352085E+01  0.11453798835E+02  0.51100000000E-03 0.  1.
        -12    1    3    3    0    0  0.13751522400E+01  0.16475587529E+02 -0.19234693537E+02  0.25363545958E+02  0.00000000000E+00 0.  1.
</event>
<event>
 7    1  0.3597718E-013  0.7246155E+02  0.7816164E-02  0.1226708E+00
        -11   -1    0    0    0    0  0.00000000000E+00  0.00000000000E+00  0.45593999997E+02  0.45594000000E+02  0.51100000000E-03 0.  1.
         11   -1    0    0    0    0 -0.00000000000E+00 -0.00000000000E+00 -0.45593999997E+02  0.45594000000E+02  0.51100000000E-03 0. -1.
    9900012    2    1    2    0    0 -0.16136382479E+02 -0.91355223870E+01 -0.26152036396E+01  0.72461550821E+02  0.69999974632E+02 0.  0.
         12    1    1    2    0    0  0.16136382479E+02  0.91355223870E+01  0.26152036396E+01  0.18726449179E+02  0.00000000000E+00 0. -1.
         11    1    3    3    0    0 -0.71178936533E+01  0.23354463504E+01  0.20713418698E+02  0.22026448514E+02  0.51100000000E-03 0. -1.
        -11    1    3    3    0    0 -0.20038531365E+02 -0.13076973154E+02  0.71385551934E+00  0.23938662371E+02  0.51100000000E-03 0.  1.
         12    1    3    3    0    0  0.11020042540E+02  0.16060044170E+01 -0.24042477857E+02  0.26496439936E+02  0.00000000000E+00 0. -1.
</event>
<event>
 7    1  0.3597718E-013  0.7246173E+02  0.7816164E-02  0.1226708E+00
        -11   -1    0    0    0    0  0.00000000000E+00  0.00000000000E+00  0.45593999997E+02  0.45594000000E+02  0.51100000000E-03 0. -1.
         11   -1    0    0    0    0 -0.00000000000E+00 -0.00000000000E+00 -0.45593999997E+02  0.45594000000E+02  0.51100000000E-03 0.  1.
    9900012    2    1    2    0    0 -0.52165882581E+01  0.17984890224E+02  0.62761804144E-01  0.72461734797E+02  0.70000214295E+02 0.  0.
         12    1    1    2    0    0  0.52165882581E+01 -0.17984890224E+02 -0.62761804144E-01  0.18726265203E+02  0.00000000000E+00 0. -1.
         11    1    3    3    0    0 -0.24932920415E+02 -0.59446362477E+01  0.10753573339E+02  0.27796196869E+02  0.51100000000E-03 0. -1.
        -11    1    3    3    0    0 -0.70992183873E+01 -0.99789816359E-01  0.18625605098E-01  0.70999441471E+01  0.51100000000E-03 0.  1.
        -12    1    3    3    0    0  0.26815550545E+02  0.24029316288E+02 -0.10709437140E+02  0.37565593781E+02  0.00000000000E+00 0.  1.
</event>
<event>
 7    1  0.3597718E-013  0.7246159E+02  0.7816164E-02  0.1226708E+00
        -11   -1    0    0    0    0  0.00000000000E+00  0.00000000000E+00  0.45593999997E+02  0.45594000000E+02  0.51100000000E-03 0.  1.
         11   -1    0    0    0    0 -0.00000000000E+00 -0.00000000000E+00 -0.45593999997E+02  0.45594000000E+02  0.51100000000E-03 0. -1.
    9900012    2    1    2    0    0 -0.19625992224E+01 -0.11222129375E+02  0.14862384594E+02  0.72461589259E+02  0.70000024705E+02 0.  0.
         12    1    1    2    0    0  0.19625992224E+01  0.11222129375E+02 -0.14862384594E+02  0.18726410741E+02  0.00000000000E+00 0. -1.
         11    1    3    3    0    0 -0.84535032511E+01 -0.65650425636E+01  0.13128017079E+02  0.16938309649E+02  0.51100000000E-03 0. -1.
        -11    1    3    3    0    0 -0.13958280528E+02 -0.14040303610E+02  0.18786109421E+02  0.27292519639E+02  0.51100000000E-03 0.  1.
         12    1    3    3    0    0  0.20449184557E+02  0.93832167991E+01 -0.17051741906E+02  0.28230759972E+02  0.00000000000E+00 0. -1.
</event>
<event>
 7    1  0.3597718E-013  0.7246155E+02  0.7816164E-02  0.1226708E+00
        -11   -1    0    0    0    0  0.00000000000E+00  0.00000000000E+00  0.45593999997E+02  0.45594000000E+02  0.51100000000E-03 0. -1.
         11   -1    0    0    0    0 -0.00000000000E+00 -0.00000000000E+00 -0.45593999997E+02  0.45594000000E+02  0.51100000000E-03 0.  1.
    9900012    2    1    2    0    0 -0.69654170959E+01 -0.17089760077E+02 -0.31785129125E+01  0.72461551347E+02  0.69999975318E+02 0.  0.
         12    1    1    2    0    0  0.69654170959E+01  0.17089760077E+02  0.31785129125E+01  0.18726448653E+02  0.00000000000E+00 0. -1.
         11    1    3    3    0    0 -0.25394326630E+02 -0.19617974304E+01  0.20333761470E+02  0.32591138825E+02  0.51100000000E-03 0. -1.
        -11    1    3    3    0    0 -0.27387073031E+01  0.25271572804E+01 -0.64612123176E+01  0.74588408273E+01  0.51100000000E-03 0.  1.
        -12    1    3    3    0    0  0.21167616837E+02 -0.17655119927E+02 -0.17051062065E+02  0.32411571695E+02  0.00000000000E+00 0.  1.
</event>
<event>
 7    1  0.3597718E-013  0.7246160E+02  0.7816164E-02  0.1226708E+00
        -11   -1    0    0    0    0  0.00000000000E+00  0.00000000000E+00  0.45593999997E+02  0.45594000000E+02  0.51100000000E-03 0. -1.
         11   -1    0    0    0    0 -0.00000000000E+00 -0.00000000000E+00 -0.45593999997E+02  0.45594000000E+02  0.51100000000E-03 0.  1.
    9900012    2    1    2    0    0 -0.19431206104E+01 -0.14018465530E+02 -0.12263154965E+02  0.72461599833E+02  0.70000038479E+02 0.  0.
         12    1    1    2    0    0  0.19431206104E+01  0.14018465530E+02  0.12263154965E+02  0.18726400167E+02  0.00000000000E+00 0. -1.
         11    1    3    3    0    0 -0.14392756280E+02 -0.35907668206E+01 -0.48495750083E+01  0.15606518437E+02  0.51100000000E-03 0. -1.
        -11    1    3    3    0    0 -0.22665977994E+01  0.12943839469E+02 -0.21996490973E+02  0.25622764511E+02  0.51100000000E-03 0.  1.
         12    1    3    3    0    0  0.14716233469E+02 -0.23371538178E+02  0.14582911016E+02  0.31232316885E+02  0.00000000000E+00 0. -1.
</event>
<event>
 7    1  0.3597718E-013  0.7246157E+02  0.7816164E-02  0.1226708E+00
        -11   -1    0    0    0    0  0.00000000000E+00  0.00000000000E+00  0.45593999997E+02  0.45594000000E+02  0.51100000000E-03 0.  1.
         11   -1    0    0    0    0 -0.00000000000E+00 -0.00000000000E+00 -0.45593999997E+02  0.45594000000E+02  0.51100000000E-03 0. -1.
    9900012    2    1    2    0    0  0.11400473163E+01  0.18675878923E+02  0.76885461956E+00  0.72461566841E+02  0.69999995502E+02 0.  0.
         12    1    1    2    0    0 -0.11400473163E+01 -0.18675878923E+02 -0.76885461956E+00  0.18726433159E+02  0.00000000000E+00 0. -1.
         11    1    3    3    0    0 -0.21056619591E+02 -0.90131566767E+01  0.10371373461E+02  0.25143261714E+02  0.51100000000E-03 0. -1.
        -11    1    3    3    0    0  0.56901046879E+01 -0.44431449780E+01  0.45359281804E+01  0.85260467611E+01  0.51100000000E-03 0.  1.
        -12    1    3    3    0    0  0.16506562219E+02  0.32132180578E+02 -0.14138447022E+02  0.38792258366E+02  0.00000000000E+00 0.  1.
</event>
<event>
 7    1  0.3597718E-013  0.7246155E+02  0.7816164E-02  0.1226708E+00
        -11   -1    0    0    0    0  0.00000000000E+00  0.00000000000E+00  0.45593999997E+02  0.45594000000E+02  0.51100000000E-03 0. -1.
         11   -1    0    0    0    0 -0.00000000000E+00 -0.00000000000E+00 -0.45593999997E+02  0.45594000000E+02  0.51100000000E-03 0.  1.
    9900012    2    1    2    0    0 -0.37581198965E+01 -0.11747858169E+02 -0.14090577266E+02  0.72461548003E+02  0.69999970961E+02 0.  0.
         12    1    1    2    0    0  0.37581198965E+01  0.11747858169E+02  0.14090577266E+02  0.18726451997E+02  0.00000000000E+00 0. -1.
         11    1    3    3    0    0 -0.86400397288E+01 -0.70770813509E+01 -0.71849050272E+01  0.13279993504E+02  0.51100000000E-03 0. -1.
        -11    1    3    3    0    0 -0.67959528126E+00 -0.17188060955E+01 -0.32637901472E+02  0.32690193589E+02  0.51100000000E-03 0.  1.
         12    1    3    3    0    0  0.55615151135E+01 -0.29519707225E+01  0.25732229233E+02  0.26491360909E+02  0.00000000000E+00 0. -1.
</event>
<event>
 7    1  0.3597718E-013  0.7246158E+02  0.7816164E-02  0.1226708E+00
        -11   -1    0    0    0    0  0.00000000000E+00  0.00000000000E+00  0.45593999997E+02  0.45594000000E+02  0.51100000000E-03 0. -1.
         11   -1    0    0    0    0 -0.00000000000E+00 -0.00000000000E+00 -0.45593999997E+02  0.45594000000E+02  0.51100000000E-03 0.  1.
    9900012    2    1    2    0    0 -0.11648582261E+02 -0.12769859113E+02 -0.72055443391E+01  0.72461584441E+02  0.70000018429E+02 0.  0.
         12    1    1    2    0    0  0.11648582261E+02  0.12769859113E+02  0.72055443391E+01  0.18726415559E+02  0.00000000000E+00 0. -1.
         11    1    3    3    0    0  0.50268377439E+01  0.10244443700E+02  0.23958286606E+02  0.26537091434E+02  0.51100000000E-03 0. -1.
        -11    1    3    3    0    0 -0.23235894278E+01 -0.14105563304E+00  0.20618561087E+01  0.31096969940E+01  0.51100000000E-03 0.  1.
        -12    1    3    3    0    0 -0.14351830577E+02 -0.22873247180E+02 -0.33225687054E+02  0.42814796013E+02  0.00000000000E+00 0.  1.
</event>
<event>
 7    1  0.3597718E-013  0.7246160E+02  0.7816164E-02  0.1226708E+00
        -11   -1    0    0    0    0  0.00000000000E+00  0.00000000000E+00  0.45593999997E+02  0.45594000000E+02  0.51100000000E-03 0. -1.
         11   -1    0    0    0    0 -0.00000000000E+00 -0.00000000000E+00 -0.45593999997E+02  0.45594000000E+02  0.51100000000E-03 0.  1.
    9900012    2    1    2    0    0  0.90731710431E+01 -0.14885972810E+02 -0.68383699562E+01  0.72461603578E+02  0.70000043358E+02 0.  0.
         12    1    1    2    0    0 -0.90731710431E+01  0.14885972810E+02  0.68383699562E+01  0.18726396422E+02  0.00000000000E+00 0. -1.
         11    1    3    3    0    0  0.34870737185E+01  0.12248158578E+01  0.28033891923E+02  0.28276473501E+02  0.51100000000E-03 0. -1.
        -11    1    3    3    0    0  0.72125801971E+01 -0.64017136008E+01 -0.19716672997E+01  0.98433085052E+01  0.51100000000E-03 0.  1.
        -12    1    3    3    0    0 -0.16264828725E+01 -0.97090750675E+01 -0.32900594580E+02  0.34341821572E+02  0.00000000000E+00 0.  1.
</event>
<event>
 7    1  0.3597718E-013  0.7246159E+02  0.7816164E-02  0.1226708E+00
        -11   -1    0    0    0    0  0.00000000000E+00  0.00000000000E+00  0.45593999997E+02  0.45594000000E+02  0.51100000000E-03 0.  1.
         11   -1    0    0    0    0 -0.00000000000E+00 -0.00000000000E+00 -0.45593999997E+02  0.45594000000E+02  0.51100000000E-03 0. -1.
    9900012    2    1    2    0    0  0.30901944617E+01  0.18231386420E+02  0.29572925199E+01  0.72461592665E+02  0.70000029142E+02 0.  0.
         12    1    1    2    0    0 -0.30901944617E+01 -0.18231386420E+02 -0.29572925199E+01  0.18726407335E+02  0.00000000000E+00 0. -1.
         11    1    3    3    0    0  0.52748470483E+01 -0.10750349134E+02  0.40631117484E+01  0.12645271655E+02  0.51100000000E-03 0. -1.
        -11    1    3    3    0    0 -0.12406168964E+02 -0.10750645944E+02  0.72535381126E+01  0.17947234661E+02  0.51100000000E-03 0.  1.
        -12    1    3    3    0    0  0.10221516377E+02  0.39732381498E+02 -0.83593573410E+01  0.41869086349E+02  0.00000000000E+00 0.  1.
</event>
<event>
 7    1  0.3597718E-013  0.7246161E+02  0.7816164E-02  0.1226708E+00
        -11   -1    0    0    0    0  0.00000000000E+00  0.00000000000E+00  0.45593999997E+02  0.45594000000E+02  0.51100000000E-03 0.  1.
         11   -1    0    0    0    0 -0.00000000000E+00 -0.00000000000E+00 -0.45593999997E+02  0.45594000000E+02  0.51100000000E-03 0. -1.
    9900012    2    1    2    0    0  0.13450094608E+02 -0.63818499473E+01  0.11359783748E+02  0.72461608449E+02  0.70000049704E+02 0.  0.
         12    1    1    2    0    0 -0.13450094608E+02  0.63818499473E+01 -0.11359783748E+02  0.18726391551E+02  0.00000000000E+00 0. -1.
         11    1    3    3    0    0 -0.12182904818E+02 -0.17205207773E+02 -0.93974448798E+01  0.23081471246E+02  0.51100000000E-03 0. -1.
        -11    1    3    3    0    0 -0.57103020609E+01 -0.45746032975E+01 -0.21378862541E+01  0.76226703230E+01  0.51100000000E-03 0.  1.
        -12    1    3    3    0    0  0.31343301487E+02  0.15397961123E+02  0.22895114882E+02  0.41757466881E+02  0.00000000000E+00 0.  1.
</event>
<event>
 7    1  0.3597718E-013  0.7246151E+02  0.7816164E-02  0.1226708E+00
        -11   -1    0    0    0    0  0.00000000000E+00  0.00000000000E+00  0.45593999997E+02  0.45594000000E+02  0.51100000000E-03 0. -1.
         11   -1    0    0    0    0 -0.00000000000E+00 -0.00000000000E+00 -0.45593999997E+02  0.45594000000E+02  0.51100000000E-03 0.  1.
    9900012    2    1    2    0    0  0.56736570901E+01  0.10408941507E+02 -0.14496376504E+02  0.72461511279E+02  0.69999923121E+02 0.  0.
         12    1    1    2    0    0 -0.56736570901E+01 -0.10408941507E+02  0.14496376504E+02  0.18726488721E+02  0.00000000000E+00 0. -1.
         11    1    3    3    0    0  0.19539242109E+02  0.16338783932E+01 -0.65049068173E+01  0.20658299875E+02  0.51100000000E-03 0. -1.
        -11    1    3    3    0    0  0.17922597221E+02  0.73076710964E+01 -0.26405591689E+01  0.19534433726E+02  0.51100000000E-03 0.  1.
        -12    1    3    3    0    0 -0.31788182240E+02  0.14673920172E+01 -0.53509105179E+01  0.32268777678E+02  0.00000000000E+00 0.  1.
</event>
<event>
 7    1  0.3597718E-013  0.7246156E+02  0.7816164E-02  0.1226708E+00
        -11   -1    0    0    0    0  0.00000000000E+00  0.00000000000E+00  0.45593999997E+02  0.45594000000E+02  0.51100000000E-03 0.  1.
         11   -1    0    0    0    0 -0.00000000000E+00 -0.00000000000E+00 -0.45593999997E+02  0.45594000000E+02  0.51100000000E-03 0. -1.
    9900012    2    1    2    0    0 -0.87204255679E+01  0.16008567074E+02 -0.42847919174E+01  0.72461561907E+02  0.69999989074E+02 0.  0.
         12    1    1    2    0    0  0.87204255679E+01 -0.16008567074E+02  0.42847919174E+01  0.18726438093E+02  0.00000000000E+00 0. -1.
         11    1    3    3    0    0  0.13669099717E+02 -0.10097980154E+01 -0.26581897723E+02  0.29907545301E+02  0.51100000000E-03 0. -1.
        -11    1    3    3    0    0  0.20352348054E+01  0.47961026069E+01 -0.23955959613E+01  0.57344277134E+01  0.51100000000E-03 0.  1.
        -12    1    3    3    0    0 -0.24424760090E+02  0.12222262483E+02  0.24692701767E+02  0.36819588893E+02  0.00000000000E+00 0.  1.
</event>
<event>
 7    1  0.3597718E-013  0.7246152E+02  0.7816164E-02  0.1226708E+00
        -11   -1    0    0    0    0  0.00000000000E+00  0.00000000000E+00  0.45593999997E+02  0.45594000000E+02  0.51100000000E-03 0. -1.
         11   -1    0    0    0    0 -0.00000000000E+00 -0.00000000000E+00 -0.45593999997E+02  0.45594000000E+02  0.51100000000E-03 0.  1.
    9900012    2    1    2    0    0 -0.44091534082E+01  0.16177479112E+02 -0.83384437837E+01  0.72461518512E+02  0.69999932544E+02 0.  0.
         12    1    1    2    0    0  0.44091534082E+01 -0.16177479112E+02  0.83384437837E+01  0.18726481488E+02  0.00000000000E+00 0. -1.
         11    1    3    3    0    0 -0.92960580012E+01 -0.16417015824E+02  0.13067446063E+02  0.22949798469E+02  0.51100000000E-03 0. -1.
        -11    1    3    3    0    0  0.30045226472E+01  0.43335422487E-01 -0.16220442356E+02  0.16496417331E+02  0.51100000000E-03 0.  1.
         12    1    3    3    0    0  0.18823819458E+01  0.32551159513E+02 -0.51854474907E+01  0.33015302711E+02  0.00000000000E+00 0. -1.
</event>
<event>
 7    1  0.3597718E-013  0.7246157E+02  0.7816164E-02  0.1226708E+00
        -11   -1    0    0    0    0  0.00000000000E+00  0.00000000000E+00  0.45593999997E+02  0.45594000000E+02  0.51100000000E-03 0. -1.
         11   -1    0    0    0    0 -0.00000000000E+00 -0.00000000000E+00 -0.45593999997E+02  0.45594000000E+02  0.51100000000E-03 0.  1.
    9900012    2    1    2    0    0  0.18098744072E+02 -0.39008390631E+01  0.28103294231E+01  0.72461573917E+02  0.70000004719E+02 0.  0.
         12    1    1    2    0    0 -0.18098744072E+02  0.39008390631E+01 -0.28103294231E+01  0.18726426083E+02  0.00000000000E+00 0. -1.
         11    1    3    3    0    0  0.50263792438E+01 -0.90863147632E+01  0.21899280124E+02  0.24236420414E+02  0.51100000000E-03 0. -1.
        -11    1    3    3    0    0 -0.31773413685E+01 -0.14566640951E+02  0.20417143231E+01  0.15048293072E+02  0.51100000000E-03 0.  1.
        -12    1    3    3    0    0  0.16249706197E+02  0.19752116651E+02 -0.21130665024E+02  0.33176860430E+02  0.00000000000E+00 0.  1.
</event>
<event>
 7    1  0.3597718E-013  0.7246153E+02  0.7816164E-02  0.1226708E+00
        -11   -1    0    0    0    0  0.00000000000E+00  0.00000000000E+00  0.45593999997E+02  0.45594000000E+02  0.51100000000E-03 0.  1.
         11   -1    0    0    0    0 -0.00000000000E+00 -0.00000000000E+00 -0.45593999997E+02  0.45594000000E+02  0.51100000000E-03 0. -1.
    9900012    2    1    2    0    0  0.31541183977E+01  0.16353857635E+02  0.85605899226E+01  0.72461526166E+02  0.69999942515E+02 0.  0.
         12    1    1    2    0    0 -0.31541183977E+01 -0.16353857635E+02 -0.85605899226E+01  0.18726473834E+02  0.00000000000E+00 0. -1.
         11    1    3    3    0    0  0.97710124928E+01 -0.11996365529E+02  0.58638717169E+01  0.16546010480E+02  0.51100000000E-03 0. -1.
        -11    1    3    3    0    0  0.27907149231E+01  0.18412810876E+02  0.24133440853E+02  0.30483481786E+02  0.51100000000E-03 0.  1.
         12    1    3    3    0    0 -0.94076090182E+01  0.99374122881E+01 -0.21436722647E+02  0.25432033900E+02  0.00000000000E+00 0. -1.
</event>
<event>
 7    1  0.3597718E-013  0.7246158E+02  0.7816164E-02  0.1226708E+00
        -11   -1    0    0    0    0  0.00000000000E+00  0.00000000000E+00  0.45593999997E+02  0.45594000000E+02  0.51100000000E-03 0. -1.
         11   -1    0    0    0    0 -0.00000000000E+00 -0.00000000000E+00 -0.45593999997E+02  0.45594000000E+02  0.51100000000E-03 0.  1.
    9900012    2    1    2    0    0 -0.10578521429E+02  0.11216570292E+02  0.10628369295E+02  0.72461580198E+02  0.70000012901E+02 0.  0.
         12    1    1    2    0    0  0.10578521429E+02 -0.11216570292E+02 -0.10628369295E+02  0.18726419802E+02  0.00000000000E+00 0. -1.
         11    1    3    3    0    0 -0.45939133135E+01  0.10198537683E+02  0.12550490051E+02  0.16811573727E+02  0.51100000000E-03 0. -1.
        -11    1    3    3    0    0 -0.67194727293E+00 -0.26660434331E+02  0.36597840774E+01  0.26918846402E+02  0.51100000000E-03 0.  1.
         12    1    3    3    0    0 -0.53126608427E+01  0.27678466940E+02 -0.55819048327E+01  0.28731160069E+02  0.00000000000E+00 0. -1.
</event>
<event>
 7    1  0.3597718E-013  0.7246152E+02  0.7816164E-02  0.1226708E+00
        -11   -1    0    0    0    0  0.00000000000E+00  0.00000000000E+00  0.45593999997E+02  0.45594000000E+02  0.51100000000E-03 0.  1.
         11   -1    0    0    0    0 -0.00000000000E+00 -0.00000000000E+00 -0.45593999997E+02  0.45594000000E+02  0.51100000000E-03 0. -1.
    9900012    2    1    2    0    0 -0.12284706977E+02  0.35715180035E+00  0.14129382433E+02  0.72461520597E+02  0.69999935260E+02 0.  0.
         12    1    1    2    0    0  0.12284706977E+02 -0.35715180035E+00 -0.14129382433E+02  0.18726479403E+02  0.00000000000E+00 0. -1.
         11    1    3    3    0    0 -0.58085661021E+01 -0.22308322596E+02 -0.15060912289E+01  0.23101277199E+02  0.51100000000E-03 0. -1.
        -11    1    3    3    0    0  0.35965074987E+01  0.62794043250E+01 -0.12991898996E+02  0.14871288601E+02  0.51100000000E-03 0.  1.
        -12    1    3    3    0    0 -0.10072648373E+02  0.16386070071E+02  0.28627372658E+02  0.34488954796E+02  0.00000000000E+00 0.  1.
</event>
<event>
 7    1  0.3597718E-013  0.7246156E+02  0.7816164E-02  0.1226708E+00
        -11   -1    0    0    0    0  0.00000000000E+00  0.00000000000E+00  0.45593999997E+02  0.45594000000E+02  0.51100000000E-03 0.  1.
         11   -1    0    0    0    0 -0.00000000000E+00 -0.00000000000E+00 -0.45593999997E+02  0.45594000000E+02  0.51100000000E-03 0. -1.
    9900012    2    1    2    0    0  0.96833602363E+00  0.24206740665E+01  0.18544062761E+02  0.72461558767E+02  0.69999984983E+02 0.  0.
         12    1    1    2    0    0 -0.96833602363E+00 -0.24206740665E+01 -0.18544062761E+02  0.18726441233E+02  0.00000000000E+00 0. -1.
         11    1    3    3    0    0 -0.33154206883E+01  0.12463185153E+02 -0.82646077538E+01  0.15317530483E+02  0.51100000000E-03 0. -1.
        -11    1    3    3    0    0  0.10129661154E+01  0.46796884303E+01  0.38040030219E+02  0.38340181057E+02  0.51100000000E-03 0.  1.
         12    1    3    3    0    0  0.32707905966E+01 -0.14722199517E+02 -0.11231359704E+02  0.18803847227E+02  0.00000000000E+00 0. -1.
</event>
<event>
 7    1  0.3597718E-013  0.7246157E+02  0.7816164E-02  0.1226708E+00
        -11   -1    0    0    0    0  0.00000000000E+00  0.00000000000E+00  0.45593999997E+02  0.45594000000E+02  0.51100000000E-03 0. -1.
         11   -1    0    0    0    0 -0.00000000000E+00 -0.00000000000E+00 -0.45593999997E+02  0.45594000000E+02  0.51100000000E-03 0.  1.
    9900012    2    1    2    0    0 -0.50737835768E+01 -0.17752879473E+02 -0.31258847059E+01  0.72461570426E+02  0.70000000172E+02 0.  0.
         12    1    1    2    0    0  0.50737835768E+01  0.17752879473E+02  0.31258847059E+01  0.18726429574E+02  0.00000000000E+00 0. -1.
         11    1    3    3    0    0 -0.38621678029E+01  0.16152646957E+02  0.19190025428E+01  0.16718460302E+02  0.51100000000E-03 0. -1.
        -11    1    3    3    0    0  0.51449466975E+00 -0.39334213553E+01  0.17661521967E+02  0.18101543216E+02  0.51100000000E-03 0.  1.
        -12    1    3    3    0    0 -0.17261104437E+01 -0.29972105075E+02 -0.22706409216E+02  0.37641566909E+02  0.00000000000E+00 0.  1.
</event>
<event>
 7    1  0.3597718E-013  0.7246134E+02  0.7816164E-02  0.1226709E+00
        -11   -1    0    0    0    0  0.00000000000E+00  0.00000000000E+00  0.45593999997E+02  0.45594000000E+02  0.51100000000E-03 0.  1.
         11   -1    0    0    0    0 -0.00000000000E+00 -0.00000000000E+00 -0.45593999997E+02  0.45594000000E+02  0.51100000000E-03 0. -1.
    9900012    2    1    2    0    0  0.16864671386E+02 -0.45598951692E+01  0.67437364386E+01  0.72461340766E+02  0.69999700996E+02 0.  0.
         12    1    1    2    0    0 -0.16864671386E+02  0.45598951692E+01 -0.67437364386E+01  0.18726659234E+02  0.00000000000E+00 0. -1.
         11    1    3    3    0    0  0.10618344353E+02  0.70338295701E+00 -0.10252429194E+02  0.14776883603E+02  0.51100000000E-03 0. -1.
        -11    1    3    3    0    0 -0.11569081335E+02  0.20623701750E+02  0.60621225804E+01  0.24411678501E+02  0.51100000000E-03 0.  1.
         12    1    3    3    0    0  0.17815408368E+02 -0.25886979876E+02  0.10934043052E+02  0.33272778662E+02  0.00000000000E+00 0. -1.
</event>
<event>
 7    1  0.3597718E-013  0.7246157E+02  0.7816164E-02  0.1226708E+00
        -11   -1    0    0    0    0  0.00000000000E+00  0.00000000000E+00  0.45593999997E+02  0.45594000000E+02  0.51100000000E-03 0. -1.
         11   -1    0    0    0    0 -0.00000000000E+00 -0.00000000000E+00 -0.45593999997E+02  0.45594000000E+02  0.51100000000E-03 0.  1.
    9900012    2    1    2    0    0 -0.80808370257E+01  0.16389432650E+02  0.40946056371E+01  0.72461568814E+02  0.69999998072E+02 0.  0.
         12    1    1    2    0    0  0.80808370257E+01 -0.16389432650E+02 -0.40946056371E+01  0.18726431186E+02  0.00000000000E+00 0. -1.
         11    1    3    3    0    0 -0.33008979241E+01 -0.17999636087E+01  0.27958363233E+01  0.46853491978E+01  0.51100000000E-03 0. -1.
        -11    1    3    3    0    0 -0.28713605072E+02  0.29062625825E+02 -0.36836281392E+01  0.41020439449E+02  0.51100000000E-03 0.  1.
         12    1    3    3    0    0  0.23933665971E+02 -0.10873229565E+02  0.49823974530E+01  0.26755780167E+02  0.00000000000E+00 0. -1.
</event>
<event>
 7    1  0.3597718E-013  0.7246158E+02  0.7816164E-02  0.1226708E+00
        -11   -1    0    0    0    0  0.00000000000E+00  0.00000000000E+00  0.45593999997E+02  0.45594000000E+02  0.51100000000E-03 0.  1.
         11   -1    0    0    0    0 -0.00000000000E+00 -0.00000000000E+00 -0.45593999997E+02  0.45594000000E+02  0.51100000000E-03 0. -1.
    9900012    2    1    2    0    0  0.10502209932E+01 -0.50030745149E+01  0.18015136791E+02  0.72461578229E+02  0.70000010336E+02 0.  0.
         12    1    1    2    0    0 -0.10502209932E+01  0.50030745149E+01 -0.18015136791E+02  0.18726421771E+02  0.00000000000E+00 0. -1.
         11    1    3    3    0    0 -0.28272486822E+01 -0.78899321373E+01  0.18276155546E+01  0.85781433375E+01  0.51100000000E-03 0. -1.
        -11    1    3    3    0    0  0.23763208343E+02  0.76784088685E+01  0.30126112050E+02  0.39130942501E+02  0.51100000000E-03 0.  1.
         12    1    3    3    0    0 -0.19885738667E+02 -0.47915512461E+01 -0.13938590813E+02  0.24752492391E+02  0.00000000000E+00 0. -1.
</event>
<event>
 7    1  0.3597718E-013  0.7246161E+02  0.7816164E-02  0.1226708E+00
        -11   -1    0    0    0    0  0.00000000000E+00  0.00000000000E+00  0.45593999997E+02  0.45594000000E+02  0.51100000000E-03 0. -1.
         11   -1    0    0    0    0 -0.00000000000E+00 -0.00000000000E+00 -0.45593999997E+02  0.45594000000E+02  0.51100000000E-03 0.  1.
    9900012    2    1    2    0    0  0.53682280170E+01 -0.13981363322E+01 -0.17885888921E+02  0.72461610072E+02  0.70000051818E+02 0.  0.
         12    1    1    2    0    0 -0.53682280170E+01  0.13981363322E+01  0.17885888921E+02  0.18726389928E+02  0.00000000000E+00 0. -1.
         11    1    3    3    0    0 -0.67661771830E+01 -0.22100197814E+02 -0.38769412352E+01  0.23435668770E+02  0.51100000000E-03 0. -1.
        -11    1    3    3    0    0  0.55889135405E+01 -0.99680200160E+01 -0.13464557119E+02  0.17660455155E+02  0.51100000000E-03 0.  1.
        -12    1    3    3    0    0  0.65454916595E+01  0.30670081498E+02 -0.54439056645E+00  0.31365486147E+02  0.00000000000E+00 0.  1.
</event>
<event>
 7    1  0.3597718E-013  0.7246153E+02  0.7816164E-02  0.1226708E+00
        -11   -1    0    0    0    0  0.00000000000E+00  0.00000000000E+00  0.45593999997E+02  0.45594000000E+02  0.51100000000E-03 0. -1.
         11   -1    0    0    0    0 -0.00000000000E+00 -0.00000000000E+00 -0.45593999997E+02  0.45594000000E+02  0.51100000000E-03 0.  1.
    9900012    2    1    2    0    0  0.12047120415E+02  0.16837001526E+01  0.14237715757E+02  0.72461534597E+02  0.69999953498E+02 0.  0.
         12    1    1    2    0    0 -0.12047120415E+02 -0.16837001526E+01 -0.14237715757E+02  0.18726465403E+02  0.00000000000E+00 0. -1.
         11    1    3    3    0    0  0.32208251854E+02  0.11284306897E+02  0.24067168529E+01  0.34212561376E+02  0.51100000000E-03 0. -1.
        -11    1    3    3    0    0  0.46577423455E+01  0.41607897632E+01  0.71383528967E+01  0.94848730908E+01  0.51100000000E-03 0.  1.
         12    1    3    3    0    0 -0.24818873784E+02 -0.13761396508E+02  0.46926460076E+01  0.28764100130E+02  0.00000000000E+00 0. -1.
</event>
<event>
 7    1  0.3597718E-013  0.7246157E+02  0.7816164E-02  0.1226708E+00
        -11   -1    0    0    0    0  0.00000000000E+00  0.00000000000E+00  0.45593999997E+02  0.45594000000E+02  0.51100000000E-03 0.  1.
         11   -1    0    0    0    0 -0.00000000000E+00 -0.00000000000E+00 -0.45593999997E+02  0.45594000000E+02  0.51100000000E-03 0. -1.
    9900012    2    1    2    0    0  0.14756645490E+02  0.11365667266E+02  0.19344899084E+01  0.72461568687E+02  0.69999997906E+02 0.  0.
         12    1    1    2    0    0 -0.14756645490E+02 -0.11365667266E+02 -0.19344899084E+01  0.18726431313E+02  0.00000000000E+00 0. -1.
         11    1    3    3    0    0 -0.62108911487E+01 -0.42943338216E+01 -0.27396052953E+01  0.80325530977E+01  0.51100000000E-03 0. -1.
        -11    1    3    3    0    0 -0.13653619729E+02 -0.12044223530E+02  0.81584248576E+01  0.19951053821E+02  0.51100000000E-03 0.  1.
         12    1    3    3    0    0  0.34621156367E+02  0.27704224618E+02 -0.34843296539E+01  0.44477961768E+02  0.00000000000E+00 0. -1.
</event>
<event>
 7    1  0.3597718E-013  0.7246180E+02  0.7816164E-02  0.1226707E+00
        -11   -1    0    0    0    0  0.00000000000E+00  0.00000000000E+00  0.45593999997E+02  0.45594000000E+02  0.51100000000E-03 0. -1.
         11   -1    0    0    0    0 -0.00000000000E+00 -0.00000000000E+00 -0.45593999997E+02  0.45594000000E+02  0.51100000000E-03 0.  1.
    9900012    2    1    2    0    0 -0.45883372810E+01 -0.74607771264E+01  0.16551573368E+02  0.72461798696E+02  0.70000297535E+02 0.  0.
         12    1    1    2    0    0  0.45883372810E+01  0.74607771264E+01 -0.16551573368E+02  0.18726201304E+02  0.00000000000E+00 0. -1.
         11    1    3    3    0    0 -0.18869978904E+02 -0.68979609763E+00  0.32978339199E+02  0.38001615480E+02  0.51100000000E-03 0. -1.
        -11    1    3    3    0    0 -0.75321956231E+01 -0.16305796840E+01 -0.26326222560E+01  0.81439217343E+01  0.51100000000E-03 0.  1.
        -12    1    3    3    0    0  0.21813837246E+02 -0.51404013448E+01 -0.13794143575E+02  0.26316261481E+02  0.00000000000E+00 0.  1.
</event>
<event>
 7    1  0.3597718E-013  0.7246154E+02  0.7816164E-02  0.1226708E+00
        -11   -1    0    0    0    0  0.00000000000E+00  0.00000000000E+00  0.45593999997E+02  0.45594000000E+02  0.51100000000E-03 0. -1.
         11   -1    0    0    0    0 -0.00000000000E+00 -0.00000000000E+00 -0.45593999997E+02  0.45594000000E+02  0.51100000000E-03 0.  1.
    9900012    2    1    2    0    0 -0.32147728628E+01 -0.12601653115E+02 -0.13473822676E+02  0.72461539488E+02  0.69999959869E+02 0.  0.
         12    1    1    2    0    0  0.32147728628E+01  0.12601653115E+02  0.13473822676E+02  0.18726460512E+02  0.00000000000E+00 0. -1.
         11    1    3    3    0    0 -0.14232471889E+02  0.17073972674E+02 -0.60779852360E+01  0.23043994960E+02  0.51100000000E-03 0. -1.
        -11    1    3    3    0    0  0.15811752812E+02  0.27731759137E+01 -0.28191556040E+01  0.16298762843E+02  0.51100000000E-03 0.  1.
        -12    1    3    3    0    0 -0.47940537862E+01 -0.32448801703E+02 -0.45766818358E+01  0.33118781685E+02  0.00000000000E+00 0.  1.
</event>
<event>
 7    1  0.3597718E-013  0.7246178E+02  0.7816164E-02  0.1226707E+00
        -11   -1    0    0    0    0  0.00000000000E+00  0.00000000000E+00  0.45593999997E+02  0.45594000000E+02  0.51100000000E-03 0.  1.
         11   -1    0    0    0    0 -0.00000000000E+00 -0.00000000000E+00 -0.45593999997E+02  0.45594000000E+02  0.51100000000E-03 0. -1.
    9900012    2    1    2    0    0 -0.12642140820E+02  0.38493633451E+01  0.13267635459E+02  0.72461775785E+02  0.70000267690E+02 0.  0.
         12    1    1    2    0    0  0.12642140820E+02 -0.38493633451E+01 -0.13267635459E+02  0.18726224215E+02  0.00000000000E+00 0. -1.
         11    1    3    3    0    0 -0.15933061815E+01  0.13568290547E+01 -0.24415640866E+01  0.32157184457E+01  0.51100000000E-03 0. -1.
        -11    1    3    3    0    0 -0.31778516393E+02 -0.18948323137E+02  0.13334357662E+02  0.39328337727E+02  0.51100000000E-03 0.  1.
         12    1    3    3    0    0  0.20729681755E+02  0.21440857427E+02  0.23748418834E+01  0.29917719613E+02  0.00000000000E+00 0. -1.
</event>
<event>
 7    1  0.3597718E-013  0.7246156E+02  0.7816164E-02  0.1226708E+00
        -11   -1    0    0    0    0  0.00000000000E+00  0.00000000000E+00  0.45593999997E+02  0.45594000000E+02  0.51100000000E-03 0.  1.
         11   -1    0    0    0    0 -0.00000000000E+00 -0.00000000000E+00 -0.45593999997E+02  0.45594000000E+02  0.51100000000E-03 0. -1.
    9900012    2    1    2    0    0  0.84635249286E+01 -0.85331921742E+01 -0.14360815069E+02  0.72461557937E+02  0.69999983902E+02 0.  0.
         12    1    1    2    0    0 -0.84635249286E+01  0.85331921742E+01  0.14360815069E+02  0.18726442063E+02  0.00000000000E+00 0. -1.
         11    1    3    3    0    0 -0.14769307280E+01 -0.95233319033E+01  0.46646199881E+01  0.10706720077E+02  0.51100000000E-03 0. -1.
        -11    1    3    3    0    0 -0.83204827447E+01 -0.24251499309E+02 -0.16518570776E+02  0.30499652991E+02  0.51100000000E-03 0.  1.
         12    1    3    3    0    0  0.18260938401E+02  0.25241639038E+02 -0.25068642810E+01  0.31255184868E+02  0.00000000000E+00 0. -1.
</event>
<event>
 7    1  0.3597718E-013  0.7246132E+02  0.7816164E-02  0.1226709E+00
        -11   -1    0    0    0    0  0.00000000000E+00  0.00000000000E+00  0.45593999997E+02  0.45594000000E+02  0.51100000000E-03 0.  1.
         11   -1    0    0    0    0 -0.00000000000E+00 -0.00000000000E+00 -0.45593999997E+02  0.45594000000E+02  0.51100000000E-03 0. -1.
    9900012    2    1    2    0    0  0.14949632575E+02  0.28190642750E+01  0.10920166733E+02  0.72461316391E+02  0.69999669243E+02 0.  0.
         12    1    1    2    0    0 -0.14949632575E+02 -0.28190642750E+01 -0.10920166733E+02  0.18726683609E+02  0.00000000000E+00 0. -1.
         11    1    3    3    0    0 -0.18855057518E+02 -0.22582075531E+01 -0.16607301910E+02  0.25227270410E+02  0.51100000000E-03 0. -1.
        -11    1    3    3    0    0  0.77735349409E+00  0.32775128927E+01 -0.10437034475E+01  0.35264268551E+01  0.51100000000E-03 0.  1.
        -12    1    3    3    0    0  0.33027336599E+02  0.17997589353E+01  0.28571172090E+02  0.43707619126E+02  0.00000000000E+00 0.  1.
</event>
<event>
 7    1  0.3597718E-013  0.7246162E+02  0.7816164E-02  0.1226708E+00
        -11   -1    0    0    0    0  0.00000000000E+00  0.00000000000E+00  0.45593999997E+02  0.45594000000E+02  0.51100000000E-03 0.  1.
         11   -1    0    0    0    0 -0.00000000000E+00 -0.00000000000E+00 -0.45593999997E+02  0.45594000000E+02  0.51100000000E-03 0. -1.
    9900012    2    1    2    0    0  0.15479004502E+02  0.57474419962E+01  0.88342974510E+01  0.72461615370E+02  0.70000058719E+02 0.  0.
         12    1    1    2    0    0 -0.15479004502E+02 -0.57474419962E+01 -0.88342974510E+01  0.18726384630E+02  0.00000000000E+00 0. -1.
         11    1    3    3    0    0 -0.72776035397E+01 -0.21449133036E+02  0.76718463005E+01  0.23914139064E+02  0.51100000000E-03 0. -1.
        -11    1    3    3    0    0 -0.83605830026E+01  0.82156648937E+01  0.28356761315E+01  0.12059749466E+02  0.51100000000E-03 0.  1.
        -12    1    3    3    0    0  0.31117191044E+02  0.18980910138E+02 -0.16732249811E+01  0.36487726840E+02  0.00000000000E+00 0.  1.
</event>
<event>
 7    1  0.3597718E-013  0.7246156E+02  0.7816164E-02  0.1226708E+00
        -11   -1    0    0    0    0  0.00000000000E+00  0.00000000000E+00  0.45593999997E+02  0.45594000000E+02  0.51100000000E-03 0.  1.
         11   -1    0    0    0    0 -0.00000000000E+00 -0.00000000000E+00 -0.45593999997E+02  0.45594000000E+02  0.51100000000E-03 0. -1.
    9900012    2    1    2    0    0 -0.39850882470E+01  0.18058395331E+02 -0.29484178709E+01  0.72461555110E+02  0.69999980219E+02 0.  0.
         12    1    1    2    0    0  0.39850882470E+01 -0.18058395331E+02  0.29484178709E+01  0.18726444890E+02  0.00000000000E+00 0. -1.
         11    1    3    3    0    0 -0.25485298037E+02  0.47488416873E+01  0.97648027905E+01  0.27702044820E+02  0.51100000000E-03 0. -1.
        -11    1    3    3    0    0  0.36297884086E+01 -0.34376517470E+01 -0.18857812340E+02  0.19509226021E+02  0.51100000000E-03 0.  1.
        -12    1    3    3    0    0  0.17870421381E+02  0.16747205391E+02  0.61445916789E+01  0.25250284269E+02  0.00000000000E+00 0.  1.
</event>
<event>
 7    1  0.3597718E-013  0.7246109E+02  0.7816164E-02  0.1226709E+00
        -11   -1    0    0    0    0  0.00000000000E+00  0.00000000000E+00  0.45593999997E+02  0.45594000000E+02  0.51100000000E-03 0. -1.
         11   -1    0    0    0    0 -0.00000000000E+00 -0.00000000000E+00 -0.45593999997E+02  0.45594000000E+02  0.51100000000E-03 0.  1.
    9900012    2    1    2    0    0  0.81855804372E+01  0.14170234997E+02  0.91048262666E+01  0.72461090263E+02  0.69999374667E+02 0.  0.
         12    1    1    2    0    0 -0.81855804372E+01 -0.14170234997E+02 -0.91048262666E+01  0.18726909737E+02  0.00000000000E+00 0. -1.
         11    1    3    3    0    0  0.13539198306E+02  0.21390212432E+02 -0.34541515685E+01  0.25549603558E+02  0.51100000000E-03 0. -1.
        -11    1    3    3    0    0  0.14919587924E+02 -0.77591414980E+01 -0.74761767171E+01  0.18403575717E+02  0.51100000000E-03 0.  1.
         12    1    3    3    0    0 -0.20273205792E+02  0.53916406275E+00  0.20035154552E+02  0.28507910988E+02  0.00000000000E+00 0. -1.
</event>
<event>
 7    1  0.3597718E-013  0.7246160E+02  0.7816164E-02  0.1226708E+00
        -11   -1    0    0    0    0  0.00000000000E+00  0.00000000000E+00  0.45593999997E+02  0.45594000000E+02  0.51100000000E-03 0. -1.
         11   -1    0    0    0    0 -0.00000000000E+00 -0.00000000000E+00 -0.45593999997E+02  0.45594000000E+02  0.51100000000E-03 0.  1.
    9900012    2    1    2    0    0 -0.15507583662E+02  0.73369654799E+01 -0.75074583182E+01  0.72461597679E+02  0.70000035673E+02 0.  0.
         12    1    1    2    0    0  0.15507583662E+02 -0.73369654799E+01  0.75074583182E+01  0.18726402321E+02  0.00000000000E+00 0. -1.
         11    1    3    3    0    0 -0.27201212894E+02  0.67402733598E+01  0.79498823040E+01  0.29129673819E+02  0.51100000000E-03 0. -1.
        -11    1    3    3    0    0 -0.11753578412E+02  0.29416958459E+01  0.40142029377E+01  0.12763777083E+02  0.51100000000E-03 0.  1.
        -12    1    3    3    0    0  0.23447207644E+02 -0.23450037258E+01 -0.19471543560E+02  0.30568146777E+02  0.00000000000E+00 0.  1.
</event>
<event>
 7    1  0.3597718E-013  0.7246179E+02  0.7816164E-02  0.1226707E+00
        -11   -1    0    0    0    0  0.00000000000E+00  0.00000000000E+00  0.45593999997E+02  0.45594000000E+02  0.51100000000E-03 0.  1.
         11   -1    0    0    0    0 -0.00000000000E+00 -0.00000000000E+00 -0.45593999997E+02  0.45594000000E+02  0.51100000000E-03 0. -1.
    9900012    2    1    2    0    0  0.76539464523E+01  0.16658408673E+02  0.38190948230E+01  0.72461789463E+02  0.70000285507E+02 0.  0.
         12    1    1    2    0    0 -0.76539464523E+01 -0.16658408673E+02 -0.38190948230E+01  0.18726210537E+02  0.00000000000E+00 0. -1.
         11    1    3    3    0    0  0.10567481587E+01 -0.42749750117E+01  0.50531844676E+01  0.67027458214E+01  0.51100000000E-03 0. -1.
        -11    1    3    3    0    0  0.11149212826E+02 -0.20449947268E+02  0.45324814769E+01  0.23728646790E+02  0.51100000000E-03 0.  1.
         12    1    3    3    0    0 -0.45520145321E+01  0.41383330952E+02 -0.57665711215E+01  0.42030396852E+02  0.00000000000E+00 0. -1.
</event>
<event>
 7    1  0.3597718E-013  0.7246158E+02  0.7816164E-02  0.1226708E+00
        -11   -1    0    0    0    0  0.00000000000E+00  0.00000000000E+00  0.45593999997E+02  0.45594000000E+02  0.51100000000E-03 0.  1.
         11   -1    0    0    0    0 -0.00000000000E+00 -0.00000000000E+00 -0.45593999997E+02  0.45594000000E+02  0.51100000000E-03 0. -1.
    9900012    2    1    2    0    0  0.11960382227E+02 -0.14317447379E+02 -0.16244120237E+01  0.72461581311E+02  0.70000014352E+02 0.  0.
         12    1    1    2    0    0 -0.11960382227E+02  0.14317447379E+02  0.16244120237E+01  0.18726418689E+02  0.00000000000E+00 0. -1.
         11    1    3    3    0    0  0.26744060566E+02 -0.17928492812E+02 -0.91466408946E+01  0.33471430654E+02  0.51100000000E-03 0. -1.
        -11    1    3    3    0    0 -0.24696019682E+00 -0.14678317255E+02  0.90447604248E+00  0.14708231163E+02  0.51100000000E-03 0.  1.
        -12    1    3    3    0    0 -0.14536718142E+02  0.18289362688E+02  0.66177528284E+01  0.24281919495E+02  0.00000000000E+00 0.  1.
</event>
<event>
 7    1  0.7329073E-013  0.7246157E+02  0.7816164E-02  0.1226708E+00
        -11   -1    0    0    0    0  0.00000000000E+00  0.00000000000E+00  0.45593999997E+02  0.45594000000E+02  0.51100000000E-03 0. -1.
         11   -1    0    0    0    0 -0.00000000000E+00 -0.00000000000E+00 -0.45593999997E+02  0.45594000000E+02  0.51100000000E-03 0.  1.
    9900012    2    1    2    0    0 -0.12805506137E+02 -0.56452254307E+01 -0.12443061327E+02  0.72461565935E+02  0.69999994321E+02 0.  0.
         12    1    1    2    0    0  0.12805506137E+02  0.56452254307E+01  0.12443061327E+02  0.18726434065E+02  0.00000000000E+00 0. -1.
         11    1    3    3    0    0 -0.62603068048E+01 -0.11594980597E+02 -0.93459273543E+01  0.16154917973E+02  0.51100000000E-03 0. -1.
        -11    1    3    3    0    0  0.64940108527E+01 -0.19013262007E+01 -0.27074015376E+02  0.27906800732E+02  0.51100000000E-03 0.  1.
         12    1    3    3    0    0 -0.13039210185E+02  0.78510813667E+01  0.23976881403E+02  0.28399847230E+02  0.00000000000E+00 0. -1.
</event>
<event>
 7    1  0.3597718E-013  0.7246163E+02  0.7816164E-02  0.1226708E+00
        -11   -1    0    0    0    0  0.00000000000E+00  0.00000000000E+00  0.45593999997E+02  0.45594000000E+02  0.51100000000E-03 0. -1.
         11   -1    0    0    0    0 -0.00000000000E+00 -0.00000000000E+00 -0.45593999997E+02  0.45594000000E+02  0.51100000000E-03 0.  1.
    9900012    2    1    2    0    0  0.11945125161E+02 -0.37056866239E+01 -0.13937677380E+02  0.72461628776E+02  0.70000076183E+02 0.  0.
         12    1    1    2    0    0 -0.11945125161E+02  0.37056866239E+01  0.13937677380E+02  0.18726371224E+02  0.00000000000E+00 0. -1.
         11    1    3    3    0    0  0.21504198772E+02  0.14466764482E+02  0.22758883934E+01  0.26017254038E+02  0.51100000000E-03 0. -1.
        -11    1    3    3    0    0  0.12622172898E+02  0.22435643679E+01 -0.83139886553E+01  0.15279896511E+02  0.51100000000E-03 0.  1.
         12    1    3    3    0    0 -0.22181246509E+02 -0.20416015474E+02 -0.78995771184E+01  0.31164478227E+02  0.00000000000E+00 0. -1.
</event>
<event>
 7    1  0.3597718E-013  0.7246156E+02  0.7816164E-02  0.1226708E+00
        -11   -1    0    0    0    0  0.00000000000E+00  0.00000000000E+00  0.45593999997E+02  0.45594000000E+02  0.51100000000E-03 0. -1.
         11   -1    0    0    0    0 -0.00000000000E+00 -0.00000000000E+00 -0.45593999997E+02  0.45594000000E+02  0.51100000000E-03 0.  1.
    9900012    2    1    2    0    0  0.84444468905E+01 -0.56445124421E+01 -0.15732458423E+02  0.72461562752E+02  0.69999990174E+02 0.  0.
         12    1    1    2    0    0 -0.84444468905E+01  0.56445124421E+01  0.15732458423E+02  0.18726437248E+02  0.00000000000E+00 0. -1.
         11    1    3    3    0    0 -0.63690784290E+01 -0.70115139915E+01 -0.15530153329E+02  0.18190990934E+02  0.51100000000E-03 0. -1.
        -11    1    3    3    0    0  0.19269336047E+02 -0.22466140090E+02  0.32665590442E+01  0.29777595109E+02  0.51100000000E-03 0.  1.
         12    1    3    3    0    0 -0.44558107273E+01  0.23833141639E+02 -0.34688641376E+01  0.24492976708E+02  0.00000000000E+00 0. -1.
</event>
<event>
 7    1  0.3597718E-013  0.7246161E+02  0.7816164E-02  0.1226708E+00
        -11   -1    0    0    0    0  0.00000000000E+00  0.00000000000E+00  0.45593999997E+02  0.45594000000E+02  0.51100000000E-03 0. -1.
         11   -1    0    0    0    0 -0.00000000000E+00 -0.00000000000E+00 -0.45593999997E+02  0.45594000000E+02  0.51100000000E-03 0.  1.
    9900012    2    1    2    0    0 -0.45689133470E+01 -0.29353453159E+01 -0.17921678639E+02  0.72461607220E+02  0.70000048103E+02 0.  0.
         12    1    1    2    0    0  0.45689133470E+01  0.29353453159E+01  0.17921678639E+02  0.18726392780E+02  0.00000000000E+00 0. -1.
         11    1    3    3    0    0 -0.19903025749E+02 -0.26104399132E+02 -0.62399630012E+01  0.33414177029E+02  0.51100000000E-03 0. -1.
        -11    1    3    3    0    0 -0.64509305662E+01  0.19335992574E+01 -0.32520961013E+01  0.74785988375E+01  0.51100000000E-03 0.  1.
        -12    1    3    3    0    0  0.21785042969E+02  0.21235454559E+02 -0.84296195370E+01  0.31568831353E+02  0.00000000000E+00 0.  1.
</event>
<event>
 7    1  0.3597718E-013  0.7246156E+02  0.7816164E-02  0.1226708E+00
        -11   -1    0    0    0    0  0.00000000000E+00  0.00000000000E+00  0.45593999997E+02  0.45594000000E+02  0.51100000000E-03 0.  1.
         11   -1    0    0    0    0 -0.00000000000E+00 -0.00000000000E+00 -0.45593999997E+02  0.45594000000E+02  0.51100000000E-03 0. -1.
    9900012    2    1    2    0    0 -0.16335907370E+01  0.16918680193E+02  0.78593334418E+01  0.72461561996E+02  0.69999989190E+02 0.  0.
         12    1    1    2    0    0  0.16335907370E+01 -0.16918680193E+02 -0.78593334418E+01  0.18726438004E+02  0.00000000000E+00 0. -1.
         11    1    3    3    0    0 -0.86861890381E+01  0.10550891027E+02 -0.22926866467E+02  0.26691054451E+02  0.51100000000E-03 0. -1.
        -11    1    3    3    0    0  0.15825950622E+01 -0.15702533157E+01 -0.67017730849E+01  0.70628652365E+01  0.51100000000E-03 0.  1.
        -12    1    3    3    0    0  0.54700032389E+01  0.79380424820E+01  0.37487972994E+02  0.38707642308E+02  0.00000000000E+00 0.  1.
</event>
<event>
 7    1  0.3597718E-013  0.7246154E+02  0.7816164E-02  0.1226708E+00
        -11   -1    0    0    0    0  0.00000000000E+00  0.00000000000E+00  0.45593999997E+02  0.45594000000E+02  0.51100000000E-03 0.  1.
         11   -1    0    0    0    0 -0.00000000000E+00 -0.00000000000E+00 -0.45593999997E+02  0.45594000000E+02  0.51100000000E-03 0. -1.
    9900012    2    1    2    0    0 -0.10417822846E+02 -0.15514370628E+02 -0.12056025861E+01  0.72461542609E+02  0.69999963934E+02 0.  0.
         12    1    1    2    0    0  0.10417822846E+02  0.15514370628E+02  0.12056025861E+01  0.18726457391E+02  0.00000000000E+00 0. -1.
         11    1    3    3    0    0  0.19402918089E+02 -0.43742657540E+01 -0.75301204396E+01  0.21267584380E+02  0.51100000000E-03 0. -1.
        -11    1    3    3    0    0 -0.80643781709E+01  0.98708861211E+01 -0.10561911453E+02  0.16553626850E+02  0.51100000000E-03 0.  1.
        -12    1    3    3    0    0 -0.21756362764E+02 -0.21010990995E+02  0.16886429306E+02  0.34640331379E+02  0.00000000000E+00 0.  1.
</event>
<event>
 7    1  0.3597718E-013  0.7246156E+02  0.7816164E-02  0.1226708E+00
        -11   -1    0    0    0    0  0.00000000000E+00  0.00000000000E+00  0.45593999997E+02  0.45594000000E+02  0.51100000000E-03 0.  1.
         11   -1    0    0    0    0 -0.00000000000E+00 -0.00000000000E+00 -0.45593999997E+02  0.45594000000E+02  0.51100000000E-03 0. -1.
    9900012    2    1    2    0    0  0.44669684796E+00 -0.17365850516E+02  0.69933612083E+01  0.72461564054E+02  0.69999991871E+02 0.  0.
         12    1    1    2    0    0 -0.44669684796E+00  0.17365850516E+02 -0.69933612083E+01  0.18726435946E+02  0.00000000000E+00 0. -1.
         11    1    3    3    0    0 -0.24199192866E+02 -0.15537955407E+02 -0.80101418644E-01  0.28758223348E+02  0.51100000000E-03 0. -1.
        -11    1    3    3    0    0 -0.73186662923E+01 -0.66682375779E+01  0.55230790338E+01  0.11337225012E+02  0.51100000000E-03 0.  1.
        -12    1    3    3    0    0  0.31964556006E+02  0.48403424686E+01  0.15503835932E+01  0.32366115695E+02  0.00000000000E+00 0.  1.
</event>
<event>
 7    1  0.3597718E-013  0.7246160E+02  0.7816164E-02  0.1226708E+00
        -11   -1    0    0    0    0  0.00000000000E+00  0.00000000000E+00  0.45593999997E+02  0.45594000000E+02  0.51100000000E-03 0. -1.
         11   -1    0    0    0    0 -0.00000000000E+00 -0.00000000000E+00 -0.45593999997E+02  0.45594000000E+02  0.51100000000E-03 0.  1.
    9900012    2    1    2    0    0 -0.15362701790E+02  0.81026486071E+00 -0.10677502854E+02  0.72461596110E+02  0.70000033630E+02 0.  0.
         12    1    1    2    0    0  0.15362701790E+02 -0.81026486071E+00  0.10677502854E+02  0.18726403890E+02  0.00000000000E+00 0. -1.
         11    1    3    3    0    0 -0.11397706109E+02 -0.15028106210E+02 -0.17415306193E+02  0.25671863408E+02  0.51100000000E-03 0. -1.
        -11    1    3    3    0    0 -0.15453109834E+02  0.64863281713E+01 -0.13631863991E+02  0.21603212095E+02  0.51100000000E-03 0.  1.
         12    1    3    3    0    0  0.11488114152E+02  0.93520428989E+01  0.20369667330E+02  0.25186520607E+02  0.00000000000E+00 0. -1.
</event>
<event>
 7    1  0.3597718E-013  0.7246158E+02  0.7816164E-02  0.1226708E+00
        -11   -1    0    0    0    0  0.00000000000E+00  0.00000000000E+00  0.45593999997E+02  0.45594000000E+02  0.51100000000E-03 0. -1.
         11   -1    0    0    0    0 -0.00000000000E+00 -0.00000000000E+00 -0.45593999997E+02  0.45594000000E+02  0.51100000000E-03 0.  1.
    9900012    2    1    2    0    0  0.16021847442E+01  0.16232392551E+02  0.91989737119E+01  0.72461583331E+02  0.70000016983E+02 0.  0.
         12    1    1    2    0    0 -0.16021847442E+01 -0.16232392551E+02 -0.91989737119E+01  0.18726416669E+02  0.00000000000E+00 0. -1.
         11    1    3    3    0    0 -0.20681405769E+02  0.76818721770E+01 -0.18336814060E+01  0.22138068852E+02  0.51100000000E-03 0. -1.
        -11    1    3    3    0    0  0.39458845133E+01  0.14482853713E+02 -0.12761907297E+02  0.19702521016E+02  0.51100000000E-03 0.  1.
         12    1    3    3    0    0  0.18337706000E+02 -0.59323333384E+01  0.23794562415E+02  0.30620993464E+02  0.00000000000E+00 0. -1.
</event>
<event>
 7    1  0.3597718E-013  0.7246124E+02  0.7816164E-02  0.1226709E+00
        -11   -1    0    0    0    0  0.00000000000E+00  0.00000000000E+00  0.45593999997E+02  0.45594000000E+02  0.51100000000E-03 0. -1.
         11   -1    0    0    0    0 -0.00000000000E+00 -0.00000000000E+00 -0.45593999997E+02  0.45594000000E+02  0.51100000000E-03 0.  1.
    9900012    2    1    2    0    0  0.51407050285E+01  0.63474809191E+01 -0.16851538899E+02  0.72461235051E+02  0.69999563282E+02 0.  0.
         12    1    1    2    0    0 -0.51407050285E+01 -0.63474809191E+01  0.16851538899E+02  0.18726764949E+02  0.00000000000E+00 0. -1.
         11    1    3    3    0    0  0.17690021636E+02  0.54607443428E+01 -0.61521378881E+00  0.18523905704E+02  0.51100000000E-03 0. -1.
        -11    1    3    3    0    0 -0.24073042920E+02  0.15467278619E+02  0.94239462886E+00  0.28629289394E+02  0.51100000000E-03 0.  1.
         12    1    3    3    0    0  0.11523726313E+02 -0.14580542042E+02 -0.17178719739E+02  0.25308039953E+02  0.00000000000E+00 0. -1.
</event>
<event>
 7    1  0.3597718E-013  0.7246159E+02  0.7816164E-02  0.1226708E+00
        -11   -1    0    0    0    0  0.00000000000E+00  0.00000000000E+00  0.45593999997E+02  0.45594000000E+02  0.51100000000E-03 0.  1.
         11   -1    0    0    0    0 -0.00000000000E+00 -0.00000000000E+00 -0.45593999997E+02  0.45594000000E+02  0.51100000000E-03 0. -1.
    9900012    2    1    2    0    0 -0.39744988286E+01 -0.17627682933E+02 -0.49139157664E+01  0.72461590449E+02  0.70000026255E+02 0.  0.
         12    1    1    2    0    0  0.39744988286E+01  0.17627682933E+02  0.49139157664E+01  0.18726409551E+02  0.00000000000E+00 0. -1.
         11    1    3    3    0    0 -0.20336398880E+02 -0.99116187032E+00 -0.28053960512E+02  0.34663759489E+02  0.51100000000E-03 0. -1.
        -11    1    3    3    0    0  0.41681470708E+01 -0.11225641740E+02  0.10869407246E+01  0.12023723337E+02  0.51100000000E-03 0.  1.
        -12    1    3    3    0    0  0.12193752981E+02 -0.54108793225E+01  0.22053104021E+02  0.25774107623E+02  0.00000000000E+00 0.  1.
</event>
<event>
 7    1  0.3597718E-013  0.7246156E+02  0.7816164E-02  0.1226708E+00
        -11   -1    0    0    0    0  0.00000000000E+00  0.00000000000E+00  0.45593999997E+02  0.45594000000E+02  0.51100000000E-03 0. -1.
         11   -1    0    0    0    0 -0.00000000000E+00 -0.00000000000E+00 -0.45593999997E+02  0.45594000000E+02  0.51100000000E-03 0.  1.
    9900012    2    1    2    0    0  0.11198429788E-01 -0.17845177745E+02 -0.56770612599E+01  0.72461560971E+02  0.69999987854E+02 0.  0.
         12    1    1    2    0    0 -0.11198429788E-01  0.17845177745E+02  0.56770612599E+01  0.18726439029E+02  0.00000000000E+00 0. -1.
         11    1    3    3    0    0 -0.22974806077E+02  0.93428098966E+01  0.38432495896E+01  0.25097816214E+02  0.51100000000E-03 0. -1.
        -11    1    3    3    0    0 -0.71573971133E+01 -0.68146508163E+01 -0.35127789443E+01  0.10488441989E+02  0.51100000000E-03 0.  1.
        -12    1    3    3    0    0  0.30143401620E+02 -0.20373336826E+02 -0.60075319052E+01  0.36875302768E+02  0.00000000000E+00 0.  1.
</event>
<event>
 7    1  0.3597718E-013  0.7246162E+02  0.7816164E-02  0.1226708E+00
        -11   -1    0    0    0    0  0.00000000000E+00  0.00000000000E+00  0.45593999997E+02  0.45594000000E+02  0.51100000000E-03 0.  1.
         11   -1    0    0    0    0 -0.00000000000E+00 -0.00000000000E+00 -0.45593999997E+02  0.45594000000E+02  0.51100000000E-03 0. -1.
    9900012    2    1    2    0    0 -0.10460715038E+02  0.12127969890E+02  0.97037699025E+01  0.72461618527E+02  0.70000062832E+02 0.  0.
         12    1    1    2    0    0  0.10460715038E+02 -0.12127969890E+02 -0.97037699025E+01  0.18726381473E+02  0.00000000000E+00 0. -1.
         11    1    3    3    0    0  0.75222253266E+01  0.68283421862E+01 -0.12816031005E+02  0.16354228256E+02  0.51100000000E-03 0. -1.
        -11    1    3    3    0    0 -0.67675252780E+00 -0.20316304871E+02  0.68649346663E+01  0.21455478691E+02  0.51100000000E-03 0.  1.
         12    1    3    3    0    0 -0.17306187837E+02  0.25615932575E+02  0.15654866241E+02  0.34651911580E+02  0.00000000000E+00 0. -1.
</event>
<event>
 7    1  0.3597718E-013  0.7246148E+02  0.7816164E-02  0.1226708E+00
        -11   -1    0    0    0    0  0.00000000000E+00  0.00000000000E+00  0.45593999997E+02  0.45594000000E+02  0.51100000000E-03 0.  1.
         11   -1    0    0    0    0 -0.00000000000E+00 -0.00000000000E+00 -0.45593999997E+02  0.45594000000E+02  0.51100000000E-03 0. -1.
    9900012    2    1    2    0    0  0.13420746405E+02  0.32191477119E+01  0.12657138750E+02  0.72461481173E+02  0.69999883902E+02 0.  0.
         12    1    1    2    0    0 -0.13420746405E+02 -0.32191477119E+01 -0.12657138750E+02  0.18726518827E+02  0.00000000000E+00 0. -1.
         11    1    3    3    0    0  0.10230368486E+02 -0.13586842151E+02  0.14160810579E+02  0.22131228513E+02  0.51100000000E-03 0. -1.
        -11    1    3    3    0    0 -0.69262092263E+01 -0.17107292518E+01  0.19374746472E+02  0.20646543777E+02  0.51100000000E-03 0.  1.
         12    1    3    3    0    0  0.10116587145E+02  0.18516719115E+02 -0.20878418301E+02  0.29683708882E+02  0.00000000000E+00 0. -1.
</event>
<event>
 7    1  0.3597718E-013  0.7246156E+02  0.7816164E-02  0.1226708E+00
        -11   -1    0    0    0    0  0.00000000000E+00  0.00000000000E+00  0.45593999997E+02  0.45594000000E+02  0.51100000000E-03 0.  1.
         11   -1    0    0    0    0 -0.00000000000E+00 -0.00000000000E+00 -0.45593999997E+02  0.45594000000E+02  0.51100000000E-03 0. -1.
    9900012    2    1    2    0    0  0.15201796642E+02 -0.80165130427E+01 -0.74377838355E+01  0.72461555305E+02  0.69999980474E+02 0.  0.
         12    1    1    2    0    0 -0.15201796642E+02  0.80165130427E+01  0.74377838355E+01  0.18726444695E+02  0.00000000000E+00 0. -1.
         11    1    3    3    0    0 -0.12462572453E+02  0.11930821632E+02  0.10365960708E+02  0.20127428018E+02  0.51100000000E-03 0. -1.
        -11    1    3    3    0    0  0.16552430297E+02 -0.11434030695E+02  0.90433355233E+01  0.22056788622E+02  0.51100000000E-03 0.  1.
        -12    1    3    3    0    0  0.11111938798E+02 -0.85133039800E+01 -0.26847080067E+02  0.30277338665E+02  0.00000000000E+00 0.  1.
</event>
<event>
 7    1  0.3597718E-013  0.7246144E+02  0.7816164E-02  0.1226708E+00
        -11   -1    0    0    0    0  0.00000000000E+00  0.00000000000E+00  0.45593999997E+02  0.45594000000E+02  0.51100000000E-03 0.  1.
         11   -1    0    0    0    0 -0.00000000000E+00 -0.00000000000E+00 -0.45593999997E+02  0.45594000000E+02  0.51100000000E-03 0. -1.
    9900012    2    1    2    0    0  0.90725436126E+01  0.81012994985E+01  0.14238754182E+02  0.72461435397E+02  0.69999824271E+02 0.  0.
         12    1    1    2    0    0 -0.90725436126E+01 -0.81012994985E+01 -0.14238754182E+02  0.18726564603E+02  0.00000000000E+00 0. -1.
         11    1    3    3    0    0 -0.13163491779E+02  0.46725538540E+01  0.32214796629E+02  0.35112724153E+02  0.51100000000E-03 0. -1.
        -11    1    3    3    0    0  0.14860899251E+02  0.72581051538E+01  0.10654140689E+01  0.16572915386E+02  0.51100000000E-03 0.  1.
        -12    1    3    3    0    0  0.73751361406E+01 -0.38293595094E+01 -0.19041456515E+02  0.20775795859E+02  0.00000000000E+00 0.  1.
</event>
<event>
 7    1  0.3597718E-013  0.7246158E+02  0.7816164E-02  0.1226708E+00
        -11   -1    0    0    0    0  0.00000000000E+00  0.00000000000E+00  0.45593999997E+02  0.45594000000E+02  0.51100000000E-03 0.  1.
         11   -1    0    0    0    0 -0.00000000000E+00 -0.00000000000E+00 -0.45593999997E+02  0.45594000000E+02  0.51100000000E-03 0. -1.
    9900012    2    1    2    0    0 -0.16267022671E+02 -0.80860956737E+01  0.45472715333E+01  0.72461584213E+02  0.70000018131E+02 0.  0.
         12    1    1    2    0    0  0.16267022671E+02  0.80860956737E+01 -0.45472715333E+01  0.18726415787E+02  0.00000000000E+00 0. -1.
         11    1    3    3    0    0  0.87593297476E+01 -0.15139182742E+01  0.80013907059E+01  0.11959935604E+02  0.51100000000E-03 0. -1.
        -11    1    3    3    0    0 -0.69760640659E+01  0.39731422621E+01  0.24393479981E+02  0.25680599586E+02  0.51100000000E-03 0.  1.
         12    1    3    3    0    0 -0.18050288353E+02 -0.10545319662E+02 -0.27847599153E+02  0.34821049022E+02  0.00000000000E+00 0. -1.
</event>
<event>
 7    1  0.3597718E-013  0.7246156E+02  0.7816164E-02  0.1226708E+00
        -11   -1    0    0    0    0  0.00000000000E+00  0.00000000000E+00  0.45593999997E+02  0.45594000000E+02  0.51100000000E-03 0.  1.
         11   -1    0    0    0    0 -0.00000000000E+00 -0.00000000000E+00 -0.45593999997E+02  0.45594000000E+02  0.51100000000E-03 0. -1.
    9900012    2    1    2    0    0  0.12357151354E+02 -0.71203564624E+01  0.12135927166E+02  0.72461564303E+02  0.69999992195E+02 0.  0.
         12    1    1    2    0    0 -0.12357151354E+02  0.71203564624E+01 -0.12135927166E+02  0.18726435697E+02  0.00000000000E+00 0. -1.
         11    1    3    3    0    0  0.13152188082E+02 -0.39770313344E+01 -0.18403694040E+02  0.22967211066E+02  0.51100000000E-03 0. -1.
        -11    1    3    3    0    0  0.13414755546E+01 -0.16275704434E+01 -0.93164875349E+01  0.95522501255E+01  0.51100000000E-03 0.  1.
        -12    1    3    3    0    0 -0.21365122826E+01 -0.15157546846E+01  0.39856108741E+02  0.39942103112E+02  0.00000000000E+00 0.  1.
</event>
<event>
 7    1  0.3597718E-013  0.7246152E+02  0.7816164E-02  0.1226708E+00
        -11   -1    0    0    0    0  0.00000000000E+00  0.00000000000E+00  0.45593999997E+02  0.45594000000E+02  0.51100000000E-03 0.  1.
         11   -1    0    0    0    0 -0.00000000000E+00 -0.00000000000E+00 -0.45593999997E+02  0.45594000000E+02  0.51100000000E-03 0. -1.
    9900012    2    1    2    0    0  0.95857792653E+01 -0.78538128257E+01  0.14039637216E+02  0.72461522670E+02  0.69999937961E+02 0.  0.
         12    1    1    2    0    0 -0.95857792653E+01  0.78538128257E+01 -0.14039637216E+02  0.18726477330E+02  0.00000000000E+00 0. -1.
         11    1    3    3    0    0 -0.67537259594E+00  0.26998252368E+01 -0.76350782871E+01  0.81264755684E+01  0.51100000000E-03 0. -1.
        -11    1    3    3    0    0 -0.11187033309E+02  0.97876502210E+01  0.30123576922E+02  0.33591333673E+02  0.51100000000E-03 0.  1.
         12    1    3    3    0    0  0.21448185170E+02 -0.20341288284E+02 -0.84488614184E+01  0.30743713429E+02  0.00000000000E+00 0. -1.
</event>
<event>
 7    1  0.3597718E-013  0.7246158E+02  0.7816164E-02  0.1226708E+00
        -11   -1    0    0    0    0  0.00000000000E+00  0.00000000000E+00  0.45593999997E+02  0.45594000000E+02  0.51100000000E-03 0.  1.
         11   -1    0    0    0    0 -0.00000000000E+00 -0.00000000000E+00 -0.45593999997E+02  0.45594000000E+02  0.51100000000E-03 0. -1.
    9900012    2    1    2    0    0 -0.13703681637E+02 -0.46975863256E+01 -0.11866780948E+02  0.72461582890E+02  0.70000016409E+02 0.  0.
         12    1    1    2    0    0  0.13703681637E+02  0.46975863256E+01  0.11866780948E+02  0.18726417110E+02  0.00000000000E+00 0. -1.
         11    1    3    3    0    0  0.53735625220E+01 -0.11679311766E+02 -0.28353578739E+02  0.31132088350E+02  0.51100000000E-03 0. -1.
        -11    1    3    3    0    0 -0.74525154673E+01 -0.12588085374E+02  0.32047404222E+01  0.14975654964E+02  0.51100000000E-03 0.  1.
        -12    1    3    3    0    0 -0.11624728692E+02  0.19569810814E+02  0.13282057368E+02  0.26353839576E+02  0.00000000000E+00 0.  1.
</event>
<event>
 7    1  0.3597718E-013  0.7246161E+02  0.7816164E-02  0.1226708E+00
        -11   -1    0    0    0    0  0.00000000000E+00  0.00000000000E+00  0.45593999997E+02  0.45594000000E+02  0.51100000000E-03 0.  1.
         11   -1    0    0    0    0 -0.00000000000E+00 -0.00000000000E+00 -0.45593999997E+02  0.45594000000E+02  0.51100000000E-03 0. -1.
    9900012    2    1    2    0    0  0.84538110848E+01  0.98586464445E+01  0.13491402736E+02  0.72461607412E+02  0.70000048353E+02 0.  0.
         12    1    1    2    0    0 -0.84538110848E+01 -0.98586464445E+01 -0.13491402736E+02  0.18726392588E+02  0.00000000000E+00 0. -1.
         11    1    3    3    0    0  0.32943904578E+02  0.13107484773E+02  0.23785068391E+01  0.35535395045E+02  0.51100000000E-03 0. -1.
        -11    1    3    3    0    0 -0.39315931860E+01  0.32130119485E+01  0.14269683029E+02  0.15146112530E+02  0.51100000000E-03 0.  1.
        -12    1    3    3    0    0 -0.20558500308E+02 -0.64618502773E+01 -0.31567871329E+01  0.21780099837E+02  0.00000000000E+00 0.  1.
</event>
<event>
 7    1  0.3597718E-013  0.7246162E+02  0.7816164E-02  0.1226708E+00
        -11   -1    0    0    0    0  0.00000000000E+00  0.00000000000E+00  0.45593999997E+02  0.45594000000E+02  0.51100000000E-03 0.  1.
         11   -1    0    0    0    0 -0.00000000000E+00 -0.00000000000E+00 -0.45593999997E+02  0.45594000000E+02  0.51100000000E-03 0. -1.
    9900012    2    1    2    0    0  0.77081040979E+00 -0.69224535541E+00  0.18697703829E+02  0.72461615384E+02  0.70000058737E+02 0.  0.
         12    1    1    2    0    0 -0.77081040979E+00  0.69224535541E+00 -0.18697703829E+02  0.18726384616E+02  0.00000000000E+00 0. -1.
         11    1    3    3    0    0  0.73398563590E+01 -0.17965525941E+02 -0.11621979157E+02  0.22620875613E+02  0.51100000000E-03 0. -1.
        -11    1    3    3    0    0 -0.26581210159E+01 -0.10824149883E+02  0.75127077232E+01  0.13441302229E+02  0.51100000000E-03 0.  1.
        -12    1    3    3    0    0 -0.39109249333E+01  0.28097430468E+02  0.22806975262E+02  0.36399437542E+02  0.00000000000E+00 0.  1.
</event>
<event>
 7    1  0.3858646E-013  0.7246157E+02  0.7816164E-02  0.1226708E+00
        -11   -1    0    0    0    0  0.00000000000E+00  0.00000000000E+00  0.45593999997E+02  0.45594000000E+02  0.51100000000E-03 0.  1.
         11   -1    0    0    0    0 -0.00000000000E+00 -0.00000000000E+00 -0.45593999997E+02  0.45594000000E+02  0.51100000000E-03 0. -1.
    9900012    2    1    2    0    0  0.79623072113E+01 -0.13092241218E+02  0.10764490059E+02  0.72461565142E+02  0.69999993288E+02 0.  0.
         12    1    1    2    0    0 -0.79623072113E+01  0.13092241218E+02 -0.10764490059E+02  0.18726434858E+02  0.00000000000E+00 0. -1.
         11    1    3    3    0    0  0.84209269978E+01  0.64554507292E+01  0.91046439060E+01  0.13981394656E+02  0.51100000000E-03 0. -1.
        -11    1    3    3    0    0  0.46098736524E+01 -0.24524670013E+02  0.24252011433E+02  0.34797563610E+02  0.51100000000E-03 0.  1.
         12    1    3    3    0    0 -0.50684934389E+01  0.49769780652E+01 -0.22592165280E+02  0.23682606876E+02  0.00000000000E+00 0. -1.
</event>
<event>
 7    1  0.3597718E-013  0.7246156E+02  0.7816164E-02  0.1226708E+00
        -11   -1    0    0    0    0  0.00000000000E+00  0.00000000000E+00  0.45593999997E+02  0.45594000000E+02  0.51100000000E-03 0.  1.
         11   -1    0    0    0    0 -0.00000000000E+00 -0.00000000000E+00 -0.45593999997E+02  0.45594000000E+02  0.51100000000E-03 0. -1.
    9900012    2    1    2    0    0 -0.12987079895E+02  0.59613063968E+01  0.12102819107E+02  0.72461557506E+02  0.69999983341E+02 0.  0.
         12    1    1    2    0    0  0.12987079895E+02 -0.59613063968E+01 -0.12102819107E+02  0.18726442494E+02  0.00000000000E+00 0. -1.
         11    1    3    3    0    0  0.15030088784E+02  0.15598558756E+02  0.98679370288E+01  0.23803251575E+02  0.51100000000E-03 0. -1.
        -11    1    3    3    0    0 -0.22515829149E+02  0.12525797086E+02  0.15628547062E+01  0.25812800507E+02  0.51100000000E-03 0.  1.
         12    1    3    3    0    0 -0.55013395288E+01 -0.22163049444E+02  0.67202737172E+00  0.22845505424E+02  0.00000000000E+00 0. -1.
</event>
<event>
 7    1  0.3597718E-013  0.7246157E+02  0.7816164E-02  0.1226708E+00
        -11   -1    0    0    0    0  0.00000000000E+00  0.00000000000E+00  0.45593999997E+02  0.45594000000E+02  0.51100000000E-03 0. -1.
         11   -1    0    0    0    0 -0.00000000000E+00 -0.00000000000E+00 -0.45593999997E+02  0.45594000000E+02  0.51100000000E-03 0.  1.
    9900012    2    1    2    0    0  0.85619289322E+01 -0.11608878830E+02 -0.11941800785E+02  0.72461566791E+02  0.69999995437E+02 0.  0.
         12    1    1    2    0    0 -0.85619289322E+01  0.11608878830E+02  0.11941800785E+02  0.18726433209E+02  0.00000000000E+00 0. -1.
         11    1    3    3    0    0  0.59474652067E+01  0.25044358920E+02 -0.15288671351E+02  0.29938866512E+02  0.51100000000E-03 0. -1.
        -11    1    3    3    0    0  0.81700984448E+01 -0.65591438370E+01 -0.37140548569E+01  0.11116073057E+02  0.51100000000E-03 0.  1.
        -12    1    3    3    0    0 -0.55556347193E+01 -0.30094093914E+02  0.70609254230E+01  0.31406627222E+02  0.00000000000E+00 0.  1.
</event>
<event>
 7    1  0.3597718E-013  0.7246159E+02  0.7816164E-02  0.1226708E+00
        -11   -1    0    0    0    0  0.00000000000E+00  0.00000000000E+00  0.45593999997E+02  0.45594000000E+02  0.51100000000E-03 0.  1.
         11   -1    0    0    0    0 -0.00000000000E+00 -0.00000000000E+00 -0.45593999997E+02  0.45594000000E+02  0.51100000000E-03 0. -1.
    9900012    2    1    2    0    0 -0.36831855441E+01 -0.14110815720E+02  0.11747227715E+02  0.72461592575E+02  0.70000029025E+02 0.  0.
         12    1    1    2    0    0  0.36831855441E+01  0.14110815720E+02 -0.11747227715E+02  0.18726407425E+02  0.00000000000E+00 0. -1.
         11    1    3    3    0    0  0.47917067904E+01 -0.56779300830E+01  0.29394889015E+01  0.79899899409E+01  0.51100000000E-03 0. -1.
        -11    1    3    3    0    0 -0.73160201314E+01 -0.34711810228E+02  0.13106539286E+02  0.37818187320E+02  0.51100000000E-03 0.  1.
         12    1    3    3    0    0 -0.11588722031E+01  0.26278924590E+02 -0.42988004722E+01  0.26653415314E+02  0.00000000000E+00 0. -1.
</event>
<event>
 7    1  0.3597718E-013  0.7246155E+02  0.7816164E-02  0.1226708E+00
        -11   -1    0    0    0    0  0.00000000000E+00  0.00000000000E+00  0.45593999997E+02  0.45594000000E+02  0.51100000000E-03 0.  1.
         11   -1    0    0    0    0 -0.00000000000E+00 -0.00000000000E+00 -0.45593999997E+02  0.45594000000E+02  0.51100000000E-03 0. -1.
    9900012    2    1    2    0    0 -0.12374158986E+02 -0.67062436234E+01  0.12352581048E+02  0.72461554189E+02  0.69999979020E+02 0.  0.
         12    1    1    2    0    0  0.12374158986E+02  0.67062436234E+01 -0.12352581048E+02  0.18726445811E+02  0.00000000000E+00 0. -1.
         11    1    3    3    0    0 -0.47893872478E+01  0.73142505663E+01  0.37897797546E+01  0.95288468560E+01  0.51100000000E-03 0. -1.
        -11    1    3    3    0    0 -0.33550605709E+02 -0.19266221207E+01  0.28686592941E+01  0.33728092484E+02  0.51100000000E-03 0.  1.
         12    1    3    3    0    0  0.25965833970E+02 -0.12093872069E+02  0.56941419994E+01  0.29204614849E+02  0.00000000000E+00 0. -1.
</event>
<event>
 7    1  0.3597718E-013  0.7246156E+02  0.7816164E-02  0.1226708E+00
        -11   -1    0    0    0    0  0.00000000000E+00  0.00000000000E+00  0.45593999997E+02  0.45594000000E+02  0.51100000000E-03 0.  1.
         11   -1    0    0    0    0 -0.00000000000E+00 -0.00000000000E+00 -0.45593999997E+02  0.45594000000E+02  0.51100000000E-03 0. -1.
    9900012    2    1    2    0    0  0.46059729124E+01  0.30182633931E+01  0.17898454839E+02  0.72461559174E+02  0.69999985514E+02 0.  0.
         12    1    1    2    0    0 -0.46059729124E+01 -0.30182633931E+01 -0.17898454839E+02  0.18726440826E+02  0.00000000000E+00 0. -1.
         11    1    3    3    0    0 -0.72827244288E+01  0.41035416977E+01 -0.59416079157E+01  0.10255722035E+02  0.51100000000E-03 0. -1.
        -11    1    3    3    0    0  0.28762132697E+02  0.61265918199E+01  0.30796080511E+02  0.42581615513E+02  0.51100000000E-03 0.  1.
         12    1    3    3    0    0 -0.16873435356E+02 -0.72118701244E+01 -0.69560177559E+01  0.19624221626E+02  0.00000000000E+00 0. -1.
</event>
<event>
 7    1  0.6095521E-013  0.7246159E+02  0.7816164E-02  0.1226708E+00
        -11   -1    0    0    0    0  0.00000000000E+00  0.00000000000E+00  0.45593999997E+02  0.45594000000E+02  0.51100000000E-03 0. -1.
         11   -1    0    0    0    0 -0.00000000000E+00 -0.00000000000E+00 -0.45593999997E+02  0.45594000000E+02  0.51100000000E-03 0.  1.
    9900012    2    1    2    0    0 -0.81335526288E+01  0.10100262780E+02 -0.13509564532E+02  0.72461592965E+02  0.70000029533E+02 0.  0.
         12    1    1    2    0    0  0.81335526288E+01 -0.10100262780E+02  0.13509564532E+02  0.18726407035E+02  0.00000000000E+00 0. -1.
         11    1    3    3    0    0  0.28237069715E+01 -0.36465988002E+00 -0.62831547768E+01  0.68981397564E+01  0.51100000000E-03 0. -1.
        -11    1    3    3    0    0 -0.13983155311E+01 -0.16131062538E+02 -0.26711542410E+02  0.31235764167E+02  0.51100000000E-03 0.  1.
         12    1    3    3    0    0 -0.95589440691E+01  0.26595985198E+02  0.19485132655E+02  0.34327689042E+02  0.00000000000E+00 0. -1.
</event>
<event>
 7    1  0.3597718E-013  0.7246129E+02  0.7816164E-02  0.1226709E+00
        -11   -1    0    0    0    0  0.00000000000E+00  0.00000000000E+00  0.45593999997E+02  0.45594000000E+02  0.51100000000E-03 0.  1.
         11   -1    0    0    0    0 -0.00000000000E+00 -0.00000000000E+00 -0.45593999997E+02  0.45594000000E+02  0.51100000000E-03 0. -1.
    9900012    2    1    2    0    0  0.43109609821E+01  0.15956318006E+02  0.88034832356E+01  0.72461286835E+02  0.69999630740E+02 0.  0.
         12    1    1    2    0    0 -0.43109609821E+01 -0.15956318006E+02 -0.88034832356E+01  0.18726713165E+02  0.00000000000E+00 0. -1.
         11    1    3    3    0    0  0.74271761902E+01  0.73434653859E+01  0.30803738135E+01  0.10889358711E+02  0.51100000000E-03 0. -1.
        -11    1    3    3    0    0 -0.22066766201E+01 -0.42505275890E+01 -0.26465995061E+02  0.26895823120E+02  0.51100000000E-03 0.  1.
         12    1    3    3    0    0 -0.90953858801E+00  0.12863380209E+02  0.32189104483E+02  0.34676105004E+02  0.00000000000E+00 0. -1.
</event>
<event>
 7    1  0.3597718E-013  0.7246152E+02  0.7816164E-02  0.1226708E+00
        -11   -1    0    0    0    0  0.00000000000E+00  0.00000000000E+00  0.45593999997E+02  0.45594000000E+02  0.51100000000E-03 0.  1.
         11   -1    0    0    0    0 -0.00000000000E+00 -0.00000000000E+00 -0.45593999997E+02  0.45594000000E+02  0.51100000000E-03 0. -1.
    9900012    2    1    2    0    0  0.28940221765E+01  0.21608391160E+01  0.18374887094E+02  0.72461519664E+02  0.69999934045E+02 0.  0.
         12    1    1    2    0    0 -0.28940221765E+01 -0.21608391160E+01 -0.18374887094E+02  0.18726480336E+02  0.00000000000E+00 0. -1.
         11    1    3    3    0    0 -0.73340497706E+01 -0.66084807680E+01  0.29272637261E+02  0.30892516838E+02  0.51100000000E-03 0. -1.
        -11    1    3    3    0    0  0.12826640335E+02  0.34980539977E+01  0.12011798458E+02  0.17917655720E+02  0.51100000000E-03 0.  1.
         12    1    3    3    0    0 -0.25985683881E+01  0.52712658863E+01 -0.22909548625E+02  0.23651347106E+02  0.00000000000E+00 0. -1.
</event>
<event>
 7    1  0.3597718E-013  0.7246158E+02  0.7816164E-02  0.1226708E+00
        -11   -1    0    0    0    0  0.00000000000E+00  0.00000000000E+00  0.45593999997E+02  0.45594000000E+02  0.51100000000E-03 0.  1.
         11   -1    0    0    0    0 -0.00000000000E+00 -0.00000000000E+00 -0.45593999997E+02  0.45594000000E+02  0.51100000000E-03 0. -1.
    9900012    2    1    2    0    0 -0.20751648677E+01  0.45086924334E+01  0.18056691434E+02  0.72461582237E+02  0.70000015557E+02 0.  0.
         12    1    1    2    0    0  0.20751648677E+01 -0.45086924334E+01 -0.18056691434E+02  0.18726417763E+02  0.00000000000E+00 0. -1.
         11    1    3    3    0    0 -0.89450275338E+00 -0.26645063884E+01  0.30212522043E-01  0.28108081627E+01  0.51100000000E-03 0. -1.
        -11    1    3    3    0    0  0.99066821143E+01 -0.27451754862E+02  0.15892983587E+02  0.33231432757E+02  0.51100000000E-03 0.  1.
         12    1    3    3    0    0 -0.11087344229E+02  0.34624953684E+02  0.21334953251E+01  0.36419341317E+02  0.00000000000E+00 0. -1.
</event>
<event>
 7    1  0.3597718E-013  0.7246159E+02  0.7816164E-02  0.1226708E+00
        -11   -1    0    0    0    0  0.00000000000E+00  0.00000000000E+00  0.45593999997E+02  0.45594000000E+02  0.51100000000E-03 0. -1.
         11   -1    0    0    0    0 -0.00000000000E+00 -0.00000000000E+00 -0.45593999997E+02  0.45594000000E+02  0.51100000000E-03 0.  1.
    9900012    2    1    2    0    0  0.17163902834E+02  0.66253634600E+01 -0.34904771096E+01  0.72461589988E+02  0.70000025655E+02 0.  0.
         12    1    1    2    0    0 -0.17163902834E+02 -0.66253634600E+01  0.34904771096E+01  0.18726410012E+02  0.00000000000E+00 0. -1.
         11    1    3    3    0    0  0.84313537927E+01 -0.12478878686E+02  0.16316268754E+02  0.22204296123E+02  0.51100000000E-03 0. -1.
        -11    1    3    3    0    0  0.10157780800E+02  0.11826997696E+02  0.10669592008E+02  0.18891759557E+02  0.51100000000E-03 0.  1.
        -12    1    3    3    0    0 -0.14252317582E+01  0.72772444497E+01 -0.30476337871E+02  0.31365534308E+02  0.00000000000E+00 0.  1.
</event>
<event>
 7    1  0.3597718E-013  0.7246153E+02  0.7816164E-02  0.1226708E+00
        -11   -1    0    0    0    0  0.00000000000E+00  0.00000000000E+00  0.45593999997E+02  0.45594000000E+02  0.51100000000E-03 0. -1.
         11   -1    0    0    0    0 -0.00000000000E+00 -0.00000000000E+00 -0.45593999997E+02  0.45594000000E+02  0.51100000000E-03 0.  1.
    9900012    2    1    2    0    0  0.70386788333E+01  0.15478119079E+02 -0.78463629924E+01  0.72461532577E+02  0.69999950866E+02 0.  0.
         12    1    1    2    0    0 -0.70386788333E+01 -0.15478119079E+02  0.78463629924E+01  0.18726467423E+02  0.00000000000E+00 0. -1.
         11    1    3    3    0    0  0.15294229960E+02  0.20388377077E+02 -0.59468549339E+01  0.26171825954E+02  0.51100000000E-03 0. -1.
        -11    1    3    3    0    0  0.18665264872E+02  0.81078435829E+00  0.24287954341E+00  0.18684444727E+02  0.51100000000E-03 0.  1.
        -12    1    3    3    0    0 -0.26920815999E+02 -0.57210423564E+01 -0.21423876019E+01  0.27605261896E+02  0.00000000000E+00 0.  1.
</event>
<event>
 7    1  0.3597718E-013  0.7246167E+02  0.7816164E-02  0.1226708E+00
        -11   -1    0    0    0    0  0.00000000000E+00  0.00000000000E+00  0.45593999997E+02  0.45594000000E+02  0.51100000000E-03 0. -1.
         11   -1    0    0    0    0 -0.00000000000E+00 -0.00000000000E+00 -0.45593999997E+02  0.45594000000E+02  0.51100000000E-03 0.  1.
    9900012    2    1    2    0    0  0.15407181931E+02 -0.15228622843E+00 -0.10642884403E+02  0.72461670018E+02  0.70000129909E+02 0.  0.
         12    1    1    2    0    0 -0.15407181931E+02  0.15228622843E+00  0.10642884403E+02  0.18726329982E+02  0.00000000000E+00 0. -1.
         11    1    3    3    0    0 -0.39155218401E+01  0.42537324611E+01  0.20597979458E+02  0.21393978339E+02  0.51100000000E-03 0. -1.
        -11    1    3    3    0    0 -0.10950476597E+01  0.58682953694E+01  0.52894211766E+01  0.79758382985E+01  0.51100000000E-03 0.  1.
        -12    1    3    3    0    0  0.20417751431E+02 -0.10274314059E+02 -0.36530285038E+02  0.43091853381E+02  0.00000000000E+00 0.  1.
</event>
<event>
 7    1  0.3597718E-013  0.7246161E+02  0.7816164E-02  0.1226708E+00
        -11   -1    0    0    0    0  0.00000000000E+00  0.00000000000E+00  0.45593999997E+02  0.45594000000E+02  0.51100000000E-03 0.  1.
         11   -1    0    0    0    0 -0.00000000000E+00 -0.00000000000E+00 -0.45593999997E+02  0.45594000000E+02  0.51100000000E-03 0. -1.
    9900012    2    1    2    0    0 -0.17520385575E+02 -0.71629690678E+00 -0.65727307359E+01  0.72461607360E+02  0.70000048286E+02 0.  0.
         12    1    1    2    0    0  0.17520385575E+02  0.71629690678E+00  0.65727307359E+01  0.18726392640E+02  0.00000000000E+00 0. -1.
         11    1    3    3    0    0 -0.15544626045E+02 -0.21999710259E+00 -0.18354978676E+02  0.24053877859E+02  0.51100000000E-03 0. -1.
        -11    1    3    3    0    0  0.98037040593E+00 -0.17649374663E+01 -0.18170709385E+02  0.18282527456E+02  0.51100000000E-03 0.  1.
        -12    1    3    3    0    0 -0.29561299359E+01  0.12686376621E+01  0.29952957325E+02  0.30125202045E+02  0.00000000000E+00 0.  1.
</event>
<event>
 7    1  0.3597718E-013  0.7246153E+02  0.7816164E-02  0.1226708E+00
        -11   -1    0    0    0    0  0.00000000000E+00  0.00000000000E+00  0.45593999997E+02  0.45594000000E+02  0.51100000000E-03 0.  1.
         11   -1    0    0    0    0 -0.00000000000E+00 -0.00000000000E+00 -0.45593999997E+02  0.45594000000E+02  0.51100000000E-03 0. -1.
    9900012    2    1    2    0    0 -0.14777378187E+02  0.99207249175E+01  0.58214295702E+01  0.72461528597E+02  0.69999945682E+02 0.  0.
         12    1    1    2    0    0  0.14777378187E+02 -0.99207249175E+01 -0.58214295702E+01  0.18726471403E+02  0.00000000000E+00 0. -1.
         11    1    3    3    0    0  0.15195822953E+02 -0.84232913560E+01 -0.70556749148E+01  0.18752264430E+02  0.51100000000E-03 0. -1.
        -11    1    3    3    0    0 -0.10796034298E+02 -0.48388415164E+01 -0.10334892248E+02  0.15709192908E+02  0.51100000000E-03 0.  1.
        -12    1    3    3    0    0 -0.19177166842E+02  0.23182857790E+02  0.23211996733E+02  0.38000071259E+02  0.00000000000E+00 0.  1.
</event>
<event>
 7    1  0.3597718E-013  0.7246151E+02  0.7816164E-02  0.1226708E+00
        -11   -1    0    0    0    0  0.00000000000E+00  0.00000000000E+00  0.45593999997E+02  0.45594000000E+02  0.51100000000E-03 0.  1.
         11   -1    0    0    0    0 -0.00000000000E+00 -0.00000000000E+00 -0.45593999997E+02  0.45594000000E+02  0.51100000000E-03 0. -1.
    9900012    2    1    2    0    0 -0.22849690578E+01 -0.65961304582E+01  0.17376747944E+02  0.72461511014E+02  0.69999922777E+02 0.  0.
         12    1    1    2    0    0  0.22849690578E+01  0.65961304582E+01 -0.17376747944E+02  0.18726488986E+02  0.00000000000E+00 0. -1.
         11    1    3    3    0    0  0.24671267111E+02  0.76820408717E+01  0.66324282217E+01  0.26677223941E+02  0.51100000000E-03 0. -1.
        -11    1    3    3    0    0 -0.12244729370E+02  0.64118504808E+01  0.14601366131E+02  0.20105847834E+02  0.51100000000E-03 0.  1.
         12    1    3    3    0    0 -0.14711506798E+02 -0.20690021811E+02 -0.38570464089E+01  0.25678439240E+02  0.00000000000E+00 0. -1.
</event>
<event>
 7    1  0.3597718E-013  0.7246156E+02  0.7816164E-02  0.1226708E+00
        -11   -1    0    0    0    0  0.00000000000E+00  0.00000000000E+00  0.45593999997E+02  0.45594000000E+02  0.51100000000E-03 0.  1.
         11   -1    0    0    0    0 -0.00000000000E+00 -0.00000000000E+00 -0.45593999997E+02  0.45594000000E+02  0.51100000000E-03 0. -1.
    9900012    2    1    2    0    0 -0.13581539756E+02 -0.12753806231E+02  0.18872593456E+01  0.72461560313E+02  0.69999986997E+02 0.  0.
         12    1    1    2    0    0  0.13581539756E+02  0.12753806231E+02 -0.18872593456E+01  0.18726439687E+02  0.00000000000E+00 0. -1.
         11    1    3    3    0    0  0.32982529649E+01 -0.25162769312E+02  0.75045519488E+01  0.26464348325E+02  0.51100000000E-03 0. -1.
        -11    1    3    3    0    0  0.69938802811E+01 -0.16911347505E+01  0.11388296238E+02  0.13470990669E+02  0.51100000000E-03 0.  1.
         12    1    3    3    0    0 -0.23873673002E+02  0.14100097831E+02 -0.17005588842E+02  0.32526221319E+02  0.00000000000E+00 0. -1.
</event>
<event>
 7    1  0.3597718E-013  0.7246155E+02  0.7816164E-02  0.1226708E+00
        -11   -1    0    0    0    0  0.00000000000E+00  0.00000000000E+00  0.45593999997E+02  0.45594000000E+02  0.51100000000E-03 0.  1.
         11   -1    0    0    0    0 -0.00000000000E+00 -0.00000000000E+00 -0.45593999997E+02  0.45594000000E+02  0.51100000000E-03 0. -1.
    9900012    2    1    2    0    0 -0.40848090903E+01 -0.10849528555E+02  0.14706529460E+02  0.72461549617E+02  0.69999973064E+02 0.  0.
         12    1    1    2    0    0  0.40848090903E+01  0.10849528555E+02 -0.14706529460E+02  0.18726450383E+02  0.00000000000E+00 0. -1.
         11    1    3    3    0    0  0.20687834925E+01  0.64706784254E+01 -0.82383365414E+01  0.10678002325E+02  0.51100000000E-03 0. -1.
        -11    1    3    3    0    0  0.81843694988E+01 -0.11264016949E+02 -0.15183327731E+02  0.20600859768E+02  0.51100000000E-03 0.  1.
         12    1    3    3    0    0 -0.14337962082E+02 -0.60561900313E+01  0.38128193733E+02  0.41182687524E+02  0.00000000000E+00 0. -1.
</event>
<event>
 7    1  0.3597718E-013  0.7246155E+02  0.7816164E-02  0.1226708E+00
        -11   -1    0    0    0    0  0.00000000000E+00  0.00000000000E+00  0.45593999997E+02  0.45594000000E+02  0.51100000000E-03 0.  1.
         11   -1    0    0    0    0 -0.00000000000E+00 -0.00000000000E+00 -0.45593999997E+02  0.45594000000E+02  0.51100000000E-03 0. -1.
    9900012    2    1    2    0    0  0.56089265806E+01 -0.33465103421E+01  0.17550523218E+02  0.72461546676E+02  0.69999969233E+02 0.  0.
         12    1    1    2    0    0 -0.56089265806E+01  0.33465103421E+01 -0.17550523218E+02  0.18726453324E+02  0.00000000000E+00 0. -1.
         11    1    3    3    0    0 -0.13409042316E+02  0.13330315827E+02 -0.33993577587E+01  0.19210813864E+02  0.51100000000E-03 0. -1.
        -11    1    3    3    0    0 -0.12344040210E+02 -0.10775229087E+02  0.30691771156E+01  0.16670355095E+02  0.51100000000E-03 0.  1.
         12    1    3    3    0    0  0.31362009107E+02 -0.59015970828E+01  0.17880703861E+02  0.36580377717E+02  0.00000000000E+00 0. -1.
</event>
<event>
 7    1  0.3597718E-013  0.7246155E+02  0.7816164E-02  0.1226708E+00
        -11   -1    0    0    0    0  0.00000000000E+00  0.00000000000E+00  0.45593999997E+02  0.45594000000E+02  0.51100000000E-03 0. -1.
         11   -1    0    0    0    0 -0.00000000000E+00 -0.00000000000E+00 -0.45593999997E+02  0.45594000000E+02  0.51100000000E-03 0.  1.
    9900012    2    1    2    0    0  0.17352036284E+01 -0.12849020568E+02 -0.13511913915E+02  0.72461546015E+02  0.69999968372E+02 0.  0.
         12    1    1    2    0    0 -0.17352036284E+01  0.12849020568E+02  0.13511913915E+02  0.18726453985E+02  0.00000000000E+00 0. -1.
         11    1    3    3    0    0 -0.15344361373E+02  0.14142365522E+02 -0.22265004223E+02  0.30515346005E+02  0.51100000000E-03 0. -1.
        -11    1    3    3    0    0  0.66666824000E+01 -0.15334178421E+02 -0.84231404614E+01  0.18722472528E+02  0.51100000000E-03 0.  1.
        -12    1    3    3    0    0  0.10412882602E+02 -0.11657207670E+02  0.17176230769E+02  0.23223727482E+02  0.00000000000E+00 0.  1.
</event>
<event>
 7    1  0.3597718E-013  0.7246159E+02  0.7816164E-02  0.1226708E+00
        -11   -1    0    0    0    0  0.00000000000E+00  0.00000000000E+00  0.45593999997E+02  0.45594000000E+02  0.51100000000E-03 0. -1.
         11   -1    0    0    0    0 -0.00000000000E+00 -0.00000000000E+00 -0.45593999997E+02  0.45594000000E+02  0.51100000000E-03 0.  1.
    9900012    2    1    2    0    0 -0.10017626336E+02  0.44365021600E+01 -0.15186932768E+02  0.72461593091E+02  0.70000029697E+02 0.  0.
         12    1    1    2    0    0  0.10017626336E+02 -0.44365021600E+01  0.15186932768E+02  0.18726406909E+02  0.00000000000E+00 0. -1.
         11    1    3    3    0    0 -0.13448997087E+02 -0.19568763996E+02 -0.12224545873E+02  0.26706770097E+02  0.51100000000E-03 0. -1.
        -11    1    3    3    0    0 -0.13868711607E+02  0.80472185027E+01  0.99882901789E+01  0.18890866264E+02  0.51100000000E-03 0.  1.
         12    1    3    3    0    0  0.17300082357E+02  0.15958047653E+02 -0.12950677074E+02  0.26863956729E+02  0.00000000000E+00 0. -1.
</event>
<event>
 7    1  0.3597718E-013  0.7246160E+02  0.7816164E-02  0.1226708E+00
        -11   -1    0    0    0    0  0.00000000000E+00  0.00000000000E+00  0.45593999997E+02  0.45594000000E+02  0.51100000000E-03 0. -1.
         11   -1    0    0    0    0 -0.00000000000E+00 -0.00000000000E+00 -0.45593999997E+02  0.45594000000E+02  0.51100000000E-03 0.  1.
    9900012    2    1    2    0    0  0.94627410258E+01  0.34910956858E+01 -0.15778049377E+02  0.72461599947E+02  0.70000038628E+02 0.  0.
         12    1    1    2    0    0 -0.94627410258E+01 -0.34910956858E+01  0.15778049377E+02  0.18726400053E+02  0.00000000000E+00 0. -1.
         11    1    3    3    0    0  0.17138100787E+02 -0.26895923198E+02 -0.11356641483E+02  0.33853781019E+02  0.51100000000E-03 0. -1.
        -11    1    3    3    0    0 -0.45809286166E+01  0.23345383991E-01 -0.65721860766E+01  0.80111848115E+01  0.51100000000E-03 0.  1.
         12    1    3    3    0    0 -0.30944311445E+01  0.30363673499E+02  0.21507781829E+01  0.30596634117E+02  0.00000000000E+00 0. -1.
</event>
<event>
 7    1  0.3597718E-013  0.7246156E+02  0.7816164E-02  0.1226708E+00
        -11   -1    0    0    0    0  0.00000000000E+00  0.00000000000E+00  0.45593999997E+02  0.45594000000E+02  0.51100000000E-03 0. -1.
         11   -1    0    0    0    0 -0.00000000000E+00 -0.00000000000E+00 -0.45593999997E+02  0.45594000000E+02  0.51100000000E-03 0.  1.
    9900012    2    1    2    0    0 -0.17968864718E+02 -0.64571794021E+00 -0.52328248014E+01  0.72461561302E+02  0.69999988286E+02 0.  0.
         12    1    1    2    0    0  0.17968864718E+02  0.64571794021E+00  0.52328248014E+01  0.18726438698E+02  0.00000000000E+00 0. -1.
         11    1    3    3    0    0 -0.12515503528E+02 -0.23093845822E+02 -0.11022567569E+02  0.28486146448E+02  0.51100000000E-03 0.  1.
        -11    1    3    3    0    0  0.49258555375E+01 -0.83502943771E+01  0.61354770886E+01  0.11473253607E+02  0.51100000000E-03 0. -1.
         12    1    3    3    0    0 -0.10379216727E+02  0.30798422259E+02 -0.34573432109E+00  0.32502161247E+02  0.00000000000E+00 0. -1.
</event>
<event>
 7    1  0.3597718E-013  0.7246157E+02  0.7816164E-02  0.1226708E+00
        -11   -1    0    0    0    0  0.00000000000E+00  0.00000000000E+00  0.45593999997E+02  0.45594000000E+02  0.51100000000E-03 0.  1.
         11   -1    0    0    0    0 -0.00000000000E+00 -0.00000000000E+00 -0.45593999997E+02  0.45594000000E+02  0.51100000000E-03 0. -1.
    9900012    2    1    2    0    0 -0.46142371145E+01 -0.79819451659E+01  0.16299586967E+02  0.72461570333E+02  0.70000000051E+02 0.  0.
         12    1    1    2    0    0  0.46142371145E+01  0.79819451659E+01 -0.16299586967E+02  0.18726429667E+02  0.00000000000E+00 0. -1.
         11    1    3    3    0    0 -0.21921472713E+02  0.77600967987E+01  0.18400965818E+02  0.29654099405E+02  0.51100000000E-03 0. -1.
        -11    1    3    3    0    0 -0.69827355215E+00 -0.45502167704E+01  0.14923483946E+02  0.15617375963E+02  0.51100000000E-03 0.  1.
        -12    1    3    3    0    0  0.18005509151E+02 -0.11191825194E+02 -0.17024862798E+02  0.27190094965E+02  0.00000000000E+00 0.  1.
</event>
<event>
 7    1  0.3597718E-013  0.7246171E+02  0.7816164E-02  0.1226708E+00
        -11   -1    0    0    0    0  0.00000000000E+00  0.00000000000E+00  0.45593999997E+02  0.45594000000E+02  0.51100000000E-03 0. -1.
         11   -1    0    0    0    0 -0.00000000000E+00 -0.00000000000E+00 -0.45593999997E+02  0.45594000000E+02  0.51100000000E-03 0.  1.
    9900012    2    1    2    0    0  0.18136147526E+02 -0.41735293351E+01  0.20822192824E+01  0.72461712826E+02  0.70000185674E+02 0.  0.
         12    1    1    2    0    0 -0.18136147526E+02  0.41735293351E+01 -0.20822192824E+01  0.18726287174E+02  0.00000000000E+00 0. -1.
         11    1    3    3    0    0  0.12848186138E+02 -0.60699485706E+01  0.56390690517E+01  0.15287879602E+02  0.51100000000E-03 0. -1.
        -11    1    3    3    0    0  0.19374383975E+02 -0.33872608875E+01 -0.24480536485E+02  0.31402817669E+02  0.51100000000E-03 0.  1.
         12    1    3    3    0    0 -0.14086422587E+02  0.52836801229E+01  0.20923686716E+02  0.25771015555E+02  0.00000000000E+00 0. -1.
</event>
<event>
 7    1  0.3597718E-013  0.7246155E+02  0.7816164E-02  0.1226708E+00
        -11   -1    0    0    0    0  0.00000000000E+00  0.00000000000E+00  0.45593999997E+02  0.45594000000E+02  0.51100000000E-03 0. -1.
         11   -1    0    0    0    0 -0.00000000000E+00 -0.00000000000E+00 -0.45593999997E+02  0.45594000000E+02  0.51100000000E-03 0.  1.
    9900012    2    1    2    0    0  0.15269776965E+02  0.47084874098E+01 -0.97644239147E+01  0.72461550346E+02  0.69999974014E+02 0.  0.
         12    1    1    2    0    0 -0.15269776965E+02 -0.47084874098E+01  0.97644239147E+01  0.18726449654E+02  0.00000000000E+00 0. -1.
         11    1    3    3    0    0 -0.12750059432E+01  0.89554100668E+01  0.50884745559E+01  0.10378708166E+02  0.51100000000E-03 0. -1.
        -11    1    3    3    0    0  0.33985121450E+02 -0.78422520299E+01 -0.23730402322E+02  0.42185559040E+02  0.51100000000E-03 0.  1.
         12    1    3    3    0    0 -0.17440338542E+02  0.35953293729E+01  0.88775038516E+01  0.19897283141E+02  0.00000000000E+00 0. -1.
</event>
<event>
 7    1  0.3597718E-013  0.7246159E+02  0.7816164E-02  0.1226708E+00
        -11   -1    0    0    0    0  0.00000000000E+00  0.00000000000E+00  0.45593999997E+02  0.45594000000E+02  0.51100000000E-03 0.  1.
         11   -1    0    0    0    0 -0.00000000000E+00 -0.00000000000E+00 -0.45593999997E+02  0.45594000000E+02  0.51100000000E-03 0. -1.
    9900012    2    1    2    0    0 -0.36282327940E+01  0.15863599285E+02  0.92661037648E+01  0.72461587251E+02  0.70000022089E+02 0.  0.
         12    1    1    2    0    0  0.36282327940E+01 -0.15863599285E+02 -0.92661037648E+01  0.18726412749E+02  0.00000000000E+00 0. -1.
         11    1    3    3    0    0 -0.18511257747E+01 -0.16471194289E+01 -0.16746139799E+02  0.16928463235E+02  0.51100000000E-03 0. -1.
        -11    1    3    3    0    0  0.13234078355E+02 -0.10703385018E+02  0.10605364523E+02  0.20054352088E+02  0.51100000000E-03 0.  1.
         12    1    3    3    0    0 -0.15011185374E+02  0.28214103732E+02  0.15406879042E+02  0.35478771928E+02  0.00000000000E+00 0. -1.
</event>
<event>
 7    1  0.3597718E-013  0.7246155E+02  0.7816164E-02  0.1226708E+00
        -11   -1    0    0    0    0  0.00000000000E+00  0.00000000000E+00  0.45593999997E+02  0.45594000000E+02  0.51100000000E-03 0.  1.
         11   -1    0    0    0    0 -0.00000000000E+00 -0.00000000000E+00 -0.45593999997E+02  0.45594000000E+02  0.51100000000E-03 0. -1.
    9900012    2    1    2    0    0  0.13583829306E+02  0.29220045476E+00  0.12886969710E+02  0.72461553780E+02  0.69999978487E+02 0.  0.
         12    1    1    2    0    0 -0.13583829306E+02 -0.29220045476E+00 -0.12886969710E+02  0.18726446220E+02  0.00000000000E+00 0. -1.
         11    1    3    3    0    0 -0.19758815549E+02 -0.10260365099E+02 -0.27004020025E+00  0.22265641824E+02  0.51100000000E-03 0. -1.
        -11    1    3    3    0    0  0.14772833237E+02 -0.21617282130E+00 -0.10595154013E+02  0.18180776149E+02  0.51100000000E-03 0.  1.
        -12    1    3    3    0    0  0.18569811618E+02  0.10768738375E+02  0.23752163923E+02  0.32015135807E+02  0.00000000000E+00 0.  1.
</event>
<event>
 7    1  0.3597718E-013  0.7246155E+02  0.7816164E-02  0.1226708E+00
        -11   -1    0    0    0    0  0.00000000000E+00  0.00000000000E+00  0.45593999997E+02  0.45594000000E+02  0.51100000000E-03 0.  1.
         11   -1    0    0    0    0 -0.00000000000E+00 -0.00000000000E+00 -0.45593999997E+02  0.45594000000E+02  0.51100000000E-03 0. -1.
    9900012    2    1    2    0    0 -0.90171116464E+01 -0.97285282223E+00  0.16383691386E+02  0.72461545757E+02  0.69999968036E+02 0.  0.
         12    1    1    2    0    0  0.90171116464E+01  0.97285282223E+00 -0.16383691386E+02  0.18726454243E+02  0.00000000000E+00 0. -1.
         11    1    3    3    0    0 -0.30519796679E+01  0.45816374571E+00 -0.10529364859E+01  0.32608540930E+01  0.51100000000E-03 0. -1.
        -11    1    3    3    0    0 -0.18894671369E+02  0.18279938020E+02 -0.14096063763E+02  0.29830584205E+02  0.51100000000E-03 0.  1.
         12    1    3    3    0    0  0.12929539390E+02 -0.19710954588E+02  0.31532691635E+02  0.39370107459E+02  0.00000000000E+00 0. -1.
</event>
<event>
 7    1  0.3597718E-013  0.7246155E+02  0.7816164E-02  0.1226708E+00
        -11   -1    0    0    0    0  0.00000000000E+00  0.00000000000E+00  0.45593999997E+02  0.45594000000E+02  0.51100000000E-03 0. -1.
         11   -1    0    0    0    0 -0.00000000000E+00 -0.00000000000E+00 -0.45593999997E+02  0.45594000000E+02  0.51100000000E-03 0.  1.
    9900012    2    1    2    0    0 -0.94539833800E+01  0.16115379532E+02 -0.12635429202E+01  0.72461553463E+02  0.69999978074E+02 0.  0.
         12    1    1    2    0    0  0.94539833800E+01 -0.16115379532E+02  0.12635429202E+01  0.18726446537E+02  0.00000000000E+00 0. -1.
         11    1    3    3    0    0 -0.31947199318E+01  0.81880242273E+01 -0.95442000915E+00  0.88408650032E+01  0.51100000000E-03 0. -1.
        -11    1    3    3    0    0 -0.14807368990E+02  0.13380901740E+02  0.27523981594E+02  0.33998180405E+02  0.51100000000E-03 0.  1.
         12    1    3    3    0    0  0.85481055419E+01 -0.54535464352E+01 -0.27833104505E+02  0.29622508055E+02  0.00000000000E+00 0. -1.
</event>
<event>
 7    1  0.3597718E-013  0.7246156E+02  0.7816164E-02  0.1226708E+00
        -11   -1    0    0    0    0  0.00000000000E+00  0.00000000000E+00  0.45593999997E+02  0.45594000000E+02  0.51100000000E-03 0. -1.
         11   -1    0    0    0    0 -0.00000000000E+00 -0.00000000000E+00 -0.45593999997E+02  0.45594000000E+02  0.51100000000E-03 0.  1.
    9900012    2    1    2    0    0  0.10488354467E+02  0.86361485494E+01 -0.12887619679E+02  0.72461564616E+02  0.69999992603E+02 0.  0.
         12    1    1    2    0    0 -0.10488354467E+02 -0.86361485494E+01  0.12887619679E+02  0.18726435384E+02  0.00000000000E+00 0. -1.
         11    1    3    3    0    0 -0.77043247740E+00 -0.20350231796E+01  0.40055793564E+01  0.45584593653E+01  0.51100000000E-03 0. -1.
        -11    1    3    3    0    0  0.52908150790E+01  0.27384176091E+02  0.14804045268E+02  0.31576028581E+02  0.51100000000E-03 0.  1.
        -12    1    3    3    0    0  0.59679718655E+01 -0.16713004362E+02 -0.31697244303E+02  0.36327076670E+02  0.00000000000E+00 0.  1.
</event>
<event>
 7    1  0.3597718E-013  0.7246156E+02  0.7816164E-02  0.1226708E+00
        -11   -1    0    0    0    0  0.00000000000E+00  0.00000000000E+00  0.45593999997E+02  0.45594000000E+02  0.51100000000E-03 0.  1.
         11   -1    0    0    0    0 -0.00000000000E+00 -0.00000000000E+00 -0.45593999997E+02  0.45594000000E+02  0.51100000000E-03 0. -1.
    9900012    2    1    2    0    0 -0.82162027717E+01  0.10975706825E+02  0.12755681880E+02  0.72461560175E+02  0.69999986817E+02 0.  0.
         12    1    1    2    0    0  0.82162027717E+01 -0.10975706825E+02 -0.12755681880E+02  0.18726439825E+02  0.00000000000E+00 0. -1.
         11    1    3    3    0    0  0.57440015999E+01  0.14052650092E+02  0.44563770386E+01  0.15821814863E+02  0.51100000000E-03 0. -1.
        -11    1    3    3    0    0  0.13270737052E+02  0.16446050649E+02 -0.28573179482E+01  0.21324851933E+02  0.51100000000E-03 0.  1.
        -12    1    3    3    0    0 -0.27230941423E+02 -0.19522993916E+02  0.11156622790E+02  0.35314893378E+02  0.00000000000E+00 0.  1.
</event>
<event>
 8    1  0.3597718E-013  0.7246158E+02  0.7816164E-02  0.1226708E+00
        -11   -1    0    0    0    0  0.00000000000E+00  0.00000000000E+00  0.45593999997E+02  0.45594000000E+02  0.51100000000E-03 0. -1.
         11   -1    0    0    0    0 -0.00000000000E+00 -0.00000000000E+00 -0.45593999997E+02  0.45594000000E+02  0.51100000000E-03 0.  1.
    9900012    2    1    2    0    0 -0.18415077622E+02  0.20127581830E+01 -0.27408704353E+01  0.72461584164E+02  0.70000018068E+02 0.  0.
         23    2    3    3    0    0 -0.18430228716E+02  0.95270404090E+01 -0.11860810023E+02  0.60644733272E+02  0.55737483166E+02 0.  0.
         12    1    1    2    0    0  0.18415077622E+02 -0.20127581830E+01  0.27408704353E+01  0.18726415836E+02  0.00000000000E+00 0. -1.
         11    1    4    4    0    0 -0.52996037555E+01 -0.89000089637E+01  0.19436808199E+02  0.22024656018E+02  0.51100000000E-03 0. -1.
        -11    1    4    4    0    0 -0.13130624961E+02  0.18427049373E+02 -0.31297618222E+02  0.38620077253E+02  0.51100000000E-03 0.  1.
         12    1    3    3    0    0  0.15151094759E-01 -0.75142822261E+01  0.91199395877E+01  0.11816850892E+02  0.00000000000E+00 0. -1.
</event>
<event>
 7    1  0.3597718E-013  0.7246157E+02  0.7816164E-02  0.1226708E+00
        -11   -1    0    0    0    0  0.00000000000E+00  0.00000000000E+00  0.45593999997E+02  0.45594000000E+02  0.51100000000E-03 0. -1.
         11   -1    0    0    0    0 -0.00000000000E+00 -0.00000000000E+00 -0.45593999997E+02  0.45594000000E+02  0.51100000000E-03 0.  1.
    9900012    2    1    2    0    0 -0.62455938431E+01  0.51287088141E+01 -0.16892837329E+02  0.72461573497E+02  0.70000004172E+02 0.  0.
         12    1    1    2    0    0  0.62455938431E+01 -0.51287088141E+01  0.16892837329E+02  0.18726426503E+02  0.00000000000E+00 0. -1.
         11    1    3    3    0    0 -0.34958670595E+01 -0.53991625201E+01 -0.23175000812E+02  0.24051043747E+02  0.51100000000E-03 0. -1.
        -11    1    3    3    0    0  0.13149240696E+01  0.23661326088E+02 -0.11166128844E+02  0.26196751921E+02  0.51100000000E-03 0.  1.
         12    1    3    3    0    0 -0.40646508532E+01 -0.13133454754E+02  0.17448292327E+02  0.22213777830E+02  0.00000000000E+00 0. -1.
</event>
<event>
 7    1  0.3597718E-013  0.7246156E+02  0.7816164E-02  0.1226708E+00
        -11   -1    0    0    0    0  0.00000000000E+00  0.00000000000E+00  0.45593999997E+02  0.45594000000E+02  0.51100000000E-03 0.  1.
         11   -1    0    0    0    0 -0.00000000000E+00 -0.00000000000E+00 -0.45593999997E+02  0.45594000000E+02  0.51100000000E-03 0. -1.
    9900012    2    1    2    0    0  0.10814281700E+02 -0.21398284139E+01  0.15137765751E+02  0.72461561304E+02  0.69999988288E+02 0.  0.
         12    1    1    2    0    0 -0.10814281700E+02  0.21398284139E+01 -0.15137765751E+02  0.18726438696E+02  0.00000000000E+00 0. -1.
         11    1    3    3    0    0 -0.24372729443E+01 -0.45274129803E+00  0.83711533550E-01  0.24803794004E+01  0.51100000000E-03 0. -1.
        -11    1    3    3    0    0  0.80343359002E+01 -0.23842878630E+02  0.32643962684E+02  0.41214823968E+02  0.51100000000E-03 0.  1.
         12    1    3    3    0    0  0.52172187439E+01  0.22155791514E+02 -0.17589908467E+02  0.28766357936E+02  0.00000000000E+00 0. -1.
</event>
<event>
 7    1  0.3597718E-013  0.7246158E+02  0.7816164E-02  0.1226708E+00
        -11   -1    0    0    0    0  0.00000000000E+00  0.00000000000E+00  0.45593999997E+02  0.45594000000E+02  0.51100000000E-03 0.  1.
         11   -1    0    0    0    0 -0.00000000000E+00 -0.00000000000E+00 -0.45593999997E+02  0.45594000000E+02  0.51100000000E-03 0. -1.
    9900012    2    1    2    0    0  0.13514133370E+02  0.46994062226E+01  0.12081497810E+02  0.72461579922E+02  0.70000012542E+02 0.  0.
         12    1    1    2    0    0 -0.13514133370E+02 -0.46994062226E+01 -0.12081497810E+02  0.18726420078E+02  0.00000000000E+00 0. -1.
         11    1    3    3    0    0  0.18873338998E+02  0.42706902640E+01 -0.20402437889E+02  0.28119409530E+02  0.51100000000E-03 0. -1.
        -11    1    3    3    0    0  0.57815858107E+01 -0.22662218453E+01 -0.31122132660E+01  0.69461044919E+01  0.51100000000E-03 0.  1.
        -12    1    3    3    0    0 -0.11140791438E+02  0.26949378039E+01  0.35596148965E+02  0.37396065900E+02  0.00000000000E+00 0.  1.
</event>
<event>
 7    1  0.3597718E-013  0.7246156E+02  0.7816164E-02  0.1226708E+00
        -11   -1    0    0    0    0  0.00000000000E+00  0.00000000000E+00  0.45593999997E+02  0.45594000000E+02  0.51100000000E-03 0.  1.
         11   -1    0    0    0    0 -0.00000000000E+00 -0.00000000000E+00 -0.45593999997E+02  0.45594000000E+02  0.51100000000E-03 0. -1.
    9900012    2    1    2    0    0  0.14883588334E+02 -0.18986729779E+01  0.11205056854E+02  0.72461562542E+02  0.69999989901E+02 0.  0.
         12    1    1    2    0    0 -0.14883588334E+02  0.18986729779E+01 -0.11205056854E+02  0.18726437458E+02  0.00000000000E+00 0. -1.
         11    1    3    3    0    0 -0.10360412697E+02  0.40393985525E+01 -0.64639399664E+01  0.12862247551E+02  0.51100000000E-03 0. -1.
        -11    1    3    3    0    0  0.51328261053E+01  0.19373174848E+02  0.18479419982E+02  0.27260865186E+02  0.51100000000E-03 0.  1.
         12    1    3    3    0    0  0.20111174926E+02 -0.25311246378E+02 -0.81042316236E+00  0.32338449805E+02  0.00000000000E+00 0. -1.
</event>
<event>
 7    1  0.3597718E-013  0.7246159E+02  0.7816164E-02  0.1226708E+00
        -11   -1    0    0    0    0  0.00000000000E+00  0.00000000000E+00  0.45593999997E+02  0.45594000000E+02  0.51100000000E-03 0.  1.
         11   -1    0    0    0    0 -0.00000000000E+00 -0.00000000000E+00 -0.45593999997E+02  0.45594000000E+02  0.51100000000E-03 0. -1.
    9900012    2    1    2    0    0 -0.12007916806E+02  0.11813981148E+02  0.81803534597E+01  0.72461590859E+02  0.70000026789E+02 0.  0.
         12    1    1    2    0    0  0.12007916806E+02 -0.11813981148E+02 -0.81803534597E+01  0.18726409141E+02  0.00000000000E+00 0. -1.
         11    1    3    3    0    0 -0.23348758260E+02 -0.13167841163E+02  0.22358331185E+02  0.34906325026E+02  0.51100000000E-03 0. -1.
        -11    1    3    3    0    0  0.66914986523E+01  0.20500610498E+02  0.44537537618E+00  0.21569644051E+02  0.51100000000E-03 0.  1.
        -12    1    3    3    0    0  0.46493428013E+01  0.44812118128E+01 -0.14623353102E+02  0.15985621781E+02  0.00000000000E+00 0.  1.
</event>
<event>
 7    1  0.3597718E-013  0.7246165E+02  0.7816164E-02  0.1226708E+00
        -11   -1    0    0    0    0  0.00000000000E+00  0.00000000000E+00  0.45593999997E+02  0.45594000000E+02  0.51100000000E-03 0. -1.
         11   -1    0    0    0    0 -0.00000000000E+00 -0.00000000000E+00 -0.45593999997E+02  0.45594000000E+02  0.51100000000E-03 0.  1.
    9900012    2    1    2    0    0 -0.62958010323E+01  0.64937030179E+01 -0.16397288033E+02  0.72461645727E+02  0.70000098265E+02 0.  0.
         12    1    1    2    0    0  0.62958010323E+01 -0.64937030179E+01  0.16397288033E+02  0.18726354273E+02  0.00000000000E+00 0. -1.
         11    1    3    3    0    0  0.68977866426E+01  0.70081131663E+01  0.11388858582E+02  0.15046568073E+02  0.51100000000E-03 0. -1.
        -11    1    3    3    0    0 -0.57539045364E+01  0.23959414652E+02 -0.12758378314E+02  0.27747741986E+02  0.51100000000E-03 0.  1.
        -12    1    3    3    0    0 -0.74396831385E+01 -0.24473824800E+02 -0.15027768301E+02  0.29667335668E+02  0.00000000000E+00 0.  1.
</event>
<event>
 7    1  0.3597718E-013  0.7246146E+02  0.7816164E-02  0.1226708E+00
        -11   -1    0    0    0    0  0.00000000000E+00  0.00000000000E+00  0.45593999997E+02  0.45594000000E+02  0.51100000000E-03 0. -1.
         11   -1    0    0    0    0 -0.00000000000E+00 -0.00000000000E+00 -0.45593999997E+02  0.45594000000E+02  0.51100000000E-03 0.  1.
    9900012    2    1    2    0    0  0.11262386204E+01  0.18692070377E+02 -0.14687685403E+00  0.72461455171E+02  0.69999850031E+02 0.  0.
         12    1    1    2    0    0 -0.11262386204E+01 -0.18692070377E+02  0.14687685403E+00  0.18726544829E+02  0.00000000000E+00 0. -1.
         11    1    3    3    0    0 -0.57605375863E+01 -0.23119114007E+02  0.25673407911E+01  0.23963899198E+02  0.51100000000E-03 0. -1.
        -11    1    3    3    0    0 -0.82456154004E+01  0.12727665805E+02  0.22764567154E+01  0.15335120006E+02  0.51100000000E-03 0.  1.
        -12    1    3    3    0    0  0.15132391607E+02  0.29083518580E+02 -0.49906743605E+01  0.33162435967E+02  0.00000000000E+00 0.  1.
</event>
<event>
 7    1  0.3597718E-013  0.7246152E+02  0.7816164E-02  0.1226708E+00
        -11   -1    0    0    0    0  0.00000000000E+00  0.00000000000E+00  0.45593999997E+02  0.45594000000E+02  0.51100000000E-03 0.  1.
         11   -1    0    0    0    0 -0.00000000000E+00 -0.00000000000E+00 -0.45593999997E+02  0.45594000000E+02  0.51100000000E-03 0. -1.
    9900012    2    1    2    0    0 -0.93153041334E+01  0.20366746757E+01  0.16117009339E+02  0.72461523426E+02  0.69999938945E+02 0.  0.
         12    1    1    2    0    0  0.93153041334E+01 -0.20366746757E+01 -0.16117009339E+02  0.18726476574E+02  0.00000000000E+00 0. -1.
         11    1    3    3    0    0  0.46426898114E+01 -0.13729928519E+02  0.11070693583E+01  0.14535855966E+02  0.51100000000E-03 0. -1.
        -11    1    3    3    0    0 -0.80441330140E+01 -0.13268121149E+02  0.22529432170E+02  0.27355555723E+02  0.51100000000E-03 0.  1.
        -12    1    3    3    0    0 -0.59138609308E+01  0.29034724344E+02 -0.75194921887E+01  0.30570111737E+02  0.00000000000E+00 0.  1.
</event>
<event>
 7    1  0.3597718E-013  0.7246156E+02  0.7816164E-02  0.1226708E+00
        -11   -1    0    0    0    0  0.00000000000E+00  0.00000000000E+00  0.45593999997E+02  0.45594000000E+02  0.51100000000E-03 0. -1.
         11   -1    0    0    0    0 -0.00000000000E+00 -0.00000000000E+00 -0.45593999997E+02  0.45594000000E+02  0.51100000000E-03 0.  1.
    9900012    2    1    2    0    0  0.71217404449E+01  0.12127535062E+02 -0.12364604243E+02  0.72461555283E+02  0.69999980445E+02 0.  0.
         12    1    1    2    0    0 -0.71217404449E+01 -0.12127535062E+02  0.12364604243E+02  0.18726444717E+02  0.00000000000E+00 0. -1.
         11    1    3    3    0    0 -0.25478753561E+01 -0.36563485450E+01 -0.12730794282E+01  0.46347907185E+01  0.51100000000E-03 0. -1.
        -11    1    3    3    0    0 -0.21017511972E+02 -0.12640327435E+02  0.10317192877E+00  0.24525992984E+02  0.51100000000E-03 0.  1.
         12    1    3    3    0    0  0.30687127773E+02  0.28424211042E+02 -0.11194696744E+02  0.43300771581E+02  0.00000000000E+00 0. -1.
</event>
<event>
 7    1  0.3597718E-013  0.7246155E+02  0.7816164E-02  0.1226708E+00
        -11   -1    0    0    0    0  0.00000000000E+00  0.00000000000E+00  0.45593999997E+02  0.45594000000E+02  0.51100000000E-03 0.  1.
         11   -1    0    0    0    0 -0.00000000000E+00 -0.00000000000E+00 -0.45593999997E+02  0.45594000000E+02  0.51100000000E-03 0. -1.
    9900012    2    1    2    0    0  0.93154933174E+01  0.15672956977E+02 -0.42731722400E+01  0.72461548196E+02  0.69999971213E+02 0.  0.
         12    1    1    2    0    0 -0.93154933174E+01 -0.15672956977E+02  0.42731722400E+01  0.18726451804E+02  0.00000000000E+00 0. -1.
         11    1    3    3    0    0 -0.98176697911E+01  0.51530791132E+01  0.43830363784E+01  0.11922746019E+02  0.51100000000E-03 0. -1.
        -11    1    3    3    0    0  0.86907459396E+01  0.29231581980E+02  0.10034301514E+02  0.32104542626E+02  0.51100000000E-03 0.  1.
        -12    1    3    3    0    0  0.10442417169E+02 -0.18711704116E+02 -0.18690510133E+02  0.28434259552E+02  0.00000000000E+00 0.  1.
</event>
<event>
 7    1  0.3597718E-013  0.7246169E+02  0.7816164E-02  0.1226708E+00
        -11   -1    0    0    0    0  0.00000000000E+00  0.00000000000E+00  0.45593999997E+02  0.45594000000E+02  0.51100000000E-03 0.  1.
         11   -1    0    0    0    0 -0.00000000000E+00 -0.00000000000E+00 -0.45593999997E+02  0.45594000000E+02  0.51100000000E-03 0. -1.
    9900012    2    1    2    0    0  0.85311896155E+01  0.49708253672E+01  0.15911765972E+02  0.72461692371E+02  0.70000159027E+02 0.  0.
         12    1    1    2    0    0 -0.85311896155E+01 -0.49708253672E+01 -0.15911765972E+02  0.18726307629E+02  0.00000000000E+00 0. -1.
         11    1    3    3    0    0 -0.58508206830E+01  0.19007967582E+02 -0.81075457275E+01  0.21477132775E+02  0.51100000000E-03 0. -1.
        -11    1    3    3    0    0  0.12153163677E+02 -0.11966812227E+02 -0.79874428388E+01  0.18833566460E+02  0.51100000000E-03 0.  1.
        -12    1    3    3    0    0  0.22288466213E+01 -0.20703299880E+01  0.32006754538E+02  0.32150993135E+02  0.00000000000E+00 0.  1.
</event>
<event>
 7    1  0.3597718E-013  0.7246159E+02  0.7816164E-02  0.1226708E+00
        -11   -1    0    0    0    0  0.00000000000E+00  0.00000000000E+00  0.45593999997E+02  0.45594000000E+02  0.51100000000E-03 0.  1.
         11   -1    0    0    0    0 -0.00000000000E+00 -0.00000000000E+00 -0.45593999997E+02  0.45594000000E+02  0.51100000000E-03 0. -1.
    9900012    2    1    2    0    0  0.43283169163E+01 -0.71613865401E+00  0.18205254985E+02  0.72461588412E+02  0.70000023601E+02 0.  0.
         12    1    1    2    0    0 -0.43283169163E+01  0.71613865401E+00 -0.18205254985E+02  0.18726411588E+02  0.00000000000E+00 0. -1.
         11    1    3    3    0    0  0.10603401461E+02 -0.94398826275E+01  0.13573124397E+02  0.19641110272E+02  0.51100000000E-03 0. -1.
        -11    1    3    3    0    0  0.11252724618E+02  0.11951920917E+01  0.23441953846E+02  0.26030318781E+02  0.51100000000E-03 0.  1.
         12    1    3    3    0    0 -0.17527809163E+02  0.75285518818E+01 -0.18809823258E+02  0.26790159359E+02  0.00000000000E+00 0. -1.
</event>
<event>
 7    1  0.3597718E-013  0.7246151E+02  0.7816164E-02  0.1226708E+00
        -11   -1    0    0    0    0  0.00000000000E+00  0.00000000000E+00  0.45593999997E+02  0.45594000000E+02  0.51100000000E-03 0.  1.
         11   -1    0    0    0    0 -0.00000000000E+00 -0.00000000000E+00 -0.45593999997E+02  0.45594000000E+02  0.51100000000E-03 0. -1.
    9900012    2    1    2    0    0  0.17721819790E+02  0.47106182420E+01 -0.37985120122E+01  0.72461507685E+02  0.69999918440E+02 0.  0.
         12    1    1    2    0    0 -0.17721819790E+02 -0.47106182420E+01  0.37985120122E+01  0.18726492315E+02  0.00000000000E+00 0. -1.
         11    1    3    3    0    0 -0.99220090578E+01  0.14020874280E+02  0.65164381271E+01  0.18371040946E+02  0.51100000000E-03 0. -1.
        -11    1    3    3    0    0  0.29910118116E+02  0.25225176192E+01  0.89907832890E+01  0.31333886533E+02  0.51100000000E-03 0.  1.
        -12    1    3    3    0    0 -0.22662892680E+01 -0.11832773657E+02 -0.19305733428E+02  0.22756580206E+02  0.00000000000E+00 0.  1.
</event>
<event>
 7    1  0.3597718E-013  0.7246174E+02  0.7816164E-02  0.1226708E+00
        -11   -1    0    0    0    0  0.00000000000E+00  0.00000000000E+00  0.45593999997E+02  0.45594000000E+02  0.51100000000E-03 0. -1.
         11   -1    0    0    0    0 -0.00000000000E+00 -0.00000000000E+00 -0.45593999997E+02  0.45594000000E+02  0.51100000000E-03 0.  1.
    9900012    2    1    2    0    0 -0.16332988225E+02  0.84838691816E+01  0.34540439764E+01  0.72461736079E+02  0.70000215965E+02 0.  0.
         12    1    1    2    0    0  0.16332988225E+02 -0.84838691816E+01 -0.34540439764E+01  0.18726263921E+02  0.00000000000E+00 0. -1.
         11    1    3    3    0    0  0.16648938927E+02 -0.57080654722E+01 -0.39599803372E+01  0.18040250091E+02  0.51100000000E-03 0. -1.
        -11    1    3    3    0    0 -0.34616759805E+01  0.46095931947E+01 -0.15044770599E+02  0.16111383326E+02  0.51100000000E-03 0.  1.
         12    1    3    3    0    0 -0.29520251171E+02  0.95823414591E+01  0.22458794913E+02  0.38310102662E+02  0.00000000000E+00 0. -1.
</event>
<event>
 7    1  0.3597718E-013  0.7246153E+02  0.7816164E-02  0.1226708E+00
        -11   -1    0    0    0    0  0.00000000000E+00  0.00000000000E+00  0.45593999997E+02  0.45594000000E+02  0.51100000000E-03 0. -1.
         11   -1    0    0    0    0 -0.00000000000E+00 -0.00000000000E+00 -0.45593999997E+02  0.45594000000E+02  0.51100000000E-03 0.  1.
    9900012    2    1    2    0    0 -0.64081547050E+01  0.16933879557E+02 -0.47812113566E+01  0.72461529280E+02  0.69999946572E+02 0.  0.
         12    1    1    2    0    0  0.64081547050E+01 -0.16933879557E+02  0.47812113566E+01  0.18726470720E+02  0.00000000000E+00 0. -1.
         11    1    3    3    0    0 -0.10197221133E+02  0.13204125839E+02  0.53027690783E+01  0.17505759571E+02  0.51100000000E-03 0. -1.
        -11    1    3    3    0    0  0.94613994041E+00  0.28541675513E+02 -0.16850003590E+01  0.28607020963E+02  0.51100000000E-03 0.  1.
        -12    1    3    3    0    0  0.28429264880E+01 -0.24811921795E+02 -0.83989800759E+01  0.26348748746E+02  0.00000000000E+00 0.  1.
</event>
<event>
 7    1  0.3597718E-013  0.7246157E+02  0.7816164E-02  0.1226708E+00
        -11   -1    0    0    0    0  0.00000000000E+00  0.00000000000E+00  0.45593999997E+02  0.45594000000E+02  0.51100000000E-03 0.  1.
         11   -1    0    0    0    0 -0.00000000000E+00 -0.00000000000E+00 -0.45593999997E+02  0.45594000000E+02  0.51100000000E-03 0. -1.
    9900012    2    1    2    0    0 -0.18698058251E+02 -0.10264960781E+01 -0.89438829955E-01  0.72461572795E+02  0.70000003257E+02 0.  0.
         12    1    1    2    0    0  0.18698058251E+02  0.10264960781E+01  0.89438829955E-01  0.18726427205E+02  0.00000000000E+00 0. -1.
         11    1    3    3    0    0  0.15724042608E+02 -0.11066005289E+02 -0.18525124937E+01  0.19316671343E+02  0.51100000000E-03 0.  1.
        -11    1    3    3    0    0 -0.81638442989E+01  0.12317557073E+02  0.17139726555E+02  0.22630527892E+02  0.51100000000E-03 0. -1.
        -12    1    3    3    0    0 -0.26258256560E+02 -0.22780478629E+01 -0.15376652892E+02  0.30514373560E+02  0.00000000000E+00 0.  1.
</event>
<event>
 7    1  0.3597718E-013  0.7246155E+02  0.7816164E-02  0.1226708E+00
        -11   -1    0    0    0    0  0.00000000000E+00  0.00000000000E+00  0.45593999997E+02  0.45594000000E+02  0.51100000000E-03 0. -1.
         11   -1    0    0    0    0 -0.00000000000E+00 -0.00000000000E+00 -0.45593999997E+02  0.45594000000E+02  0.51100000000E-03 0.  1.
    9900012    2    1    2    0    0  0.13319996546E+02  0.13076314969E+02 -0.15058239521E+01  0.72461552742E+02  0.69999977134E+02 0.  0.
         12    1    1    2    0    0 -0.13319996546E+02 -0.13076314969E+02  0.15058239521E+01  0.18726447258E+02  0.00000000000E+00 0. -1.
         11    1    3    3    0    0  0.47418766079E+01 -0.81802198631E+01 -0.11985264771E+02  0.15265908511E+02  0.51100000000E-03 0. -1.
        -11    1    3    3    0    0  0.23658344894E+02  0.12740150183E+02 -0.11487090953E+02  0.29222969880E+02  0.51100000000E-03 0.  1.
        -12    1    3    3    0    0 -0.15080224956E+02  0.85163846492E+01  0.21966531772E+02  0.27972674350E+02  0.00000000000E+00 0.  1.
</event>
<event>
 7    1  0.5748256E-013  0.7246154E+02  0.7816164E-02  0.1226708E+00
        -11   -1    0    0    0    0  0.00000000000E+00  0.00000000000E+00  0.45593999997E+02  0.45594000000E+02  0.51100000000E-03 0. -1.
         11   -1    0    0    0    0 -0.00000000000E+00 -0.00000000000E+00 -0.45593999997E+02  0.45594000000E+02  0.51100000000E-03 0.  1.
    9900012    2    1    2    0    0  0.41136536543E+01 -0.10164328206E+01 -0.18240746723E+02  0.72461544834E+02  0.69999966833E+02 0.  0.
         12    1    1    2    0    0 -0.41136536543E+01  0.10164328206E+01  0.18240746723E+02  0.18726455166E+02  0.00000000000E+00 0. -1.
         11    1    3    3    0    0  0.13159537010E+02 -0.33766557561E+01 -0.95450416509E+01  0.16603705574E+02  0.51100000000E-03 0. -1.
        -11    1    3    3    0    0 -0.15944454009E+02 -0.61949258780E+01 -0.28482219734E+02  0.33224081049E+02  0.51100000000E-03 0.  1.
         12    1    3    3    0    0  0.68985706537E+01  0.85551488135E+01  0.19786514662E+02  0.22633758211E+02  0.00000000000E+00 0. -1.
</event>
<event>
 7    1  0.3597718E-013  0.7246165E+02  0.7816164E-02  0.1226708E+00
        -11   -1    0    0    0    0  0.00000000000E+00  0.00000000000E+00  0.45593999997E+02  0.45594000000E+02  0.51100000000E-03 0. -1.
         11   -1    0    0    0    0 -0.00000000000E+00 -0.00000000000E+00 -0.45593999997E+02  0.45594000000E+02  0.51100000000E-03 0.  1.
    9900012    2    1    2    0    0  0.11430866924E+02  0.14784672221E+02 -0.11937685241E+01  0.72461645987E+02  0.70000098604E+02 0.  0.
         12    1    1    2    0    0 -0.11430866924E+02 -0.14784672221E+02  0.11937685241E+01  0.18726354013E+02  0.00000000000E+00 0. -1.
         11    1    3    3    0    0 -0.50786223127E+01 -0.43223982703E+01  0.27472031182E+02  0.28269913848E+02  0.51100000000E-03 0. -1.
        -11    1    3    3    0    0 -0.18951618692E+01  0.14327547839E+02 -0.14567513987E+02  0.20520300427E+02  0.51100000000E-03 0.  1.
        -12    1    3    3    0    0  0.18404651105E+02  0.47795226528E+01 -0.14098285719E+02  0.23671431713E+02  0.00000000000E+00 0.  1.
</event>
<event>
 7    1  0.3597718E-013  0.7246156E+02  0.7816164E-02  0.1226708E+00
        -11   -1    0    0    0    0  0.00000000000E+00  0.00000000000E+00  0.45593999997E+02  0.45594000000E+02  0.51100000000E-03 0.  1.
         11   -1    0    0    0    0 -0.00000000000E+00 -0.00000000000E+00 -0.45593999997E+02  0.45594000000E+02  0.51100000000E-03 0. -1.
    9900012    2    1    2    0    0 -0.67510531295E+01 -0.14808356515E+02  0.92636598858E+01  0.72461560522E+02  0.69999987270E+02 0.  0.
         12    1    1    2    0    0  0.67510531295E+01  0.14808356515E+02 -0.92636598858E+01  0.18726439478E+02  0.00000000000E+00 0. -1.
         11    1    3    3    0    0 -0.11569159297E+02 -0.88177540254E+01  0.21554867682E+02  0.26004048799E+02  0.51100000000E-03 0. -1.
        -11    1    3    3    0    0  0.19824355426E+01 -0.72649583721E+01  0.16164451152E+02  0.17832530727E+02  0.51100000000E-03 0.  1.
         12    1    3    3    0    0  0.28356706253E+01  0.12743558826E+01 -0.28455658949E+02  0.28624980996E+02  0.00000000000E+00 0. -1.
</event>
<event>
 7    1  0.3597718E-013  0.7246159E+02  0.7816164E-02  0.1226708E+00
        -11   -1    0    0    0    0  0.00000000000E+00  0.00000000000E+00  0.45593999997E+02  0.45594000000E+02  0.51100000000E-03 0. -1.
         11   -1    0    0    0    0 -0.00000000000E+00 -0.00000000000E+00 -0.45593999997E+02  0.45594000000E+02  0.51100000000E-03 0.  1.
    9900012    2    1    2    0    0  0.28026379348E+01  0.18513765535E+02 -0.25330522017E+00  0.72461589314E+02  0.70000024776E+02 0.  0.
         12    1    1    2    0    0 -0.28026379348E+01 -0.18513765535E+02  0.25330522017E+00  0.18726410686E+02  0.00000000000E+00 0. -1.
         11    1    3    3    0    0 -0.14246770300E+02  0.63415524174E+01  0.55469666912E+01  0.16551573665E+02  0.51100000000E-03 0. -1.
        -11    1    3    3    0    0  0.34622675260E+01  0.11568879463E+02 -0.27650672623E+02  0.30172602892E+02  0.51100000000E-03 0.  1.
        -12    1    3    3    0    0  0.13587140709E+02  0.60333365374E+00  0.21850400712E+02  0.25737412757E+02  0.00000000000E+00 0.  1.
</event>
<event>
 7    1  0.3597718E-013  0.7246155E+02  0.7816164E-02  0.1226708E+00
        -11   -1    0    0    0    0  0.00000000000E+00  0.00000000000E+00  0.45593999997E+02  0.45594000000E+02  0.51100000000E-03 0.  1.
         11   -1    0    0    0    0 -0.00000000000E+00 -0.00000000000E+00 -0.45593999997E+02  0.45594000000E+02  0.51100000000E-03 0. -1.
    9900012    2    1    2    0    0  0.80666939860E+01  0.14938556793E+02  0.79024002045E+01  0.72461549191E+02  0.69999972509E+02 0.  0.
         12    1    1    2    0    0 -0.80666939860E+01 -0.14938556793E+02 -0.79024002045E+01  0.18726450809E+02  0.00000000000E+00 0. -1.
         11    1    3    3    0    0  0.28378985188E+02  0.57832852160E+01 -0.85634558205E+01  0.30201754320E+02  0.51100000000E-03 0. -1.
        -11    1    3    3    0    0 -0.19474365634E+02 -0.71309454557E+01  0.26906817302E+01  0.20912701126E+02  0.51100000000E-03 0.  1.
        -12    1    3    3    0    0 -0.83792556736E+00  0.16286217033E+02  0.13775174295E+02  0.21347093745E+02  0.00000000000E+00 0.  1.
</event>
<event>
 7    1  0.3597718E-013  0.7246158E+02  0.7816164E-02  0.1226708E+00
        -11   -1    0    0    0    0  0.00000000000E+00  0.00000000000E+00  0.45593999997E+02  0.45594000000E+02  0.51100000000E-03 0.  1.
         11   -1    0    0    0    0 -0.00000000000E+00 -0.00000000000E+00 -0.45593999997E+02  0.45594000000E+02  0.51100000000E-03 0. -1.
    9900012    2    1    2    0    0 -0.10250276058E+02  0.13647293958E+01  0.15612439877E+02  0.72461576836E+02  0.70000008522E+02 0.  0.
         12    1    1    2    0    0  0.10250276058E+02 -0.13647293958E+01 -0.15612439877E+02  0.18726423164E+02  0.00000000000E+00 0. -1.
         11    1    3    3    0    0  0.16785910478E+02  0.51799676125E+01 -0.10609638347E+00  0.17567302347E+02  0.51100000000E-03 0. -1.
        -11    1    3    3    0    0 -0.24841404067E+02  0.17671104645E+02  0.12940226714E+02  0.33118163643E+02  0.51100000000E-03 0.  1.
        -12    1    3    3    0    0 -0.21947824692E+01 -0.21486342862E+02  0.27783095467E+01  0.21776110847E+02  0.00000000000E+00 0.  1.
</event>
<event>
 7    1  0.3597718E-013  0.7246156E+02  0.7816164E-02  0.1226708E+00
        -11   -1    0    0    0    0  0.00000000000E+00  0.00000000000E+00  0.45593999997E+02  0.45594000000E+02  0.51100000000E-03 0. -1.
         11   -1    0    0    0    0 -0.00000000000E+00 -0.00000000000E+00 -0.45593999997E+02  0.45594000000E+02  0.51100000000E-03 0.  1.
    9900012    2    1    2    0    0  0.37608780217E+00 -0.31901246723E+01 -0.18448885042E+02  0.72461556217E+02  0.69999981662E+02 0.  0.
         12    1    1    2    0    0 -0.37608780217E+00  0.31901246723E+01  0.18448885042E+02  0.18726443783E+02  0.00000000000E+00 0. -1.
         11    1    3    3    0    0 -0.17469167675E+01 -0.11786363028E+01 -0.10877367586E+02  0.11079622177E+02  0.51100000000E-03 0. -1.
        -11    1    3    3    0    0  0.10646726155E+02  0.25902531986E+02  0.68443160564E+01  0.28829474564E+02  0.51100000000E-03 0.  1.
         12    1    3    3    0    0 -0.85237215852E+01 -0.27914020356E+02 -0.14415833512E+02  0.32552459476E+02  0.00000000000E+00 0. -1.
</event>
<event>
 7    1  0.3597718E-013  0.7246159E+02  0.7816164E-02  0.1226708E+00
        -11   -1    0    0    0    0  0.00000000000E+00  0.00000000000E+00  0.45593999997E+02  0.45594000000E+02  0.51100000000E-03 0. -1.
         11   -1    0    0    0    0 -0.00000000000E+00 -0.00000000000E+00 -0.45593999997E+02  0.45594000000E+02  0.51100000000E-03 0.  1.
    9900012    2    1    2    0    0  0.90069601566E+00 -0.19692431310E+01 -0.18600787330E+02  0.72461589209E+02  0.70000024640E+02 0.  0.
         12    1    1    2    0    0 -0.90069601566E+00  0.19692431310E+01  0.18600787330E+02  0.18726410791E+02  0.00000000000E+00 0. -1.
         11    1    3    3    0    0  0.12007406095E+02  0.14180300792E+02  0.11829924680E+02  0.22027388630E+02  0.51100000000E-03 0. -1.
        -11    1    3    3    0    0 -0.65850909919E+01 -0.19854055032E+02 -0.15578253077E+01  0.20975551114E+02  0.51100000000E-03 0.  1.
        -12    1    3    3    0    0 -0.45216190875E+01  0.37045111092E+01 -0.28872886703E+02  0.29458649465E+02  0.00000000000E+00 0.  1.
</event>
<event>
 7    1  0.3597718E-013  0.7246162E+02  0.7816164E-02  0.1226708E+00
        -11   -1    0    0    0    0  0.00000000000E+00  0.00000000000E+00  0.45593999997E+02  0.45594000000E+02  0.51100000000E-03 0.  1.
         11   -1    0    0    0    0 -0.00000000000E+00 -0.00000000000E+00 -0.45593999997E+02  0.45594000000E+02  0.51100000000E-03 0. -1.
    9900012    2    1    2    0    0 -0.13597138426E+02  0.11249557386E+02  0.62643795631E+01  0.72461623787E+02  0.70000069684E+02 0.  0.
         12    1    1    2    0    0  0.13597138426E+02 -0.11249557386E+02 -0.62643795631E+01  0.18726376213E+02  0.00000000000E+00 0. -1.
         11    1    3    3    0    0 -0.30617592587E+01 -0.32378358677E+01 -0.64458728940E+01  0.78362764430E+01  0.51100000000E-03 0. -1.
        -11    1    3    3    0    0 -0.21670001913E+02 -0.82813306837E+01 -0.14565062026E+02  0.27391795357E+02  0.51100000000E-03 0.  1.
        -12    1    3    3    0    0  0.11134622745E+02  0.22768723937E+02  0.27275314483E+02  0.37233551987E+02  0.00000000000E+00 0.  1.
</event>
<event>
 7    1  0.3597718E-013  0.7246144E+02  0.7816164E-02  0.1226708E+00
        -11   -1    0    0    0    0  0.00000000000E+00  0.00000000000E+00  0.45593999997E+02  0.45594000000E+02  0.51100000000E-03 0. -1.
         11   -1    0    0    0    0 -0.00000000000E+00 -0.00000000000E+00 -0.45593999997E+02  0.45594000000E+02  0.51100000000E-03 0.  1.
    9900012    2    1    2    0    0  0.10372622642E+01  0.53010041853E+01 -0.17930624797E+02  0.72461444952E+02  0.69999836718E+02 0.  0.
         12    1    1    2    0    0 -0.10372622642E+01 -0.53010041853E+01  0.17930624797E+02  0.18726555048E+02  0.00000000000E+00 0. -1.
         11    1    3    3    0    0 -0.14417245739E+02 -0.20710659503E+02 -0.14748688795E+02  0.29228619762E+02  0.51100000000E-03 0. -1.
        -11    1    3    3    0    0 -0.24659126582E+01  0.76495487936E+01  0.11226148014E+02  0.13806618756E+02  0.51100000000E-03 0.  1.
        -12    1    3    3    0    0  0.17920420661E+02  0.18362114895E+02 -0.14408084016E+02  0.29426206434E+02  0.00000000000E+00 0.  1.
</event>
<event>
 7    1  0.3597718E-013  0.7246158E+02  0.7816164E-02  0.1226708E+00
        -11   -1    0    0    0    0  0.00000000000E+00  0.00000000000E+00  0.45593999997E+02  0.45594000000E+02  0.51100000000E-03 0.  1.
         11   -1    0    0    0    0 -0.00000000000E+00 -0.00000000000E+00 -0.45593999997E+02  0.45594000000E+02  0.51100000000E-03 0. -1.
    9900012    2    1    2    0    0 -0.91507259800E+01 -0.15317715041E+02  0.56842458695E+01  0.72461579329E+02  0.70000011769E+02 0.  0.
         12    1    1    2    0    0  0.91507259800E+01  0.15317715041E+02 -0.56842458695E+01  0.18726420671E+02  0.00000000000E+00 0. -1.
         11    1    3    3    0    0  0.32553129112E+00  0.11618505673E+02 -0.30758877762E+01  0.12023174729E+02  0.51100000000E-03 0. -1.
        -11    1    3    3    0    0 -0.24637725755E+02 -0.75879441552E+01  0.20746221428E+02  0.33090786190E+02  0.51100000000E-03 0.  1.
        -12    1    3    3    0    0  0.15161468483E+02 -0.19348276559E+02 -0.11986087783E+02  0.27347618410E+02  0.00000000000E+00 0.  1.
</event>
<event>
 7    1  0.3597718E-013  0.7246151E+02  0.7816164E-02  0.1226708E+00
        -11   -1    0    0    0    0  0.00000000000E+00  0.00000000000E+00  0.45593999997E+02  0.45594000000E+02  0.51100000000E-03 0. -1.
         11   -1    0    0    0    0 -0.00000000000E+00 -0.00000000000E+00 -0.45593999997E+02  0.45594000000E+02  0.51100000000E-03 0.  1.
    9900012    2    1    2    0    0 -0.10870317196E+02  0.13839238674E+02 -0.64025972123E+01  0.72461506092E+02  0.69999916365E+02 0.  0.
         12    1    1    2    0    0  0.10870317196E+02 -0.13839238674E+02  0.64025972123E+01  0.18726493908E+02  0.00000000000E+00 0. -1.
         11    1    3    3    0    0  0.54111277904E+01 -0.13426622718E+02  0.45343393284E+01  0.15169533117E+02  0.51100000000E-03 0. -1.
        -11    1    3    3    0    0  0.15927473253E+02  0.14555117666E+02 -0.32058381647E+01  0.21813144045E+02  0.51100000000E-03 0.  1.
        -12    1    3    3    0    0 -0.32208918239E+02  0.12710743726E+02 -0.77310983761E+01  0.35478828931E+02  0.00000000000E+00 0.  1.
</event>
<event>
 7    1  0.3597718E-013  0.7246156E+02  0.7816164E-02  0.1226708E+00
        -11   -1    0    0    0    0  0.00000000000E+00  0.00000000000E+00  0.45593999997E+02  0.45594000000E+02  0.51100000000E-03 0.  1.
         11   -1    0    0    0    0 -0.00000000000E+00 -0.00000000000E+00 -0.45593999997E+02  0.45594000000E+02  0.51100000000E-03 0. -1.
    9900012    2    1    2    0    0 -0.23670641263E+01  0.11035963246E+02  0.14942691703E+02  0.72461561132E+02  0.69999988064E+02 0.  0.
         12    1    1    2    0    0  0.23670641263E+01 -0.11035963246E+02 -0.14942691703E+02  0.18726438868E+02  0.00000000000E+00 0. -1.
         11    1    3    3    0    0 -0.15845721910E+02  0.15907961710E+02 -0.27882395814E+01  0.22625747034E+02  0.51100000000E-03 0. -1.
        -11    1    3    3    0    0 -0.15994116127E+02  0.21026414241E+01  0.81238389698E+01  0.18061827469E+02  0.51100000000E-03 0.  1.
        -12    1    3    3    0    0  0.29472773911E+02 -0.69746398883E+01  0.96070923147E+01  0.31773986629E+02  0.00000000000E+00 0.  1.
</event>
<event>
 7    1  0.3597718E-013  0.7246155E+02  0.7816164E-02  0.1226708E+00
        -11   -1    0    0    0    0  0.00000000000E+00  0.00000000000E+00  0.45593999997E+02  0.45594000000E+02  0.51100000000E-03 0. -1.
         11   -1    0    0    0    0 -0.00000000000E+00 -0.00000000000E+00 -0.45593999997E+02  0.45594000000E+02  0.51100000000E-03 0.  1.
    9900012    2    1    2    0    0 -0.89649433467E+01 -0.13196035960E+02 -0.98068437996E+01  0.72461554540E+02  0.69999979477E+02 0.  0.
         12    1    1    2    0    0  0.89649433467E+01  0.13196035960E+02  0.98068437996E+01  0.18726445460E+02  0.00000000000E+00 0. -1.
         11    1    3    3    0    0 -0.16432871802E+02 -0.23172852072E+02  0.48793955577E+01  0.28824101895E+02  0.51100000000E-03 0. -1.
        -11    1    3    3    0    0  0.42467405095E+01 -0.11030148970E+02 -0.18590162389E+02  0.22029369695E+02  0.51100000000E-03 0.  1.
        -12    1    3    3    0    0  0.32211879457E+01  0.21006965082E+02  0.39039230312E+01  0.21608082950E+02  0.00000000000E+00 0.  1.
</event>
<event>
 7    1  0.3597718E-013  0.7246158E+02  0.7816164E-02  0.1226708E+00
        -11   -1    0    0    0    0  0.00000000000E+00  0.00000000000E+00  0.45593999997E+02  0.45594000000E+02  0.51100000000E-03 0.  1.
         11   -1    0    0    0    0 -0.00000000000E+00 -0.00000000000E+00 -0.45593999997E+02  0.45594000000E+02  0.51100000000E-03 0. -1.
    9900012    2    1    2    0    0  0.16019633216E+02 -0.63920044110E+01 -0.72933082692E+01  0.72461582450E+02  0.70000015835E+02 0.  0.
         12    1    1    2    0    0 -0.16019633216E+02  0.63920044110E+01  0.72933082692E+01  0.18726417550E+02  0.00000000000E+00 0. -1.
         11    1    3    3    0    0 -0.11780755391E+02 -0.24454920146E+01  0.72899662596E+01  0.14068057333E+02  0.51100000000E-03 0. -1.
        -11    1    3    3    0    0  0.69916784291E+01  0.78893072980E+01  0.16242725287E+02  0.19363647949E+02  0.51100000000E-03 0.  1.
         12    1    3    3    0    0  0.20808710178E+02 -0.11835819694E+02 -0.30825999816E+02  0.39029877168E+02  0.00000000000E+00 0. -1.
</event>
<event>
 7    1  0.3597718E-013  0.7246160E+02  0.7816164E-02  0.1226708E+00
        -11   -1    0    0    0    0  0.00000000000E+00  0.00000000000E+00  0.45593999997E+02  0.45594000000E+02  0.51100000000E-03 0. -1.
         11   -1    0    0    0    0 -0.00000000000E+00 -0.00000000000E+00 -0.45593999997E+02  0.45594000000E+02  0.51100000000E-03 0.  1.
    9900012    2    1    2    0    0  0.19610180945E+01  0.10769371890E+02 -0.15193851638E+02  0.72461599106E+02  0.70000037532E+02 0.  0.
         12    1    1    2    0    0 -0.19610180945E+01 -0.10769371890E+02  0.15193851638E+02  0.18726400894E+02  0.00000000000E+00 0. -1.
         11    1    3    3    0    0 -0.13175638715E+02  0.12916553034E+01  0.36018228712E+01  0.13720020307E+02  0.51100000000E-03 0. -1.
        -11    1    3    3    0    0 -0.13770547131E+02  0.53877963400E+01  0.99079326160E+01  0.17799535013E+02  0.51100000000E-03 0.  1.
        -12    1    3    3    0    0  0.28907203941E+02  0.40899202463E+01 -0.28703607125E+02  0.40942043785E+02  0.00000000000E+00 0.  1.
</event>
<event>
 7    1  0.3597718E-013  0.7246155E+02  0.7816164E-02  0.1226708E+00
        -11   -1    0    0    0    0  0.00000000000E+00  0.00000000000E+00  0.45593999997E+02  0.45594000000E+02  0.51100000000E-03 0. -1.
         11   -1    0    0    0    0 -0.00000000000E+00 -0.00000000000E+00 -0.45593999997E+02  0.45594000000E+02  0.51100000000E-03 0.  1.
    9900012    2    1    2    0    0 -0.50507489243E+01  0.13371947039E+02  0.12097964066E+02  0.72461554345E+02  0.69999979224E+02 0.  0.
         12    1    1    2    0    0  0.50507489243E+01 -0.13371947039E+02 -0.12097964066E+02  0.18726445655E+02  0.00000000000E+00 0. -1.
         11    1    3    3    0    0 -0.58027645026E+01 -0.60116869599E+01  0.96686205341E+00  0.84111401408E+01  0.51100000000E-03 0. -1.
        -11    1    3    3    0    0  0.68697687477E+01 -0.13867297119E+02 -0.14821994301E+02  0.21428652952E+02  0.51100000000E-03 0.  1.
         12    1    3    3    0    0 -0.61177531695E+01  0.33250931117E+02  0.25953096314E+02  0.42621761253E+02  0.00000000000E+00 0. -1.
</event>
<event>
 7    1  0.3597718E-013  0.7246152E+02  0.7816164E-02  0.1226708E+00
        -11   -1    0    0    0    0  0.00000000000E+00  0.00000000000E+00  0.45593999997E+02  0.45594000000E+02  0.51100000000E-03 0.  1.
         11   -1    0    0    0    0 -0.00000000000E+00 -0.00000000000E+00 -0.45593999997E+02  0.45594000000E+02  0.51100000000E-03 0. -1.
    9900012    2    1    2    0    0  0.13403187237E+02 -0.10986642534E+02  0.70943213960E+01  0.72461517726E+02  0.69999931520E+02 0.  0.
         12    1    1    2    0    0 -0.13403187237E+02  0.10986642534E+02 -0.70943213960E+01  0.18726482274E+02  0.00000000000E+00 0. -1.
         11    1    3    3    0    0  0.60740511781E+01  0.27660668288E+00 -0.14276471139E+01  0.62457013629E+01  0.51100000000E-03 0. -1.
        -11    1    3    3    0    0  0.35851089945E+02 -0.46568938595E+01  0.74933892094E+01  0.36920701412E+02  0.51100000000E-03 0.  1.
         12    1    3    3    0    0 -0.28521953887E+02 -0.66063553575E+01  0.10285793006E+01  0.29295114951E+02  0.00000000000E+00 0. -1.
</event>
<event>
 7    1  0.3597718E-013  0.7246158E+02  0.7816164E-02  0.1226708E+00
        -11   -1    0    0    0    0  0.00000000000E+00  0.00000000000E+00  0.45593999997E+02  0.45594000000E+02  0.51100000000E-03 0.  1.
         11   -1    0    0    0    0 -0.00000000000E+00 -0.00000000000E+00 -0.45593999997E+02  0.45594000000E+02  0.51100000000E-03 0. -1.
    9900012    2    1    2    0    0  0.61237232373E+01  0.84142594590E-01  0.17696663217E+02  0.72461576014E+02  0.70000007452E+02 0.  0.
         12    1    1    2    0    0 -0.61237232373E+01 -0.84142594590E-01 -0.17696663217E+02  0.18726423986E+02  0.00000000000E+00 0. -1.
         11    1    3    3    0    0  0.27100179683E+02  0.21276724272E+02  0.94411411834E+00  0.34467522196E+02  0.51100000000E-03 0. -1.
        -11    1    3    3    0    0 -0.58290867798E+01  0.21860147807E+01  0.35563003282E+01  0.71696712333E+01  0.51100000000E-03 0.  1.
        -12    1    3    3    0    0 -0.15147369666E+02 -0.23378596458E+02  0.13196248771E+02  0.30824382585E+02  0.00000000000E+00 0.  1.
</event>
<event>
 7    1  0.3597718E-013  0.7246158E+02  0.7816164E-02  0.1226708E+00
        -11   -1    0    0    0    0  0.00000000000E+00  0.00000000000E+00  0.45593999997E+02  0.45594000000E+02  0.51100000000E-03 0.  1.
         11   -1    0    0    0    0 -0.00000000000E+00 -0.00000000000E+00 -0.45593999997E+02  0.45594000000E+02  0.51100000000E-03 0. -1.
    9900012    2    1    2    0    0  0.21989447496E+01 -0.13206082626E+02  0.13093614935E+02  0.72461582072E+02  0.70000015343E+02 0.  0.
         12    1    1    2    0    0 -0.21989447496E+01  0.13206082626E+02 -0.13093614935E+02  0.18726417928E+02  0.00000000000E+00 0. -1.
         11    1    3    3    0    0 -0.25708053048E+02 -0.13192494814E+01  0.18265334551E+02  0.31563695241E+02  0.51100000000E-03 0. -1.
        -11    1    3    3    0    0  0.10365445425E+02 -0.92039267909E+01  0.10367702129E+02  0.17310227466E+02  0.51100000000E-03 0.  1.
        -12    1    3    3    0    0  0.17541552373E+02 -0.26829063539E+01 -0.15539421745E+02  0.23587659365E+02  0.00000000000E+00 0.  1.
</event>
<event>
 7    1  0.3597718E-013  0.7246159E+02  0.7816164E-02  0.1226708E+00
        -11   -1    0    0    0    0  0.00000000000E+00  0.00000000000E+00  0.45593999997E+02  0.45594000000E+02  0.51100000000E-03 0.  1.
         11   -1    0    0    0    0 -0.00000000000E+00 -0.00000000000E+00 -0.45593999997E+02  0.45594000000E+02  0.51100000000E-03 0. -1.
    9900012    2    1    2    0    0 -0.18215221701E+02 -0.40703879058E+01 -0.15218922941E+01  0.72461587757E+02  0.70000022749E+02 0.  0.
         12    1    1    2    0    0  0.18215221701E+02  0.40703879058E+01  0.15218922941E+01  0.18726412243E+02  0.00000000000E+00 0. -1.
         11    1    3    3    0    0  0.17303779984E+02 -0.37992569107E+01  0.14958088977E+02  0.23186193757E+02  0.51100000000E-03 0. -1.
        -11    1    3    3    0    0 -0.10891702062E+02 -0.13980453112E+02 -0.27898748922E+01  0.17940614405E+02  0.51100000000E-03 0.  1.
        -12    1    3    3    0    0 -0.24627299623E+02  0.13709322117E+02 -0.13690106379E+02  0.31334779596E+02  0.00000000000E+00 0.  1.
</event>
<event>
 7    1  0.3597718E-013  0.7246159E+02  0.7816164E-02  0.1226708E+00
        -11   -1    0    0    0    0  0.00000000000E+00  0.00000000000E+00  0.45593999997E+02  0.45594000000E+02  0.51100000000E-03 0. -1.
         11   -1    0    0    0    0 -0.00000000000E+00 -0.00000000000E+00 -0.45593999997E+02  0.45594000000E+02  0.51100000000E-03 0.  1.
    9900012    2    1    2    0    0  0.15705961616E+02  0.26234199662E+01 -0.98548983753E+01  0.72461585912E+02  0.70000020345E+02 0.  0.
         12    1    1    2    0    0 -0.15705961616E+02 -0.26234199662E+01  0.98548983753E+01  0.18726414088E+02  0.00000000000E+00 0. -1.
         11    1    3    3    0    0 -0.74994250466E+01 -0.14330336453E+02  0.93343635075E+01  0.18674320905E+02  0.51100000000E-03 0. -1.
        -11    1    3    3    0    0  0.17599427775E+01 -0.81027060279E+01  0.76379152660E+01  0.11273375423E+02  0.51100000000E-03 0.  1.
        -12    1    3    3    0    0  0.21445443885E+02  0.25056462447E+02 -0.26827177149E+02  0.42513889584E+02  0.00000000000E+00 0.  1.
</event>
<event>
 7    1  0.3597718E-013  0.7246157E+02  0.7816164E-02  0.1226708E+00
        -11   -1    0    0    0    0  0.00000000000E+00  0.00000000000E+00  0.45593999997E+02  0.45594000000E+02  0.51100000000E-03 0. -1.
         11   -1    0    0    0    0 -0.00000000000E+00 -0.00000000000E+00 -0.45593999997E+02  0.45594000000E+02  0.51100000000E-03 0.  1.
    9900012    2    1    2    0    0  0.96145217791E+01 -0.50349753949E+01 -0.15260705192E+02  0.72461571370E+02  0.70000001402E+02 0.  0.
         12    1    1    2    0    0 -0.96145217791E+01  0.50349753949E+01  0.15260705192E+02  0.18726428630E+02  0.00000000000E+00 0. -1.
         11    1    3    3    0    0  0.33889642648E+01  0.78270730276E+01 -0.29893684909E+02  0.31086661910E+02  0.51100000000E-03 0.  1.
        -11    1    3    3    0    0  0.52938255003E+01  0.11822580418E+02  0.97049803731E+01  0.16185939592E+02  0.51100000000E-03 0. -1.
        -12    1    3    3    0    0  0.93173201403E+00 -0.24684628840E+02  0.49279993444E+01  0.25188969869E+02  0.00000000000E+00 0.  1.
</event>
<event>
 7    1  0.3597718E-013  0.7246165E+02  0.7816164E-02  0.1226708E+00
        -11   -1    0    0    0    0  0.00000000000E+00  0.00000000000E+00  0.45593999997E+02  0.45594000000E+02  0.51100000000E-03 0.  1.
         11   -1    0    0    0    0 -0.00000000000E+00 -0.00000000000E+00 -0.45593999997E+02  0.45594000000E+02  0.51100000000E-03 0. -1.
    9900012    2    1    2    0    0 -0.66228176153E+01  0.17068965867E+02  0.39325209552E+01  0.72461654120E+02  0.70000109199E+02 0.  0.
         12    1    1    2    0    0  0.66228176153E+01 -0.17068965867E+02 -0.39325209552E+01  0.18726345880E+02  0.00000000000E+00 0. -1.
         11    1    3    3    0    0 -0.52876128260E+01 -0.12235913622E+02  0.80920626891E+01  0.15593521424E+02  0.51100000000E-03 0. -1.
        -11    1    3    3    0    0 -0.95806295728E+01  0.31576420699E+02  0.14727209804E+02  0.36135156234E+02  0.51100000000E-03 0.  1.
        -12    1    3    3    0    0  0.82454247835E+01 -0.22715412096E+01 -0.18886751538E+02  0.20732976462E+02  0.00000000000E+00 0.  1.
</event>
<event>
 7    1  0.4647418E-013  0.7246161E+02  0.7816164E-02  0.1226708E+00
        -11   -1    0    0    0    0  0.00000000000E+00  0.00000000000E+00  0.45593999997E+02  0.45594000000E+02  0.51100000000E-03 0. -1.
         11   -1    0    0    0    0 -0.00000000000E+00 -0.00000000000E+00 -0.45593999997E+02  0.45594000000E+02  0.51100000000E-03 0.  1.
    9900012    2    1    2    0    0 -0.13020383851E+02 -0.37507022163E+01 -0.12925922648E+02  0.72461611159E+02  0.70000053233E+02 0.  0.
         12    1    1    2    0    0  0.13020383851E+02  0.37507022163E+01  0.12925922648E+02  0.18726388841E+02  0.00000000000E+00 0. -1.
         11    1    3    3    0    0 -0.85161705277E+01  0.26316332399E+01  0.88891664536E+00  0.89577244337E+01  0.51100000000E-03 0. -1.
        -11    1    3    3    0    0 -0.13164293016E+02 -0.31933562806E+02 -0.11590717554E+02  0.36433443122E+02  0.51100000000E-03 0.  1.
         12    1    3    3    0    0  0.86600796923E+01  0.25551227349E+02 -0.22241217392E+01  0.27070443603E+02  0.00000000000E+00 0. -1.
</event>
<event>
 7    1  0.3597718E-013  0.7246166E+02  0.7816164E-02  0.1226708E+00
        -11   -1    0    0    0    0  0.00000000000E+00  0.00000000000E+00  0.45593999997E+02  0.45594000000E+02  0.51100000000E-03 0.  1.
         11   -1    0    0    0    0 -0.00000000000E+00 -0.00000000000E+00 -0.45593999997E+02  0.45594000000E+02  0.51100000000E-03 0. -1.
    9900012    2    1    2    0    0 -0.13365399772E+02 -0.92584851814E+00 -0.13083762030E+02  0.72461656646E+02  0.70000112490E+02 0.  0.
         12    1    1    2    0    0  0.13365399772E+02  0.92584851814E+00  0.13083762030E+02  0.18726343354E+02  0.00000000000E+00 0. -1.
         11    1    3    3    0    0 -0.16636691701E+02  0.15114275072E+02 -0.30564226964E+02  0.37939330409E+02  0.51100000000E-03 0. -1.
        -11    1    3    3    0    0 -0.70762137617E+01 -0.70708946437E+01 -0.24892169514E+01  0.10308566998E+02  0.51100000000E-03 0.  1.
        -12    1    3    3    0    0  0.10347505691E+02 -0.89692289461E+01  0.19969681885E+02  0.24213759240E+02  0.00000000000E+00 0.  1.
</event>
<event>
 7    1  0.3597718E-013  0.7246153E+02  0.7816164E-02  0.1226708E+00
        -11   -1    0    0    0    0  0.00000000000E+00  0.00000000000E+00  0.45593999997E+02  0.45594000000E+02  0.51100000000E-03 0.  1.
         11   -1    0    0    0    0 -0.00000000000E+00 -0.00000000000E+00 -0.45593999997E+02  0.45594000000E+02  0.51100000000E-03 0. -1.
    9900012    2    1    2    0    0  0.19332959220E+01  0.12642336755E+02  0.13678975583E+02  0.72461529838E+02  0.69999947298E+02 0.  0.
         12    1    1    2    0    0 -0.19332959220E+01 -0.12642336755E+02 -0.13678975583E+02  0.18726470162E+02  0.00000000000E+00 0. -1.
         11    1    3    3    0    0 -0.17734656559E+02 -0.38112049132E+01  0.12809041535E+02  0.22206189936E+02  0.51100000000E-03 0.  1.
        -11    1    3    3    0    0 -0.73875016300E+00  0.46433075154E+00 -0.18106538060E+02  0.18127550183E+02  0.51100000000E-03 0. -1.
        -12    1    3    3    0    0  0.20406702644E+02  0.15989210917E+02  0.18976472108E+02  0.32127789718E+02  0.00000000000E+00 0.  1.
</event>
<event>
 7    1  0.3597718E-013  0.7246163E+02  0.7816164E-02  0.1226708E+00
        -11   -1    0    0    0    0  0.00000000000E+00  0.00000000000E+00  0.45593999997E+02  0.45594000000E+02  0.51100000000E-03 0. -1.
         11   -1    0    0    0    0 -0.00000000000E+00 -0.00000000000E+00 -0.45593999997E+02  0.45594000000E+02  0.51100000000E-03 0.  1.
    9900012    2    1    2    0    0  0.10957272294E+02 -0.13536223803E+02 -0.68837254047E+01  0.72461632322E+02  0.70000080802E+02 0.  0.
         12    1    1    2    0    0 -0.10957272294E+02  0.13536223803E+02  0.68837254047E+01  0.18726367678E+02  0.00000000000E+00 0. -1.
         11    1    3    3    0    0 -0.19001808260E+01 -0.14014819873E+02  0.10515512032E+02  0.17623900158E+02  0.51100000000E-03 0. -1.
        -11    1    3    3    0    0  0.89677298851E+01 -0.17731544685E+02  0.95778132827E+01  0.22058158666E+02  0.51100000000E-03 0.  1.
        -12    1    3    3    0    0  0.38897232353E+01  0.18210140755E+02 -0.26977050719E+02  0.32779573497E+02  0.00000000000E+00 0.  1.
</event>
<event>
 7    1  0.3597718E-013  0.7246154E+02  0.7816164E-02  0.1226708E+00
        -11   -1    0    0    0    0  0.00000000000E+00  0.00000000000E+00  0.45593999997E+02  0.45594000000E+02  0.51100000000E-03 0.  1.
         11   -1    0    0    0    0 -0.00000000000E+00 -0.00000000000E+00 -0.45593999997E+02  0.45594000000E+02  0.51100000000E-03 0. -1.
    9900012    2    1    2    0    0  0.18062464997E+02 -0.48504486342E+01  0.94902984959E+00  0.72461544078E+02  0.69999965849E+02 0.  0.
         12    1    1    2    0    0 -0.18062464997E+02  0.48504486342E+01 -0.94902984959E+00  0.18726455922E+02  0.00000000000E+00 0. -1.
         11    1    3    3    0    0  0.90747690483E+01  0.23334849242E+02 -0.34213509149E+01  0.25269987432E+02  0.51100000000E-03 0. -1.
        -11    1    3    3    0    0 -0.86607734316E+01  0.28810145139E+01  0.67966247282E+01  0.11379953823E+02  0.51100000000E-03 0.  1.
        -12    1    3    3    0    0  0.17648469381E+02 -0.31066312391E+02 -0.24262439637E+01  0.35811602824E+02  0.00000000000E+00 0.  1.
</event>
<event>
 7    1  0.3597718E-013  0.7246157E+02  0.7816164E-02  0.1226708E+00
        -11   -1    0    0    0    0  0.00000000000E+00  0.00000000000E+00  0.45593999997E+02  0.45594000000E+02  0.51100000000E-03 0. -1.
         11   -1    0    0    0    0 -0.00000000000E+00 -0.00000000000E+00 -0.45593999997E+02  0.45594000000E+02  0.51100000000E-03 0.  1.
    9900012    2    1    2    0    0 -0.15165915105E+02 -0.20964482117E+01 -0.10783277963E+02  0.72461570557E+02  0.70000000342E+02 0.  0.
         12    1    1    2    0    0  0.15165915105E+02  0.20964482117E+01  0.10783277963E+02  0.18726429443E+02  0.00000000000E+00 0. -1.
         11    1    3    3    0    0 -0.73187628448E+01  0.35749635527E+01 -0.11430294249E+02  0.14035536358E+02  0.51100000000E-03 0. -1.
        -11    1    3    3    0    0  0.20382309019E+02 -0.10921393851E+02 -0.13115777603E+02  0.26584562945E+02  0.51100000000E-03 0.  1.
         12    1    3    3    0    0 -0.28229461278E+02  0.52499820866E+01  0.13762793889E+02  0.31841471254E+02  0.00000000000E+00 0. -1.
</event>
<event>
 7    1  0.3597718E-013  0.7246157E+02  0.7816164E-02  0.1226708E+00
        -11   -1    0    0    0    0  0.00000000000E+00  0.00000000000E+00  0.45593999997E+02  0.45594000000E+02  0.51100000000E-03 0.  1.
         11   -1    0    0    0    0 -0.00000000000E+00 -0.00000000000E+00 -0.45593999997E+02  0.45594000000E+02  0.51100000000E-03 0. -1.
    9900012    2    1    2    0    0 -0.12662899846E+02 -0.13671262213E+02  0.18511500996E+01  0.72461569489E+02  0.69999998950E+02 0.  0.
         12    1    1    2    0    0  0.12662899846E+02  0.13671262213E+02 -0.18511500996E+01  0.18726430511E+02  0.00000000000E+00 0. -1.
         11    1    3    3    0    0 -0.56546520921E+01  0.88098123185E+01 -0.12239837728E+02  0.16105946456E+02  0.51100000000E-03 0. -1.
        -11    1    3    3    0    0  0.13372023849E+02  0.88769401186E+01  0.95639501073E+01  0.18683688865E+02  0.51100000000E-03 0.  1.
         12    1    3    3    0    0 -0.20380271602E+02 -0.31358014650E+02  0.45270377207E+01  0.37671934168E+02  0.00000000000E+00 0. -1.
</event>
<event>
 7    1  0.3597718E-013  0.7246170E+02  0.7816164E-02  0.1226708E+00
        -11   -1    0    0    0    0  0.00000000000E+00  0.00000000000E+00  0.45593999997E+02  0.45594000000E+02  0.51100000000E-03 0.  1.
         11   -1    0    0    0    0 -0.00000000000E+00 -0.00000000000E+00 -0.45593999997E+02  0.45594000000E+02  0.51100000000E-03 0. -1.
    9900012    2    1    2    0    0  0.14070146898E+02 -0.49718180044E+01  0.11313107178E+02  0.72461697588E+02  0.70000165824E+02 0.  0.
         12    1    1    2    0    0 -0.14070146898E+02  0.49718180044E+01 -0.11313107178E+02  0.18726302412E+02  0.00000000000E+00 0. -1.
         11    1    3    3    0    0 -0.11308247570E+02  0.14356054212E+02 -0.15159468069E+02  0.23744098805E+02  0.51100000000E-03 0. -1.
        -11    1    3    3    0    0  0.16440431454E+02 -0.65766375593E+01 -0.34101752017E+00  0.17710342774E+02  0.51100000000E-03 0.  1.
        -12    1    3    3    0    0  0.89379630139E+01 -0.12751234657E+02  0.26813592767E+02  0.31007256009E+02  0.00000000000E+00 0.  1.
</event>
<event>
 7    1  0.3597718E-013  0.7246157E+02  0.7816164E-02  0.1226708E+00
        -11   -1    0    0    0    0  0.00000000000E+00  0.00000000000E+00  0.45593999997E+02  0.45594000000E+02  0.51100000000E-03 0. -1.
         11   -1    0    0    0    0 -0.00000000000E+00 -0.00000000000E+00 -0.45593999997E+02  0.45594000000E+02  0.51100000000E-03 0.  1.
    9900012    2    1    2    0    0  0.70181236161E+01  0.16574122592E+02  0.51694925520E+01  0.72461568092E+02  0.69999997130E+02 0.  0.
         12    1    1    2    0    0 -0.70181236161E+01 -0.16574122592E+02 -0.51694925520E+01  0.18726431908E+02  0.00000000000E+00 0. -1.
         11    1    3    3    0    0  0.26521174773E+01 -0.11715242303E+02  0.10350494920E+02  0.15856020140E+02  0.51100000000E-03 0. -1.
        -11    1    3    3    0    0  0.86565517032E+01  0.37978413322E+01 -0.23756783291E+02  0.25568422688E+02  0.51100000000E-03 0.  1.
         12    1    3    3    0    0 -0.42905455644E+01  0.24491523563E+02  0.18575780923E+02  0.31037125263E+02  0.00000000000E+00 0. -1.
</event>
<event>
 7    1  0.3597718E-013  0.7246156E+02  0.7816164E-02  0.1226708E+00
        -11   -1    0    0    0    0  0.00000000000E+00  0.00000000000E+00  0.45593999997E+02  0.45594000000E+02  0.51100000000E-03 0.  1.
         11   -1    0    0    0    0 -0.00000000000E+00 -0.00000000000E+00 -0.45593999997E+02  0.45594000000E+02  0.51100000000E-03 0. -1.
    9900012    2    1    2    0    0  0.14527665059E+02  0.45347153380E+01  0.10911590799E+02  0.72461561229E+02  0.69999988191E+02 0.  0.
         12    1    1    2    0    0 -0.14527665059E+02 -0.45347153380E+01 -0.10911590799E+02  0.18726438771E+02  0.00000000000E+00 0. -1.
         11    1    3    3    0    0 -0.19018116760E+02 -0.29606421431E+01  0.44008130546E+00  0.19252216465E+02  0.51100000000E-03 0. -1.
        -11    1    3    3    0    0  0.78593242845E+01 -0.32858074355E+01 -0.13829292890E+02  0.16242378237E+02  0.51100000000E-03 0.  1.
        -12    1    3    3    0    0  0.25686457535E+02  0.10781164917E+02  0.24300802384E+02  0.36966966526E+02  0.00000000000E+00 0.  1.
</event>
<event>
 7    1  0.3597718E-013  0.7246149E+02  0.7816164E-02  0.1226708E+00
        -11   -1    0    0    0    0  0.00000000000E+00  0.00000000000E+00  0.45593999997E+02  0.45594000000E+02  0.51100000000E-03 0.  1.
         11   -1    0    0    0    0 -0.00000000000E+00 -0.00000000000E+00 -0.45593999997E+02  0.45594000000E+02  0.51100000000E-03 0. -1.
    9900012    2    1    2    0    0  0.41026290059E+01 -0.12221024526E+02  0.13582977612E+02  0.72461487082E+02  0.69999891601E+02 0.  0.
         12    1    1    2    0    0 -0.41026290059E+01  0.12221024526E+02 -0.13582977612E+02  0.18726512918E+02  0.00000000000E+00 0. -1.
         11    1    3    3    0    0  0.11272191996E+02 -0.33300557881E+02 -0.60541979946E+01  0.35674119207E+02  0.51100000000E-03 0. -1.
        -11    1    3    3    0    0  0.56898130988E+01 -0.60855793687E+00  0.52042725837E+01  0.77349058978E+01  0.51100000000E-03 0.  1.
        -12    1    3    3    0    0 -0.12859376088E+02  0.21688091292E+02  0.14432903023E+02  0.29052461977E+02  0.00000000000E+00 0.  1.
</event>
<event>
 7    1  0.3597718E-013  0.7246128E+02  0.7816164E-02  0.1226709E+00
        -11   -1    0    0    0    0  0.00000000000E+00  0.00000000000E+00  0.45593999997E+02  0.45594000000E+02  0.51100000000E-03 0. -1.
         11   -1    0    0    0    0 -0.00000000000E+00 -0.00000000000E+00 -0.45593999997E+02  0.45594000000E+02  0.51100000000E-03 0.  1.
    9900012    2    1    2    0    0  0.17852527220E+02  0.56545772664E+01 -0.55606986377E-01  0.72461279403E+02  0.69999621058E+02 0.  0.
         12    1    1    2    0    0 -0.17852527220E+02 -0.56545772664E+01  0.55606986377E-01  0.18726720597E+02  0.00000000000E+00 0. -1.
         11    1    3    3    0    0  0.13099868048E+02 -0.13847284445E+02 -0.10559030371E+02  0.21790983273E+02  0.51100000000E-03 0. -1.
        -11    1    3    3    0    0 -0.40891252209E+01 -0.20638655721E+01 -0.15257417214E+02  0.15930137051E+02  0.51100000000E-03 0.  1.
         12    1    3    3    0    0  0.88417843928E+01  0.21565727283E+02  0.25760840598E+02  0.34740159079E+02  0.00000000000E+00 0. -1.
</event>
<event>
 7    1  0.3597718E-013  0.7246152E+02  0.7816164E-02  0.1226708E+00
        -11   -1    0    0    0    0  0.00000000000E+00  0.00000000000E+00  0.45593999997E+02  0.45594000000E+02  0.51100000000E-03 0. -1.
         11   -1    0    0    0    0 -0.00000000000E+00 -0.00000000000E+00 -0.45593999997E+02  0.45594000000E+02  0.51100000000E-03 0.  1.
    9900012    2    1    2    0    0 -0.58127701668E+01 -0.64577172098E+00 -0.17789762595E+02  0.72461522186E+02  0.69999937330E+02 0.  0.
         12    1    1    2    0    0  0.58127701668E+01  0.64577172098E+00  0.17789762595E+02  0.18726477814E+02  0.00000000000E+00 0. -1.
         11    1    3    3    0    0 -0.13238892956E+02 -0.51639839819E+01  0.12760624389E+02  0.19098914952E+02  0.51100000000E-03 0. -1.
        -11    1    3    3    0    0  0.18867206319E+02 -0.15169071925E+01  0.13131346997E+01  0.18973581758E+02  0.51100000000E-03 0.  1.
         12    1    3    3    0    0 -0.11441083529E+02  0.60351194534E+01 -0.31863521684E+02  0.34389025477E+02  0.00000000000E+00 0. -1.
</event>
<event>
 7    1  0.3597718E-013  0.7246156E+02  0.7816164E-02  0.1226708E+00
        -11   -1    0    0    0    0  0.00000000000E+00  0.00000000000E+00  0.45593999997E+02  0.45594000000E+02  0.51100000000E-03 0. -1.
         11   -1    0    0    0    0 -0.00000000000E+00 -0.00000000000E+00 -0.45593999997E+02  0.45594000000E+02  0.51100000000E-03 0.  1.
    9900012    2    1    2    0    0 -0.53587796168E+01 -0.17240857782E+02 -0.49715053370E+01  0.72461559833E+02  0.69999986372E+02 0.  0.
         12    1    1    2    0    0  0.53587796168E+01  0.17240857782E+02  0.49715053370E+01  0.18726440167E+02  0.00000000000E+00 0. -1.
         11    1    3    3    0    0  0.74824888439E+01  0.64415088133E+01 -0.86621844366E+00  0.99111558228E+01  0.51100000000E-03 0. -1.
        -11    1    3    3    0    0 -0.91738243849E+01 -0.39925194250E+02 -0.13866200766E+02  0.43248719215E+02  0.51100000000E-03 0.  1.
         12    1    3    3    0    0 -0.36674440758E+01  0.16242827655E+02  0.97609138729E+01  0.19301684795E+02  0.00000000000E+00 0. -1.
</event>
<event>
 7    1  0.3597718E-013  0.7246157E+02  0.7816164E-02  0.1226708E+00
        -11   -1    0    0    0    0  0.00000000000E+00  0.00000000000E+00  0.45593999997E+02  0.45594000000E+02  0.51100000000E-03 0. -1.
         11   -1    0    0    0    0 -0.00000000000E+00 -0.00000000000E+00 -0.45593999997E+02  0.45594000000E+02  0.51100000000E-03 0.  1.
    9900012    2    1    2    0    0 -0.14812273463E+02  0.37646349185E+01 -0.10821422084E+02  0.72461572227E+02  0.70000002517E+02 0.  0.
         12    1    1    2    0    0  0.14812273463E+02 -0.37646349185E+01  0.10821422084E+02  0.18726427773E+02  0.00000000000E+00 0. -1.
         11    1    3    3    0    0  0.94838645948E+01  0.85000059293E+01 -0.22923275062E+02  0.26223469036E+02  0.51100000000E-03 0. -1.
        -11    1    3    3    0    0 -0.12665191315E+02 -0.14862924332E+02 -0.78281264542E+01  0.21037898060E+02  0.51100000000E-03 0.  1.
         12    1    3    3    0    0 -0.11630946743E+02  0.10127553321E+02  0.19929979432E+02  0.25200205130E+02  0.00000000000E+00 0. -1.
</event>
<event>
 7    1  0.3597718E-013  0.7246153E+02  0.7816164E-02  0.1226708E+00
        -11   -1    0    0    0    0  0.00000000000E+00  0.00000000000E+00  0.45593999997E+02  0.45594000000E+02  0.51100000000E-03 0. -1.
         11   -1    0    0    0    0 -0.00000000000E+00 -0.00000000000E+00 -0.45593999997E+02  0.45594000000E+02  0.51100000000E-03 0.  1.
    9900012    2    1    2    0    0  0.32883735301E+01 -0.29902709286E+01 -0.18191363245E+02  0.72461526296E+02  0.69999942684E+02 0.  0.
         12    1    1    2    0    0 -0.32883735301E+01  0.29902709286E+01  0.18191363245E+02  0.18726473704E+02  0.00000000000E+00 0. -1.
         11    1    3    3    0    0  0.18450025299E+02 -0.18531902910E+02 -0.11246129092E+02  0.28465949463E+02  0.51100000000E-03 0. -1.
        -11    1    3    3    0    0  0.11722075594E+02  0.86700955851E+01 -0.71677324522E+01  0.16246661271E+02  0.51100000000E-03 0.  1.
        -12    1    3    3    0    0 -0.26883727363E+02  0.68715363965E+01  0.22249829933E+00  0.27748915562E+02  0.00000000000E+00 0.  1.
</event>
<event>
 7    1  0.3597718E-013  0.7246160E+02  0.7816164E-02  0.1226708E+00
        -11   -1    0    0    0    0  0.00000000000E+00  0.00000000000E+00  0.45593999997E+02  0.45594000000E+02  0.51100000000E-03 0.  1.
         11   -1    0    0    0    0 -0.00000000000E+00 -0.00000000000E+00 -0.45593999997E+02  0.45594000000E+02  0.51100000000E-03 0. -1.
    9900012    2    1    2    0    0 -0.94941084658E+01  0.15684535136E+02  0.38125291956E+01  0.72461598400E+02  0.70000036613E+02 0.  0.
         12    1    1    2    0    0  0.94941084658E+01 -0.15684535136E+02 -0.38125291956E+01  0.18726401600E+02  0.00000000000E+00 0. -1.
         11    1    3    3    0    0 -0.25778132602E+01  0.12460749437E+02  0.92334495863E+01  0.15721704401E+02  0.51100000000E-03 0. -1.
        -11    1    3    3    0    0  0.24072378019E+02  0.70923045853E+01 -0.32417172940E+00  0.25097514925E+02  0.51100000000E-03 0.  1.
         12    1    3    3    0    0 -0.30988673225E+02 -0.38685188858E+01 -0.50967486613E+01  0.31642379075E+02  0.00000000000E+00 0. -1.
</event>
<event>
 7    1  0.3597718E-013  0.7246165E+02  0.7816164E-02  0.1226708E+00
        -11   -1    0    0    0    0  0.00000000000E+00  0.00000000000E+00  0.45593999997E+02  0.45594000000E+02  0.51100000000E-03 0. -1.
         11   -1    0    0    0    0 -0.00000000000E+00 -0.00000000000E+00 -0.45593999997E+02  0.45594000000E+02  0.51100000000E-03 0.  1.
    9900012    2    1    2    0    0  0.15041680970E+02  0.11121618877E+02  0.85650205421E+00  0.72461650419E+02  0.70000104378E+02 0.  0.
         12    1    1    2    0    0 -0.15041680970E+02 -0.11121618877E+02 -0.85650205421E+00  0.18726349581E+02  0.00000000000E+00 0. -1.
         11    1    3    3    0    0 -0.37489766553E+01 -0.10068264841E+02  0.81000942092E+01  0.13454973405E+02  0.51100000000E-03 0. -1.
        -11    1    3    3    0    0 -0.67061580198E+01 -0.75519279947E+01  0.12288100125E+02  0.15906023286E+02  0.51100000000E-03 0.  1.
         12    1    3    3    0    0  0.25496815645E+02  0.28741811713E+02 -0.19531692280E+02  0.43100653729E+02  0.00000000000E+00 0. -1.
</event>
<event>
 7    1  0.3597718E-013  0.7246155E+02  0.7816164E-02  0.1226708E+00
        -11   -1    0    0    0    0  0.00000000000E+00  0.00000000000E+00  0.45593999997E+02  0.45594000000E+02  0.51100000000E-03 0.  1.
         11   -1    0    0    0    0 -0.00000000000E+00 -0.00000000000E+00 -0.45593999997E+02  0.45594000000E+02  0.51100000000E-03 0. -1.
    9900012    2    1    2    0    0 -0.79113346513E+01 -0.10705795887E+02  0.13171054857E+02  0.72461548986E+02  0.69999972242E+02 0.  0.
         12    1    1    2    0    0  0.79113346513E+01  0.10705795887E+02 -0.13171054857E+02  0.18726451014E+02  0.00000000000E+00 0. -1.
         11    1    3    3    0    0  0.16008262589E+02 -0.91287952720E+01 -0.76089566189E+01  0.19937291574E+02  0.51100000000E-03 0. -1.
        -11    1    3    3    0    0  0.42780545419E+00 -0.17665053078E+00 -0.11810319082E+02  0.11819384925E+02  0.51100000000E-03 0.  1.
        -12    1    3    3    0    0 -0.24347402694E+02 -0.14003500845E+01  0.32590330558E+02  0.40704872487E+02  0.00000000000E+00 0.  1.
</event>
<event>
 7    1  0.3597718E-013  0.7246172E+02  0.7816164E-02  0.1226708E+00
        -11   -1    0    0    0    0  0.00000000000E+00  0.00000000000E+00  0.45593999997E+02  0.45594000000E+02  0.51100000000E-03 0. -1.
         11   -1    0    0    0    0 -0.00000000000E+00 -0.00000000000E+00 -0.45593999997E+02  0.45594000000E+02  0.51100000000E-03 0.  1.
    9900012    2    1    2    0    0  0.22158978801E+01 -0.17183080953E+02 -0.71066904303E+01  0.72461721050E+02  0.70000196387E+02 0.  0.
         12    1    1    2    0    0 -0.22158978801E+01  0.17183080953E+02  0.71066904303E+01  0.18726278950E+02  0.00000000000E+00 0. -1.
         11    1    3    3    0    0  0.14302824095E+02  0.21437138951E+01 -0.11533846261E+02  0.18498537677E+02  0.51100000000E-03 0. -1.
        -11    1    3    3    0    0  0.23395874721E+01  0.13432928601E+02  0.11061811878E+02  0.17557930476E+02  0.51100000000E-03 0.  1.
         12    1    3    3    0    0 -0.14426513687E+02 -0.32759723448E+02 -0.66346560475E+01  0.36405252896E+02  0.00000000000E+00 0. -1.
</event>
<event>
 7    1  0.3597718E-013  0.7246141E+02  0.7816164E-02  0.1226708E+00
        -11   -1    0    0    0    0  0.00000000000E+00  0.00000000000E+00  0.45593999997E+02  0.45594000000E+02  0.51100000000E-03 0.  1.
         11   -1    0    0    0    0 -0.00000000000E+00 -0.00000000000E+00 -0.45593999997E+02  0.45594000000E+02  0.51100000000E-03 0. -1.
    9900012    2    1    2    0    0 -0.13645925483E+02  0.81699687956E+01  0.98856242039E+01  0.72461408257E+02  0.69999788916E+02 0.  0.
         12    1    1    2    0    0  0.13645925483E+02 -0.81699687956E+01 -0.98856242039E+01  0.18726591743E+02  0.00000000000E+00 0. -1.
         11    1    3    3    0    0  0.12233327867E+02  0.18126848121E+02  0.13301100605E+02  0.25596019438E+02  0.51100000000E-03 0. -1.
        -11    1    3    3    0    0  0.61296879656E+01 -0.10420640688E+02  0.60005373386E+01  0.13497009873E+02  0.51100000000E-03 0.  1.
         12    1    3    3    0    0 -0.32008941315E+02  0.46376136256E+00 -0.94160137401E+01  0.33368378946E+02  0.00000000000E+00 0. -1.
</event>
<event>
 7    1  0.3597718E-013  0.7246180E+02  0.7816164E-02  0.1226707E+00
        -11   -1    0    0    0    0  0.00000000000E+00  0.00000000000E+00  0.45593999997E+02  0.45594000000E+02  0.51100000000E-03 0.  1.
         11   -1    0    0    0    0 -0.00000000000E+00 -0.00000000000E+00 -0.45593999997E+02  0.45594000000E+02  0.51100000000E-03 0. -1.
    9900012    2    1    2    0    0 -0.35845133883E+01  0.17930742158E+02  0.40386154401E+01  0.72461797362E+02  0.70000295797E+02 0.  0.
         12    1    1    2    0    0  0.35845133883E+01 -0.17930742158E+02 -0.40386154401E+01  0.18726202638E+02  0.00000000000E+00 0. -1.
         11    1    3    3    0    0  0.13898157915E+02  0.58871118706E+01  0.11853310917E+02  0.19191609092E+02  0.51100000000E-03 0. -1.
        -11    1    3    3    0    0  0.40987160107E+01 -0.16275297742E+02  0.15467114858E+00  0.16784180437E+02  0.51100000000E-03 0.  1.
         12    1    3    3    0    0 -0.21581387314E+02  0.28318928029E+02 -0.79693666250E+01  0.36486007832E+02  0.00000000000E+00 0. -1.
</event>
<event>
 7    1  0.3597718E-013  0.7246155E+02  0.7816164E-02  0.1226708E+00
        -11   -1    0    0    0    0  0.00000000000E+00  0.00000000000E+00  0.45593999997E+02  0.45594000000E+02  0.51100000000E-03 0.  1.
         11   -1    0    0    0    0 -0.00000000000E+00 -0.00000000000E+00 -0.45593999997E+02  0.45594000000E+02  0.51100000000E-03 0. -1.
    9900012    2    1    2    0    0 -0.11216802706E+02 -0.14278003851E+02  0.45827640037E+01  0.72461553919E+02  0.69999978667E+02 0.  0.
         12    1    1    2    0    0  0.11216802706E+02  0.14278003851E+02 -0.45827640037E+01  0.18726446081E+02  0.00000000000E+00 0. -1.
         11    1    3    3    0    0 -0.12754831031E+02 -0.25938563328E+01 -0.13447095365E+02  0.18714651461E+02  0.51100000000E-03 0. -1.
        -11    1    3    3    0    0 -0.11832904983E+02  0.66632598130E+01  0.26288426345E+02  0.29588815989E+02  0.51100000000E-03 0.  1.
        -12    1    3    3    0    0  0.13370933308E+02 -0.18347407331E+02 -0.82585669758E+01  0.24158086468E+02  0.00000000000E+00 0.  1.
</event>
<event>
 7    1  0.3597718E-013  0.7246156E+02  0.7816164E-02  0.1226708E+00
        -11   -1    0    0    0    0  0.00000000000E+00  0.00000000000E+00  0.45593999997E+02  0.45594000000E+02  0.51100000000E-03 0. -1.
         11   -1    0    0    0    0 -0.00000000000E+00 -0.00000000000E+00 -0.45593999997E+02  0.45594000000E+02  0.51100000000E-03 0.  1.
    9900012    2    1    2    0    0  0.15051432554E+02  0.97595992820E+01  0.53744075686E+01  0.72461557284E+02  0.69999983052E+02 0.  0.
         12    1    1    2    0    0 -0.15051432554E+02 -0.97595992820E+01 -0.53744075686E+01  0.18726442716E+02  0.00000000000E+00 0. -1.
         11    1    3    3    0    0  0.95561876954E+01  0.60439920607E+01  0.17575753526E+02  0.20898748182E+02  0.51100000000E-03 0. -1.
        -11    1    3    3    0    0  0.14082889826E+02 -0.66126497553E+01  0.14756994055E+02  0.21443502429E+02  0.51100000000E-03 0.  1.
        -12    1    3    3    0    0 -0.85876449672E+01  0.10328256977E+02 -0.26958340012E+02  0.30119306673E+02  0.00000000000E+00 0.  1.
</event>
<event>
 7    1  0.3597718E-013  0.7246154E+02  0.7816164E-02  0.1226708E+00
        -11   -1    0    0    0    0  0.00000000000E+00  0.00000000000E+00  0.45593999997E+02  0.45594000000E+02  0.51100000000E-03 0. -1.
         11   -1    0    0    0    0 -0.00000000000E+00 -0.00000000000E+00 -0.45593999997E+02  0.45594000000E+02  0.51100000000E-03 0.  1.
    9900012    2    1    2    0    0 -0.14883186959E+02  0.10081737387E+02  0.52468751226E+01  0.72461537938E+02  0.69999957850E+02 0.  0.
         12    1    1    2    0    0  0.14883186959E+02 -0.10081737387E+02 -0.52468751226E+01  0.18726462062E+02  0.00000000000E+00 0. -1.
         11    1    3    3    0    0 -0.18622696307E+02  0.60575301565E+00  0.23237816605E+02  0.29785363441E+02  0.51100000000E-03 0. -1.
        -11    1    3    3    0    0 -0.21952925484E+01  0.10056443382E+02  0.98241702971E+01  0.14229043719E+02  0.51100000000E-03 0.  1.
        -12    1    3    3    0    0  0.59348018961E+01 -0.58045901068E+00 -0.27815111779E+02  0.28447130778E+02  0.00000000000E+00 0.  1.
</event>
<event>
 7    1  0.3597718E-013  0.7246136E+02  0.7816164E-02  0.1226709E+00
        -11   -1    0    0    0    0  0.00000000000E+00  0.00000000000E+00  0.45593999997E+02  0.45594000000E+02  0.51100000000E-03 0.  1.
         11   -1    0    0    0    0 -0.00000000000E+00 -0.00000000000E+00 -0.45593999997E+02  0.45594000000E+02  0.51100000000E-03 0. -1.
    9900012    2    1    2    0    0  0.42601604453E+01  0.13604888579E+02  0.12142698513E+02  0.72461358885E+02  0.69999724600E+02 0.  0.
         12    1    1    2    0    0 -0.42601604453E+01 -0.13604888579E+02 -0.12142698513E+02  0.18726641115E+02  0.00000000000E+00 0. -1.
         11    1    3    3    0    0 -0.48832336357E+00  0.96147835785E+01 -0.10414899470E+02  0.14182829555E+02  0.51100000000E-03 0. -1.
        -11    1    3    3    0    0 -0.73035392280E+01  0.26759537537E+02  0.89702944140E+01  0.29152713709E+02  0.51100000000E-03 0.  1.
         12    1    3    3    0    0  0.12052023037E+02 -0.22769432537E+02  0.13587303568E+02  0.29125815621E+02  0.00000000000E+00 0. -1.
</event>
<event>
 7    1  0.3597718E-013  0.7246156E+02  0.7816164E-02  0.1226708E+00
        -11   -1    0    0    0    0  0.00000000000E+00  0.00000000000E+00  0.45593999997E+02  0.45594000000E+02  0.51100000000E-03 0.  1.
         11   -1    0    0    0    0 -0.00000000000E+00 -0.00000000000E+00 -0.45593999997E+02  0.45594000000E+02  0.51100000000E-03 0. -1.
    9900012    2    1    2    0    0  0.13630342427E+01 -0.18446928580E+02 -0.29210520425E+01  0.72461559297E+02  0.69999985674E+02 0.  0.
         12    1    1    2    0    0 -0.13630342427E+01  0.18446928580E+02  0.29210520425E+01  0.18726440703E+02  0.00000000000E+00 0. -1.
         11    1    3    3    0    0 -0.11591035271E+02 -0.14736348867E+02 -0.30159417456E+02  0.35512005549E+02  0.51100000000E-03 0. -1.
        -11    1    3    3    0    0  0.39014049019E+01 -0.41094606919E+01 -0.22526672259E+01  0.60977977400E+01  0.51100000000E-03 0.  1.
        -12    1    3    3    0    0  0.90526646122E+01  0.39888097891E+00  0.29491032639E+02  0.30851756008E+02  0.00000000000E+00 0.  1.
</event>
<event>
 7    1  0.3597718E-013  0.7246155E+02  0.7816164E-02  0.1226708E+00
        -11   -1    0    0    0    0  0.00000000000E+00  0.00000000000E+00  0.45593999997E+02  0.45594000000E+02  0.51100000000E-03 0.  1.
         11   -1    0    0    0    0 -0.00000000000E+00 -0.00000000000E+00 -0.45593999997E+02  0.45594000000E+02  0.51100000000E-03 0. -1.
    9900012    2    1    2    0    0  0.62978811504E+01  0.87350681635E+01  0.15320418079E+02  0.72461549911E+02  0.69999973447E+02 0.  0.
         12    1    1    2    0    0 -0.62978811504E+01 -0.87350681635E+01 -0.15320418079E+02  0.18726450089E+02  0.00000000000E+00 0. -1.
         11    1    3    3    0    0 -0.40837877674E+01 -0.20734330049E+02 -0.14762613962E+02  0.25778373424E+02  0.51100000000E-03 0. -1.
        -11    1    3    3    0    0 -0.32079815089E+01 -0.20155965902E-01  0.22761708554E+01  0.39335106011E+01  0.51100000000E-03 0.  1.
         12    1    3    3    0    0  0.13589650427E+02  0.29489554179E+02  0.27806861186E+02  0.42749665886E+02  0.00000000000E+00 0. -1.
</event>
<event>
 7    1  0.3597718E-013  0.7246159E+02  0.7816164E-02  0.1226708E+00
        -11   -1    0    0    0    0  0.00000000000E+00  0.00000000000E+00  0.45593999997E+02  0.45594000000E+02  0.51100000000E-03 0.  1.
         11   -1    0    0    0    0 -0.00000000000E+00 -0.00000000000E+00 -0.45593999997E+02  0.45594000000E+02  0.51100000000E-03 0. -1.
    9900012    2    1    2    0    0 -0.55785653619E+01  0.12700180291E+02  0.12580277237E+02  0.72461592275E+02  0.70000028634E+02 0.  0.
         12    1    1    2    0    0  0.55785653619E+01 -0.12700180291E+02 -0.12580277237E+02  0.18726407725E+02  0.00000000000E+00 0. -1.
         11    1    3    3    0    0  0.88128201009E+01  0.93709852296E+01 -0.24997767504E+01  0.13104581121E+02  0.51100000000E-03 0. -1.
        -11    1    3    3    0    0 -0.11787376110E+02  0.27882813826E+02  0.16772153928E+02  0.34607783663E+02  0.51100000000E-03 0.  1.
        -12    1    3    3    0    0 -0.26040093523E+01 -0.24553618765E+02 -0.16920999405E+01  0.24749227491E+02  0.00000000000E+00 0.  1.
</event>
<event>
 7    1  0.3597718E-013  0.7246193E+02  0.7816164E-02  0.1226707E+00
        -11   -1    0    0    0    0  0.00000000000E+00  0.00000000000E+00  0.45593999997E+02  0.45594000000E+02  0.51100000000E-03 0.  1.
         11   -1    0    0    0    0 -0.00000000000E+00 -0.00000000000E+00 -0.45593999997E+02  0.45594000000E+02  0.51100000000E-03 0. -1.
    9900012    2    1    2    0    0 -0.16224985533E+02 -0.47248786856E+01  0.80678921936E+01  0.72461934781E+02  0.70000474810E+02 0.  0.
         12    1    1    2    0    0  0.16224985533E+02  0.47248786856E+01 -0.80678921936E+01  0.18726065219E+02  0.00000000000E+00 0. -1.
         11    1    3    3    0    0 -0.19022350456E+02 -0.11098860485E+02 -0.65595430569E+01  0.22979602397E+02  0.51100000000E-03 0. -1.
        -11    1    3    3    0    0 -0.48154790101E+00  0.45583545163E+01 -0.17013517192E+02  0.17620166055E+02  0.51100000000E-03 0.  1.
        -12    1    3    3    0    0  0.32789128248E+01  0.18156272831E+01  0.31640952443E+02  0.31862166330E+02  0.00000000000E+00 0.  1.
</event>
<event>
 7    1  0.3597718E-013  0.7246163E+02  0.7816164E-02  0.1226708E+00
        -11   -1    0    0    0    0  0.00000000000E+00  0.00000000000E+00  0.45593999997E+02  0.45594000000E+02  0.51100000000E-03 0.  1.
         11   -1    0    0    0    0 -0.00000000000E+00 -0.00000000000E+00 -0.45593999997E+02  0.45594000000E+02  0.51100000000E-03 0. -1.
    9900012    2    1    2    0    0 -0.13901315971E+02 -0.10600979577E+00  0.12546672454E+02  0.72461633201E+02  0.70000081948E+02 0.  0.
         12    1    1    2    0    0  0.13901315971E+02  0.10600979577E+00 -0.12546672454E+02  0.18726366799E+02  0.00000000000E+00 0. -1.
         11    1    3    3    0    0  0.34609823183E+01  0.41730364433E+01  0.26234255903E+02  0.26788594865E+02  0.51100000000E-03 0. -1.
        -11    1    3    3    0    0 -0.26142938693E+01  0.11342455492E+02  0.87855149923E+01  0.14583247339E+02  0.51100000000E-03 0.  1.
        -12    1    3    3    0    0 -0.14748004420E+02 -0.15621501731E+02 -0.22473098441E+02  0.31089790997E+02  0.00000000000E+00 0.  1.
</event>
<event>
 7    1  0.3597718E-013  0.7246177E+02  0.7816164E-02  0.1226707E+00
        -11   -1    0    0    0    0  0.00000000000E+00  0.00000000000E+00  0.45593999997E+02  0.45594000000E+02  0.51100000000E-03 0. -1.
         11   -1    0    0    0    0 -0.00000000000E+00 -0.00000000000E+00 -0.45593999997E+02  0.45594000000E+02  0.51100000000E-03 0.  1.
    9900012    2    1    2    0    0 -0.68857561350E+01 -0.10960946524E+02 -0.13532030049E+02  0.72461766436E+02  0.70000255510E+02 0.  0.
         12    1    1    2    0    0  0.68857561350E+01  0.10960946524E+02  0.13532030049E+02  0.18726233564E+02  0.00000000000E+00 0. -1.
         11    1    3    3    0    0 -0.25618637445E+01 -0.15442774427E+02 -0.66257588159E+01  0.16998326623E+02  0.51100000000E-03 0. -1.
        -11    1    3    3    0    0 -0.11084308869E+02 -0.23557794628E+02 -0.53445239592E+01  0.26578102405E+02  0.51100000000E-03 0.  1.
         12    1    3    3    0    0  0.67604164783E+01  0.28039622531E+02 -0.15617472740E+01  0.28885337408E+02  0.00000000000E+00 0. -1.
</event>
<event>
 7    1  0.3597718E-013  0.7246158E+02  0.7816164E-02  0.1226708E+00
        -11   -1    0    0    0    0  0.00000000000E+00  0.00000000000E+00  0.45593999997E+02  0.45594000000E+02  0.51100000000E-03 0. -1.
         11   -1    0    0    0    0 -0.00000000000E+00 -0.00000000000E+00 -0.45593999997E+02  0.45594000000E+02  0.51100000000E-03 0.  1.
    9900012    2    1    2    0    0  0.16584280041E+02  0.86364906873E+01  0.10253746298E+01  0.72461582590E+02  0.70000016017E+02 0.  0.
         12    1    1    2    0    0 -0.16584280041E+02 -0.86364906873E+01 -0.10253746298E+01  0.18726417410E+02  0.00000000000E+00 0. -1.
         11    1    3    3    0    0  0.46446127181E+01  0.33126663306E+02 -0.40896139802E+01  0.33699750620E+02  0.51100000000E-03 0. -1.
        -11    1    3    3    0    0  0.51087306993E+01  0.11189779792E+00 -0.84306771117E+01  0.98583957771E+01  0.51100000000E-03 0.  1.
        -12    1    3    3    0    0  0.68309366240E+01 -0.24602070416E+02  0.13545665722E+02  0.28903436193E+02  0.00000000000E+00 0.  1.
</event>
<event>
 7    1  0.3597718E-013  0.7246157E+02  0.7816164E-02  0.1226708E+00
        -11   -1    0    0    0    0  0.00000000000E+00  0.00000000000E+00  0.45593999997E+02  0.45594000000E+02  0.51100000000E-03 0.  1.
         11   -1    0    0    0    0 -0.00000000000E+00 -0.00000000000E+00 -0.45593999997E+02  0.45594000000E+02  0.51100000000E-03 0. -1.
    9900012    2    1    2    0    0 -0.79260089740E+01  0.32767653682E+01  0.16646938096E+02  0.72461565275E+02  0.69999993461E+02 0.  0.
         12    1    1    2    0    0  0.79260089740E+01 -0.32767653682E+01 -0.16646938096E+02  0.18726434725E+02  0.00000000000E+00 0. -1.
         11    1    3    3    0    0 -0.27466397980E+02  0.51173528362E+01  0.38071649670E+01  0.28197248507E+02  0.51100000000E-03 0. -1.
        -11    1    3    3    0    0  0.75527476216E+01  0.17791253830E+02  0.67027699918E+01  0.20457268520E+02  0.51100000000E-03 0.  1.
        -12    1    3    3    0    0  0.11987641384E+02 -0.19631841298E+02  0.61370031376E+01  0.23807048247E+02  0.00000000000E+00 0.  1.
</event>
<event>
 7    1  0.3597718E-013  0.7246155E+02  0.7816164E-02  0.1226708E+00
        -11   -1    0    0    0    0  0.00000000000E+00  0.00000000000E+00  0.45593999997E+02  0.45594000000E+02  0.51100000000E-03 0. -1.
         11   -1    0    0    0    0 -0.00000000000E+00 -0.00000000000E+00 -0.45593999997E+02  0.45594000000E+02  0.51100000000E-03 0.  1.
    9900012    2    1    2    0    0 -0.10974051453E+01 -0.17585867908E+02  0.63413617993E+01  0.72461550321E+02  0.69999973980E+02 0.  0.
         12    1    1    2    0    0  0.10974051453E+01  0.17585867908E+02 -0.63413617993E+01  0.18726449679E+02  0.00000000000E+00 0. -1.
         11    1    3    3    0    0 -0.39358478150E+01 -0.87457841717E+01  0.33936827254E+02  0.35265959268E+02  0.51100000000E-03 0. -1.
        -11    1    3    3    0    0  0.31431550571E+01 -0.15822129436E+01  0.36775834737E+01  0.50899353610E+01  0.51100000000E-03 0.  1.
        -12    1    3    3    0    0 -0.30471238741E+00 -0.72578707926E+01 -0.31273048928E+02  0.32105655691E+02  0.00000000000E+00 0.  1.
</event>
<event>
 7    1  0.3597718E-013  0.7246157E+02  0.7816164E-02  0.1226708E+00
        -11   -1    0    0    0    0  0.00000000000E+00  0.00000000000E+00  0.45593999997E+02  0.45594000000E+02  0.51100000000E-03 0.  1.
         11   -1    0    0    0    0 -0.00000000000E+00 -0.00000000000E+00 -0.45593999997E+02  0.45594000000E+02  0.51100000000E-03 0. -1.
    9900012    2    1    2    0    0 -0.52500061107E+01 -0.17504580117E+02  0.40873270545E+01  0.72461571305E+02  0.70000001316E+02 0.  0.
         12    1    1    2    0    0  0.52500061107E+01  0.17504580117E+02 -0.40873270545E+01  0.18726428695E+02  0.00000000000E+00 0. -1.
         11    1    3    3    0    0 -0.11305387792E+02 -0.16205040334E+02 -0.63609447652E+01  0.20757570761E+02  0.51100000000E-03 0. -1.
        -11    1    3    3    0    0  0.11444371398E+02 -0.23487905437E+02  0.12135305122E+02  0.28808348949E+02  0.51100000000E-03 0.  1.
        -12    1    3    3    0    0 -0.53889897168E+01  0.22188365654E+02 -0.16870333021E+01  0.22895651594E+02  0.00000000000E+00 0.  1.
</event>
<event>
 7    1  0.3597718E-013  0.7246163E+02  0.7816164E-02  0.1226708E+00
        -11   -1    0    0    0    0  0.00000000000E+00  0.00000000000E+00  0.45593999997E+02  0.45594000000E+02  0.51100000000E-03 0.  1.
         11   -1    0    0    0    0 -0.00000000000E+00 -0.00000000000E+00 -0.45593999997E+02  0.45594000000E+02  0.51100000000E-03 0. -1.
    9900012    2    1    2    0    0  0.18097502285E+02 -0.48016441091E+01  0.31862036563E+00  0.72461631050E+02  0.70000079146E+02 0.  0.
         12    1    1    2    0    0 -0.18097502285E+02  0.48016441091E+01 -0.31862036563E+00  0.18726368950E+02  0.00000000000E+00 0. -1.
         11    1    3    3    0    0 -0.55839795025E+01 -0.15966058268E+01 -0.23939895425E+01  0.62818121145E+01  0.51100000000E-03 0. -1.
        -11    1    3    3    0    0  0.92093571300E+00  0.26366509351E+02  0.98973620627E+01  0.28177982788E+02  0.51100000000E-03 0.  1.
         12    1    3    3    0    0  0.22760546074E+02 -0.29571547634E+02 -0.71847521546E+01  0.38001836147E+02  0.00000000000E+00 0. -1.
</event>
<event>
 7    1  0.3597718E-013  0.7246150E+02  0.7816164E-02  0.1226708E+00
        -11   -1    0    0    0    0  0.00000000000E+00  0.00000000000E+00  0.45593999997E+02  0.45594000000E+02  0.51100000000E-03 0.  1.
         11   -1    0    0    0    0 -0.00000000000E+00 -0.00000000000E+00 -0.45593999997E+02  0.45594000000E+02  0.51100000000E-03 0. -1.
    9900012    2    1    2    0    0  0.80528465087E+01 -0.59021232162E+00  0.16896310195E+02  0.72461495102E+02  0.69999902048E+02 0.  0.
         12    1    1    2    0    0 -0.80528465087E+01  0.59021232162E+00 -0.16896310195E+02  0.18726504898E+02  0.00000000000E+00 0. -1.
         11    1    3    3    0    0 -0.11321803479E+02 -0.10854654640E+01  0.29755143815E+02  0.31854827782E+02  0.51100000000E-03 0.  1.
        -11    1    3    3    0    0  0.34807135912E+00  0.14692931083E+02 -0.36524377029E+01  0.15144097164E+02  0.51100000000E-03 0. -1.
         12    1    3    3    0    0  0.19026578629E+02 -0.14197677941E+02 -0.92063959170E+01  0.25462570157E+02  0.00000000000E+00 0. -1.
</event>
<event>
 7    1  0.3597718E-013  0.7246161E+02  0.7816164E-02  0.1226708E+00
        -11   -1    0    0    0    0  0.00000000000E+00  0.00000000000E+00  0.45593999997E+02  0.45594000000E+02  0.51100000000E-03 0. -1.
         11   -1    0    0    0    0 -0.00000000000E+00 -0.00000000000E+00 -0.45593999997E+02  0.45594000000E+02  0.51100000000E-03 0.  1.
    9900012    2    1    2    0    0 -0.26225145839E+01 -0.17408910430E+02 -0.63820150944E+01  0.72461605212E+02  0.70000045486E+02 0.  0.
         12    1    1    2    0    0  0.26225145839E+01  0.17408910430E+02  0.63820150944E+01  0.18726394788E+02  0.00000000000E+00 0. -1.
         11    1    3    3    0    0  0.14837512274E+02  0.12440646697E+02  0.13626467557E+02  0.23677036957E+02  0.51100000000E-03 0. -1.
        -11    1    3    3    0    0 -0.19145779822E+02 -0.91386794037E+01 -0.20384929859E+01  0.21312714519E+02  0.51100000000E-03 0.  1.
        -12    1    3    3    0    0  0.16857529644E+01 -0.20710877723E+02 -0.17969989666E+02  0.27471853736E+02  0.00000000000E+00 0.  1.
</event>
