<event>
 7    1  0.1756449E-015  0.9000774E+02  0.7816164E-02  0.1186339E+00
        -11   -1    0    0    0    0  0.00000000000E+00  0.00000000000E+00  0.45593999997E+02  0.45594000000E+02  0.51100000000E-03 0.  1.
         11   -1    0    0    0    0 -0.00000000000E+00 -0.00000000000E+00 -0.45593999997E+02  0.45594000000E+02  0.51100000000E-03 0. -1.
    9900012    2    1    2    0    0 -0.17378169157E+00  0.22013716533E+00 -0.11464479339E+01  0.90007744387E+02  0.90000005812E+02 0.  0.
        -12    1    1    2    0    0  0.17378169157E+00 -0.22013716533E+00  0.11464479339E+01  0.11802556134E+01  0.00000000000E+00 0.  1.
         11    1    3    3    0    0  0.30851713375E+02 -0.20441021438E+02 -0.80314944378E+01  0.37870416934E+02  0.51100000000E-03 0. -1.
        -11    1    3    3    0    0  0.78759101401E+01  0.50520235630E+01  0.38283744896E+01  0.10109864198E+02  0.51100000000E-03 0.  1.
        -12    1    3    3    0    0 -0.38901405207E+02  0.15609135040E+02  0.30566720143E+01  0.42027463254E+02  0.00000000000E+00 0.  1.
</event>
<event>
 7    1  0.1756449E-015  0.9000775E+02  0.7816164E-02  0.1186339E+00
        -11   -1    0    0    0    0  0.00000000000E+00  0.00000000000E+00  0.45593999997E+02  0.45594000000E+02  0.51100000000E-03 0. -1.
         11   -1    0    0    0    0 -0.00000000000E+00 -0.00000000000E+00 -0.45593999997E+02  0.45594000000E+02  0.51100000000E-03 0.  1.
    9900012    2    1    2    0    0  0.26352754562E+00  0.63048755431E+00  0.96230408822E+00  0.90007749822E+02  0.90000011320E+02 0.  0.
        -12    1    1    2    0    0 -0.26352754562E+00 -0.63048755431E+00 -0.96230408822E+00  0.11802501776E+01  0.00000000000E+00 0.  1.
         11    1    3    3    0    0 -0.88450883457E+01 -0.38524444919E+01  0.36503792831E+01  0.10315143507E+02  0.51100000000E-03 0. -1.
        -11    1    3    3    0    0 -0.34795107228E+02 -0.16588914476E+01 -0.55278424077E+01  0.35270503963E+02  0.51100000000E-03 0.  1.
         12    1    3    3    0    0  0.43903723119E+02  0.61418234938E+01  0.28397672128E+01  0.44422102352E+02  0.00000000000E+00 0. -1.
</event>
<event>
 7    1  0.1756449E-015  0.9000771E+02  0.7816164E-02  0.1186339E+00
        -11   -1    0    0    0    0  0.00000000000E+00  0.00000000000E+00  0.45593999997E+02  0.45594000000E+02  0.51100000000E-03 0.  1.
         11   -1    0    0    0    0 -0.00000000000E+00 -0.00000000000E+00 -0.45593999997E+02  0.45594000000E+02  0.51100000000E-03 0. -1.
    9900012    2    1    2    0    0  0.13644486522E+00 -0.11199969868E+01 -0.34651776733E+00  0.90007709775E+02  0.89999970744E+02 0.  0.
        -12    1    1    2    0    0 -0.13644486522E+00  0.11199969868E+01  0.34651776733E+00  0.11802902248E+01  0.00000000000E+00 0.  1.
         11    1    3    3    0    0  0.36793262223E+02 -0.15721648034E+01  0.38995818031E+01  0.37032723174E+02  0.51100000000E-03 0. -1.
        -11    1    3    3    0    0  0.68637123726E+01 -0.47510511270E+01 -0.37259544547E+01  0.91414315730E+01  0.51100000000E-03 0.  1.
        -12    1    3    3    0    0 -0.43520529731E+02  0.52032189437E+01 -0.52014511578E+00  0.43833555028E+02  0.00000000000E+00 0.  1.
</event>
<event>
 7    1  0.1756449E-015  0.9000822E+02  0.7816164E-02  0.1186338E+00
        -11   -1    0    0    0    0  0.00000000000E+00  0.00000000000E+00  0.45593999997E+02  0.45594000000E+02  0.51100000000E-03 0.  1.
         11   -1    0    0    0    0 -0.00000000000E+00 -0.00000000000E+00 -0.45593999997E+02  0.45594000000E+02  0.51100000000E-03 0. -1.
    9900012    2    1    2    0    0 -0.92966147392E+00  0.66523325980E+00 -0.29168704340E+00  0.90008217360E+02  0.90000485028E+02 0.  0.
        -12    1    1    2    0    0  0.92966147392E+00 -0.66523325980E+00  0.29168704340E+00  0.11797826399E+01  0.00000000000E+00 0.  1.
         11    1    3    3    0    0  0.42700202766E+01 -0.68047754761E+01  0.40974903805E+01  0.90181744340E+01  0.51100000000E-03 0. -1.
        -11    1    3    3    0    0  0.10202688148E+02 -0.23001489761E+02  0.25344996156E+02  0.35714593755E+02  0.51100000000E-03 0.  1.
         12    1    3    3    0    0 -0.15402369899E+02  0.30471498497E+02 -0.29734173580E+02  0.45275449171E+02  0.00000000000E+00 0. -1.
</event>
<event>
 7    1  0.1756449E-015  0.9000772E+02  0.7816164E-02  0.1186339E+00
        -11   -1    0    0    0    0  0.00000000000E+00  0.00000000000E+00  0.45593999997E+02  0.45594000000E+02  0.51100000000E-03 0.  1.
         11   -1    0    0    0    0 -0.00000000000E+00 -0.00000000000E+00 -0.45593999997E+02  0.45594000000E+02  0.51100000000E-03 0. -1.
    9900012    2    1    2    0    0 -0.73222769834E+00 -0.31298670870E+00 -0.87116648523E+00  0.90007724978E+02  0.89999986148E+02 0.  0.
        -12    1    1    2    0    0  0.73222769834E+00  0.31298670870E+00  0.87116648523E+00  0.11802750218E+01  0.00000000000E+00 0.  1.
         11    1    3    3    0    0 -0.69108233393E+01 -0.53387899689E+01  0.89324451948E+00  0.87783850218E+01  0.51100000000E-03 0. -1.
        -11    1    3    3    0    0 -0.17602468632E+02 -0.19500123312E+02  0.26184552832E+02  0.37090868396E+02  0.51100000000E-03 0.  1.
         12    1    3    3    0    0  0.23781064272E+02  0.24525926572E+02 -0.27948963836E+02  0.44138471560E+02  0.00000000000E+00 0. -1.
</event>
<event>
 7    1  0.1756449E-015  0.9000769E+02  0.7816164E-02  0.1186339E+00
        -11   -1    0    0    0    0  0.00000000000E+00  0.00000000000E+00  0.45593999997E+02  0.45594000000E+02  0.51100000000E-03 0. -1.
         11   -1    0    0    0    0 -0.00000000000E+00 -0.00000000000E+00 -0.45593999997E+02  0.45594000000E+02  0.51100000000E-03 0.  1.
    9900012    2    1    2    0    0 -0.36335051190E+00 -0.83917544196E+00  0.74625846382E+00  0.90007686181E+02  0.89999946838E+02 0.  0.
        -12    1    1    2    0    0  0.36335051190E+00  0.83917544196E+00 -0.74625846382E+00  0.11803138192E+01  0.00000000000E+00 0.  1.
         11    1    3    3    0    0 -0.92536442286E+01 -0.38415605653E+02  0.30568474670E+01  0.39632474133E+02  0.51100000000E-03 0. -1.
        -11    1    3    3    0    0 -0.21522575049E+00 -0.40537147592E+01 -0.63854047633E+01  0.75665262654E+01  0.51100000000E-03 0.  1.
        -12    1    3    3    0    0  0.91055194672E+01  0.41630144970E+02  0.40748157602E+01  0.42808685783E+02  0.00000000000E+00 0.  1.
</event>
<event>
 7    1  0.1756449E-015  0.9000773E+02  0.7816164E-02  0.1186339E+00
        -11   -1    0    0    0    0  0.00000000000E+00  0.00000000000E+00  0.45593999997E+02  0.45594000000E+02  0.51100000000E-03 0.  1.
         11   -1    0    0    0    0 -0.00000000000E+00 -0.00000000000E+00 -0.45593999997E+02  0.45594000000E+02  0.51100000000E-03 0. -1.
    9900012    2    1    2    0    0 -0.77400748076E-01  0.10209621089E+01 -0.58710096421E+00  0.90007727978E+02  0.89999989187E+02 0.  0.
        -12    1    1    2    0    0  0.77400748076E-01 -0.10209621089E+01  0.58710096421E+00  0.11802720220E+01  0.00000000000E+00 0.  1.
         11    1    3    3    0    0  0.36779129024E+01  0.50099991116E+01 -0.74158400163E+01  0.96758368023E+01  0.51100000000E-03 0. -1.
        -11    1    3    3    0    0  0.22111981288E+02  0.21079527165E+02  0.25468423671E+02  0.39773443232E+02  0.51100000000E-03 0.  1.
         12    1    3    3    0    0 -0.25867294939E+02 -0.25068564168E+02 -0.18639684619E+02  0.40558447943E+02  0.00000000000E+00 0. -1.
</event>
<event>
 7    1  0.1756449E-015  0.9000776E+02  0.7816164E-02  0.1186339E+00
        -11   -1    0    0    0    0  0.00000000000E+00  0.00000000000E+00  0.45593999997E+02  0.45594000000E+02  0.51100000000E-03 0.  1.
         11   -1    0    0    0    0 -0.00000000000E+00 -0.00000000000E+00 -0.45593999997E+02  0.45594000000E+02  0.51100000000E-03 0. -1.
    9900012    2    1    2    0    0 -0.45001486811E+00  0.92167937826E+00 -0.58392060476E+00  0.90007758698E+02  0.90000020313E+02 0.  0.
        -12    1    1    2    0    0  0.45001486811E+00 -0.92167937826E+00  0.58392060476E+00  0.11802413018E+01  0.00000000000E+00 0.  1.
         11    1    3    3    0    0 -0.27976508909E+02  0.24418534394E+02 -0.11736739828E+02  0.38944844777E+02  0.51100000000E-03 0. -1.
        -11    1    3    3    0    0  0.25203831674E+00 -0.31954846000E+01 -0.10348936620E+02  0.10833980551E+02  0.51100000000E-03 0.  1.
        -12    1    3    3    0    0  0.27274455724E+02 -0.20301370416E+02  0.21501755843E+02  0.40228933370E+02  0.00000000000E+00 0.  1.
</event>
<event>
 7    1  0.1756449E-015  0.9000778E+02  0.7816164E-02  0.1186339E+00
        -11   -1    0    0    0    0  0.00000000000E+00  0.00000000000E+00  0.45593999997E+02  0.45594000000E+02  0.51100000000E-03 0. -1.
         11   -1    0    0    0    0 -0.00000000000E+00 -0.00000000000E+00 -0.45593999997E+02  0.45594000000E+02  0.51100000000E-03 0.  1.
    9900012    2    1    2    0    0 -0.10030691771E+01  0.51384192595E+00  0.35033338402E+00  0.90007781894E+02  0.90000043815E+02 0.  0.
        -12    1    1    2    0    0  0.10030691771E+01 -0.51384192595E+00 -0.35033338402E+00  0.11802181065E+01  0.00000000000E+00 0.  1.
         11    1    3    3    0    0  0.11417976921E+02 -0.30830100519E+02  0.76947827333E+01  0.33764996321E+02  0.51100000000E-03 0. -1.
        -11    1    3    3    0    0 -0.39627815969E+01 -0.90355995295E+01  0.75043932897E+01  0.12396032258E+02  0.51100000000E-03 0.  1.
        -12    1    3    3    0    0 -0.84582645011E+01  0.40379541975E+02 -0.14848842639E+02  0.43846753314E+02  0.00000000000E+00 0.  1.
</event>
<event>
 7    1  0.1756449E-015  0.9000783E+02  0.7816164E-02  0.1186339E+00
        -11   -1    0    0    0    0  0.00000000000E+00  0.00000000000E+00  0.45593999997E+02  0.45594000000E+02  0.51100000000E-03 0.  1.
         11   -1    0    0    0    0 -0.00000000000E+00 -0.00000000000E+00 -0.45593999997E+02  0.45594000000E+02  0.51100000000E-03 0. -1.
    9900012    2    1    2    0    0  0.35520769680E+00 -0.27864395866E+00 -0.10904069046E+01  0.90007829597E+02  0.90000092147E+02 0.  0.
        -12    1    1    2    0    0 -0.35520769680E+00  0.27864395866E+00  0.10904069046E+01  0.11801704034E+01  0.00000000000E+00 0.  1.
         11    1    3    3    0    0  0.35824694702E+02 -0.19289446273E+02  0.13106339283E+02  0.42746550945E+02  0.51100000000E-03 0. -1.
        -11    1    3    3    0    0 -0.85923748258E+01 -0.34634283906E+01  0.47884176012E+00  0.92765042476E+01  0.51100000000E-03 0.  1.
        -12    1    3    3    0    0 -0.26877112180E+02  0.22474230705E+02 -0.14675587947E+02  0.37984774404E+02  0.00000000000E+00 0.  1.
</event>
<event>
 7    1  0.1756449E-015  0.9000769E+02  0.7816164E-02  0.1186339E+00
        -11   -1    0    0    0    0  0.00000000000E+00  0.00000000000E+00  0.45593999997E+02  0.45594000000E+02  0.51100000000E-03 0.  1.
         11   -1    0    0    0    0 -0.00000000000E+00 -0.00000000000E+00 -0.45593999997E+02  0.45594000000E+02  0.51100000000E-03 0. -1.
    9900012    2    1    2    0    0 -0.11248795613E+01  0.71999796838E-01 -0.35014220784E+00  0.90007687514E+02  0.89999948189E+02 0.  0.
        -12    1    1    2    0    0  0.11248795613E+01 -0.71999796838E-01  0.35014220784E+00  0.11803124857E+01  0.00000000000E+00 0.  1.
         11    1    3    3    0    0  0.79740926752E+01  0.15253865363E+02 -0.32847830080E+02  0.37084316143E+02  0.51100000000E-03 0. -1.
        -11    1    3    3    0    0 -0.50519568128E+01  0.73063376269E+01 -0.40960589313E+01  0.97817450481E+01  0.51100000000E-03 0.  1.
        -12    1    3    3    0    0 -0.40470154237E+01 -0.22488203194E+02  0.36593746804E+02  0.43141626324E+02  0.00000000000E+00 0.  1.
</event>
<event>
 7    1  0.1756449E-015  0.9000772E+02  0.7816164E-02  0.1186339E+00
        -11   -1    0    0    0    0  0.00000000000E+00  0.00000000000E+00  0.45593999997E+02  0.45594000000E+02  0.51100000000E-03 0. -1.
         11   -1    0    0    0    0 -0.00000000000E+00 -0.00000000000E+00 -0.45593999997E+02  0.45594000000E+02  0.51100000000E-03 0.  1.
    9900012    2    1    2    0    0  0.11535159930E+01  0.17586963435E-01  0.24931634804E+00  0.90007717369E+02  0.89999978438E+02 0.  0.
        -12    1    1    2    0    0 -0.11535159930E+01 -0.17586963435E-01 -0.24931634804E+00  0.11802826309E+01  0.00000000000E+00 0.  1.
         11    1    3    3    0    0 -0.53261034409E+01 -0.99125958467E+01  0.67410997291E+01  0.13117521111E+02  0.51100000000E-03 0. -1.
        -11    1    3    3    0    0 -0.61999198889E+01  0.41775633846E+02 -0.55894000876E+01  0.42601455180E+02  0.51100000000E-03 0.  1.
         12    1    3    3    0    0  0.12679539323E+02 -0.31845451036E+02 -0.90238329340E+00  0.34288741078E+02  0.00000000000E+00 0. -1.
</event>
<event>
 7    1  0.1756449E-015  0.9000783E+02  0.7816164E-02  0.1186339E+00
        -11   -1    0    0    0    0  0.00000000000E+00  0.00000000000E+00  0.45593999997E+02  0.45594000000E+02  0.51100000000E-03 0.  1.
         11   -1    0    0    0    0 -0.00000000000E+00 -0.00000000000E+00 -0.45593999997E+02  0.45594000000E+02  0.51100000000E-03 0. -1.
    9900012    2    1    2    0    0 -0.81738324506E+00  0.63072495576E+00 -0.57172292313E+00  0.90007832029E+02  0.90000094612E+02 0.  0.
        -12    1    1    2    0    0  0.81738324506E+00 -0.63072495576E+00  0.57172292313E+00  0.11801679711E+01  0.00000000000E+00 0.  1.
         11    1    3    3    0    0 -0.26138645468E+02 -0.16559809521E+01 -0.25584092997E+02  0.36613069723E+02  0.51100000000E-03 0. -1.
        -11    1    3    3    0    0 -0.99187446981E+01  0.31189120587E+01  0.40481007424E+00  0.10405430326E+02  0.51100000000E-03 0.  1.
        -12    1    3    3    0    0  0.35240006921E+02 -0.83220615085E+00  0.24607560000E+02  0.42989331979E+02  0.00000000000E+00 0.  1.
</event>
<event>
 7    1  0.1756449E-015  0.9000767E+02  0.7816164E-02  0.1186339E+00
        -11   -1    0    0    0    0  0.00000000000E+00  0.00000000000E+00  0.45593999997E+02  0.45594000000E+02  0.51100000000E-03 0.  1.
         11   -1    0    0    0    0 -0.00000000000E+00 -0.00000000000E+00 -0.45593999997E+02  0.45594000000E+02  0.51100000000E-03 0. -1.
    9900012    2    1    2    0    0  0.62392330163E+00  0.30291614862E+00 -0.95505632762E+00  0.90007673321E+02  0.89999933809E+02 0.  0.
        -12    1    1    2    0    0 -0.62392330163E+00 -0.30291614862E+00  0.95505632762E+00  0.11803266787E+01  0.00000000000E+00 0.  1.
         11    1    3    3    0    0 -0.81813929833E+01 -0.23958124823E+02  0.18706172888E+02  0.31477735633E+02  0.51100000000E-03 0. -1.
        -11    1    3    3    0    0 -0.99381089980E+01 -0.10777808160E+02 -0.11871416534E+01  0.14708380766E+02  0.51100000000E-03 0.  1.
        -12    1    3    3    0    0  0.18743425283E+02  0.35038849132E+02 -0.18474087562E+02  0.43821556922E+02  0.00000000000E+00 0.  1.
</event>
<event>
 7    1  0.1756449E-015  0.9000772E+02  0.7816164E-02  0.1186339E+00
        -11   -1    0    0    0    0  0.00000000000E+00  0.00000000000E+00  0.45593999997E+02  0.45594000000E+02  0.51100000000E-03 0. -1.
         11   -1    0    0    0    0 -0.00000000000E+00 -0.00000000000E+00 -0.45593999997E+02  0.45594000000E+02  0.51100000000E-03 0.  1.
    9900012    2    1    2    0    0  0.80648839307E+00  0.86161386754E+00  0.16036144153E-01  0.90007720735E+02  0.89999981849E+02 0.  0.
        -12    1    1    2    0    0 -0.80648839307E+00 -0.86161386754E+00 -0.16036144153E-01  0.11802792648E+01  0.00000000000E+00 0.  1.
         11    1    3    3    0    0  0.31255618997E+02  0.30229969580E+02 -0.56132410878E+01  0.43843736787E+02  0.51100000000E-03 0. -1.
        -11    1    3    3    0    0 -0.90777307359E+01  0.96714551342E-01  0.34075403944E+01  0.96966943243E+01  0.51100000000E-03 0.  1.
        -12    1    3    3    0    0 -0.21371399868E+02 -0.29465070264E+02  0.22217368376E+01  0.36467289624E+02  0.00000000000E+00 0.  1.
</event>
<event>
 7    1  0.1756449E-015  0.9000766E+02  0.7816164E-02  0.1186339E+00
        -11   -1    0    0    0    0  0.00000000000E+00  0.00000000000E+00  0.45593999997E+02  0.45594000000E+02  0.51100000000E-03 0.  1.
         11   -1    0    0    0    0 -0.00000000000E+00 -0.00000000000E+00 -0.45593999997E+02  0.45594000000E+02  0.51100000000E-03 0. -1.
    9900012    2    1    2    0    0  0.11387456666E+01  0.31043273819E+00 -0.97547081604E-02  0.90007658807E+02  0.89999919103E+02 0.  0.
        -12    1    1    2    0    0 -0.11387456666E+01 -0.31043273819E+00  0.97547081604E-02  0.11803411933E+01  0.00000000000E+00 0.  1.
         11    1    3    3    0    0 -0.41169970721E+01  0.88210266822E+01  0.94374869346E+00  0.97801246657E+01  0.51100000000E-03 0. -1.
        -11    1    3    3    0    0  0.14911303912E+02  0.26115572178E+02  0.22278997511E+02  0.37426245135E+02  0.51100000000E-03 0.  1.
         12    1    3    3    0    0 -0.96555611728E+01 -0.34626166122E+02 -0.23232500913E+02  0.42801289006E+02  0.00000000000E+00 0. -1.
</event>
<event>
 7    1  0.1756449E-015  0.9000774E+02  0.7816164E-02  0.1186339E+00
        -11   -1    0    0    0    0  0.00000000000E+00  0.00000000000E+00  0.45593999997E+02  0.45594000000E+02  0.51100000000E-03 0.  1.
         11   -1    0    0    0    0 -0.00000000000E+00 -0.00000000000E+00 -0.45593999997E+02  0.45594000000E+02  0.51100000000E-03 0. -1.
    9900012    2    1    2    0    0  0.35278102647E+00  0.11207009240E+01  0.11222092112E+00  0.90007737932E+02  0.89999999273E+02 0.  0.
        -12    1    1    2    0    0 -0.35278102647E+00 -0.11207009240E+01 -0.11222092112E+00  0.11802620679E+01  0.00000000000E+00 0.  1.
         11    1    3    3    0    0  0.46383411372E+01  0.76412149518E+01  0.25578304782E+01  0.92975734178E+01  0.51100000000E-03 0. -1.
        -11    1    3    3    0    0 -0.21852258499E+02  0.31414535667E+02 -0.60804064503E+01  0.38747459214E+02  0.51100000000E-03 0.  1.
         12    1    3    3    0    0  0.17566698388E+02 -0.37935049695E+02  0.36347968932E+01  0.41962705300E+02  0.00000000000E+00 0. -1.
</event>
<event>
 7    1  0.1756449E-015  0.9000776E+02  0.7816164E-02  0.1186339E+00
        -11   -1    0    0    0    0  0.00000000000E+00  0.00000000000E+00  0.45593999997E+02  0.45594000000E+02  0.51100000000E-03 0. -1.
         11   -1    0    0    0    0 -0.00000000000E+00 -0.00000000000E+00 -0.45593999997E+02  0.45594000000E+02  0.51100000000E-03 0.  1.
    9900012    2    1    2    0    0 -0.26351461628E+00 -0.22435837941E-01 -0.11502258985E+01  0.90007761491E+02  0.90000023143E+02 0.  0.
        -12    1    1    2    0    0  0.26351461628E+00  0.22435837941E-01  0.11502258985E+01  0.11802385087E+01  0.00000000000E+00 0.  1.
         11    1    3    3    0    0 -0.19816204590E+02 -0.21513249599E+02  0.26559853114E+02  0.39508577175E+02  0.51100000000E-03 0. -1.
        -11    1    3    3    0    0  0.87116766768E+01 -0.28903183965E+01  0.31491659477E+01  0.97038393114E+01  0.51100000000E-03 0.  1.
        -12    1    3    3    0    0  0.10841013296E+02  0.24381132158E+02 -0.30859244960E+02  0.40795345005E+02  0.00000000000E+00 0.  1.
</event>
<event>
 7    1  0.1756449E-015  0.9000777E+02  0.7816164E-02  0.1186339E+00
        -11   -1    0    0    0    0  0.00000000000E+00  0.00000000000E+00  0.45593999997E+02  0.45594000000E+02  0.51100000000E-03 0.  1.
         11   -1    0    0    0    0 -0.00000000000E+00 -0.00000000000E+00 -0.45593999997E+02  0.45594000000E+02  0.51100000000E-03 0. -1.
    9900012    2    1    2    0    0  0.86294216199E+00 -0.50817794506E+00 -0.62452364357E+00  0.90007769607E+02  0.90000031366E+02 0.  0.
        -12    1    1    2    0    0 -0.86294216199E+00  0.50817794506E+00  0.62452364357E+00  0.11802303928E+01  0.00000000000E+00 0.  1.
         11    1    3    3    0    0  0.15872537802E+02  0.42187150998E+01 -0.11006146400E+01  0.16460448542E+02  0.51100000000E-03 0. -1.
        -11    1    3    3    0    0 -0.51334245472E+01  0.33564362677E+02 -0.10869909466E+01  0.33972047909E+02  0.51100000000E-03 0.  1.
         12    1    3    3    0    0 -0.98761710926E+01 -0.38291255722E+02  0.15630819430E+01  0.39575273156E+02  0.00000000000E+00 0. -1.
</event>
<event>
 7    1  0.1756449E-015  0.9000777E+02  0.7816164E-02  0.1186339E+00
        -11   -1    0    0    0    0  0.00000000000E+00  0.00000000000E+00  0.45593999997E+02  0.45594000000E+02  0.51100000000E-03 0.  1.
         11   -1    0    0    0    0 -0.00000000000E+00 -0.00000000000E+00 -0.45593999997E+02  0.45594000000E+02  0.51100000000E-03 0. -1.
    9900012    2    1    2    0    0 -0.10543011437E+01 -0.41154973672E+00 -0.33467830874E+00  0.90007773896E+02  0.90000035711E+02 0.  0.
        -12    1    1    2    0    0  0.10543011437E+01  0.41154973672E+00  0.33467830874E+00  0.11802261045E+01  0.00000000000E+00 0.  1.
         11    1    3    3    0    0  0.14847388140E+02 -0.20489329969E+02  0.28657456740E+01  0.25465075608E+02  0.51100000000E-03 0. -1.
        -11    1    3    3    0    0 -0.19052043570E+02 -0.12608924958E+02  0.14675844865E+02  0.27154111577E+02  0.51100000000E-03 0.  1.
         12    1    3    3    0    0  0.31503542865E+01  0.32686705190E+02 -0.17876268848E+02  0.37388586711E+02  0.00000000000E+00 0. -1.
</event>
<event>
 7    1  0.1756449E-015  0.9000766E+02  0.7816164E-02  0.1186339E+00
        -11   -1    0    0    0    0  0.00000000000E+00  0.00000000000E+00  0.45593999997E+02  0.45594000000E+02  0.51100000000E-03 0.  1.
         11   -1    0    0    0    0 -0.00000000000E+00 -0.00000000000E+00 -0.45593999997E+02  0.45594000000E+02  0.51100000000E-03 0. -1.
    9900012    2    1    2    0    0 -0.88268519194E-01 -0.55815601425E+00 -0.10362769015E+01  0.90007661369E+02  0.89999921699E+02 0.  0.
        -12    1    1    2    0    0  0.88268519194E-01  0.55815601425E+00  0.10362769015E+01  0.11803386312E+01  0.00000000000E+00 0.  1.
         11    1    3    3    0    0 -0.62394965403E+01  0.28064429757E+02 -0.29850462789E+02  0.41443861592E+02  0.51100000000E-03 0. -1.
        -11    1    3    3    0    0 -0.71786446203E+01 -0.74140894322E+01 -0.83552240605E-01  0.10320302415E+02  0.51100000000E-03 0.  1.
        -12    1    3    3    0    0  0.13329872641E+02 -0.21208496339E+02  0.28897738128E+02  0.38243497362E+02  0.00000000000E+00 0.  1.
</event>
<event>
 7    1  0.1756449E-015  0.9000771E+02  0.7816164E-02  0.1186339E+00
        -11   -1    0    0    0    0  0.00000000000E+00  0.00000000000E+00  0.45593999997E+02  0.45594000000E+02  0.51100000000E-03 0. -1.
         11   -1    0    0    0    0 -0.00000000000E+00 -0.00000000000E+00 -0.45593999997E+02  0.45594000000E+02  0.51100000000E-03 0.  1.
    9900012    2    1    2    0    0 -0.10920178602E+01 -0.16084292628E+00  0.41798583919E+00  0.90007709521E+02  0.89999970486E+02 0.  0.
        -12    1    1    2    0    0  0.10920178602E+01  0.16084292628E+00 -0.41798583919E+00  0.11802904794E+01  0.00000000000E+00 0.  1.
         11    1    3    3    0    0  0.28284523081E+01 -0.26880205020E+02 -0.14096587337E+02  0.30483755333E+02  0.51100000000E-03 0. -1.
        -11    1    3    3    0    0  0.15911009505E+02 -0.75963730079E+01  0.10399669344E+01  0.17662011149E+02  0.51100000000E-03 0.  1.
        -12    1    3    3    0    0 -0.19831479673E+02  0.34315735102E+02  0.13474606242E+02  0.41861943039E+02  0.00000000000E+00 0.  1.
</event>
<event>
 7    1  0.1756449E-015  0.9000773E+02  0.7816164E-02  0.1186339E+00
        -11   -1    0    0    0    0  0.00000000000E+00  0.00000000000E+00  0.45593999997E+02  0.45594000000E+02  0.51100000000E-03 0.  1.
         11   -1    0    0    0    0 -0.00000000000E+00 -0.00000000000E+00 -0.45593999997E+02  0.45594000000E+02  0.51100000000E-03 0. -1.
    9900012    2    1    2    0    0  0.73151223477E+00 -0.90120535153E+00  0.21392817194E+00  0.90007726092E+02  0.89999987276E+02 0.  0.
        -12    1    1    2    0    0 -0.73151223477E+00  0.90120535153E+00 -0.21392817194E+00  0.11802739080E+01  0.00000000000E+00 0.  1.
         11    1    3    3    0    0 -0.10373201911E+02 -0.56898844791E+01 -0.17112118038E+01  0.11954344372E+02  0.51100000000E-03 0. -1.
        -11    1    3    3    0    0 -0.32690384429E+02  0.84310442418E+01  0.43557051013E+01  0.34039916397E+02  0.51100000000E-03 0.  1.
         12    1    3    3    0    0  0.43795098575E+02 -0.36423651142E+01 -0.24305651256E+01  0.44013465322E+02  0.00000000000E+00 0. -1.
</event>
<event>
 7    1  0.1756449E-015  0.9000773E+02  0.7816164E-02  0.1186339E+00
        -11   -1    0    0    0    0  0.00000000000E+00  0.00000000000E+00  0.45593999997E+02  0.45594000000E+02  0.51100000000E-03 0.  1.
         11   -1    0    0    0    0 -0.00000000000E+00 -0.00000000000E+00 -0.45593999997E+02  0.45594000000E+02  0.51100000000E-03 0. -1.
    9900012    2    1    2    0    0 -0.99197924315E+00  0.52809949301E-01 -0.63735493369E+00  0.90007731801E+02  0.89999993061E+02 0.  0.
        -12    1    1    2    0    0  0.99197924315E+00 -0.52809949301E-01  0.63735493369E+00  0.11802681988E+01  0.00000000000E+00 0.  1.
         11    1    3    3    0    0 -0.17798466221E+02  0.32458894614E+01 -0.33554071642E+02  0.38120820062E+02  0.51100000000E-03 0. -1.
        -11    1    3    3    0    0 -0.80917537677E+01  0.45046076294E+01 -0.77355907807E+00  0.92933504637E+01  0.51100000000E-03 0.  1.
        -12    1    3    3    0    0  0.24898240745E+02 -0.76976871416E+01  0.33690275786E+02  0.42593561275E+02  0.00000000000E+00 0.  1.
</event>
<event>
 7    1  0.1756449E-015  0.9000779E+02  0.7816164E-02  0.1186339E+00
        -11   -1    0    0    0    0  0.00000000000E+00  0.00000000000E+00  0.45593999997E+02  0.45594000000E+02  0.51100000000E-03 0.  1.
         11   -1    0    0    0    0 -0.00000000000E+00 -0.00000000000E+00 -0.45593999997E+02  0.45594000000E+02  0.51100000000E-03 0. -1.
    9900012    2    1    2    0    0  0.77224467409E+00 -0.33140691312E+00 -0.82867744931E+00  0.90007788708E+02  0.90000050719E+02 0.  0.
        -12    1    1    2    0    0 -0.77224467409E+00  0.33140691312E+00  0.82867744931E+00  0.11802112920E+01  0.00000000000E+00 0.  1.
         11    1    3    3    0    0 -0.21408615202E+02 -0.92700070882E+01 -0.69092678497E+00  0.23339649020E+02  0.51100000000E-03 0. -1.
        -11    1    3    3    0    0  0.38160830451E+01  0.30084233694E+02 -0.16200813411E+02  0.34381535193E+02  0.51100000000E-03 0.  1.
        -12    1    3    3    0    0  0.18364776831E+02 -0.21145633519E+02  0.16063062747E+02  0.32286604495E+02  0.00000000000E+00 0.  1.
</event>
<event>
 7    1  0.1756449E-015  0.9000814E+02  0.7816164E-02  0.1186338E+00
        -11   -1    0    0    0    0  0.00000000000E+00  0.00000000000E+00  0.45593999997E+02  0.45594000000E+02  0.51100000000E-03 0.  1.
         11   -1    0    0    0    0 -0.00000000000E+00 -0.00000000000E+00 -0.45593999997E+02  0.45594000000E+02  0.51100000000E-03 0. -1.
    9900012    2    1    2    0    0  0.10067145693E+01 -0.18223035175E+00 -0.58769034680E+00  0.90008143200E+02  0.90000409889E+02 0.  0.
        -12    1    1    2    0    0 -0.10067145693E+01  0.18223035175E+00  0.58769034680E+00  0.11798568001E+01  0.00000000000E+00 0.  1.
         11    1    3    3    0    0 -0.90737957395E+01 -0.42274182702E+01 -0.23223279519E+02  0.25288842327E+02  0.51100000000E-03 0. -1.
        -11    1    3    3    0    0 -0.13136829432E+02 -0.21632505372E+02  0.47378459180E+01  0.25748568124E+02  0.51100000000E-03 0.  1.
         12    1    3    3    0    0  0.23217339741E+02  0.25677693291E+02  0.17897743254E+02  0.38970732749E+02  0.00000000000E+00 0. -1.
</event>
<event>
 7    1  0.1756449E-015  0.9000788E+02  0.7816164E-02  0.1186339E+00
        -11   -1    0    0    0    0  0.00000000000E+00  0.00000000000E+00  0.45593999997E+02  0.45594000000E+02  0.51100000000E-03 0. -1.
         11   -1    0    0    0    0 -0.00000000000E+00 -0.00000000000E+00 -0.45593999997E+02  0.45594000000E+02  0.51100000000E-03 0.  1.
    9900012    2    1    2    0    0 -0.21935272971E+00  0.11372378049E+01  0.22638664523E+00  0.90007882905E+02  0.90000146159E+02 0.  0.
        -12    1    1    2    0    0  0.21935272971E+00 -0.11372378049E+01 -0.22638664523E+00  0.11801170951E+01  0.00000000000E+00 0.  1.
         11    1    3    3    0    0  0.89435926298E+01 -0.14310895653E+02  0.34621112660E+02  0.38515075303E+02  0.51100000000E-03 0. -1.
        -11    1    3    3    0    0 -0.85319817885E-01 -0.97413619028E+01 -0.29198339803E+01  0.10169898816E+02  0.51100000000E-03 0.  1.
        -12    1    3    3    0    0 -0.90776255416E+01  0.25189495361E+02 -0.31474892034E+02  0.41322908786E+02  0.00000000000E+00 0.  1.
</event>
<event>
 7    1  0.1756449E-015  0.9000770E+02  0.7816164E-02  0.1186339E+00
        -11   -1    0    0    0    0  0.00000000000E+00  0.00000000000E+00  0.45593999997E+02  0.45594000000E+02  0.51100000000E-03 0.  1.
         11   -1    0    0    0    0 -0.00000000000E+00 -0.00000000000E+00 -0.45593999997E+02  0.45594000000E+02  0.51100000000E-03 0. -1.
    9900012    2    1    2    0    0  0.21670552781E+00  0.10336552446E+01 -0.52697177041E+00  0.90007701861E+02  0.89999962725E+02 0.  0.
        -12    1    1    2    0    0 -0.21670552781E+00 -0.10336552446E+01  0.52697177041E+00  0.11802981392E+01  0.00000000000E+00 0.  1.
         11    1    3    3    0    0 -0.10394005475E+02  0.47054486363E+01 -0.63186031797E+01  0.13042290561E+02  0.51100000000E-03 0. -1.
        -11    1    3    3    0    0  0.36613680815E+01  0.32551674939E+02  0.18903527314E+02  0.37820107122E+02  0.51100000000E-03 0.  1.
         12    1    3    3    0    0  0.69493429210E+01 -0.36223468331E+02 -0.13111895905E+02  0.39145304178E+02  0.00000000000E+00 0. -1.
</event>
<event>
 7    1  0.1756449E-015  0.9000776E+02  0.7816164E-02  0.1186339E+00
        -11   -1    0    0    0    0  0.00000000000E+00  0.00000000000E+00  0.45593999997E+02  0.45594000000E+02  0.51100000000E-03 0. -1.
         11   -1    0    0    0    0 -0.00000000000E+00 -0.00000000000E+00 -0.45593999997E+02  0.45594000000E+02  0.51100000000E-03 0.  1.
    9900012    2    1    2    0    0 -0.20982130488E+00  0.10909135019E+01 -0.39856176139E+00  0.90007759039E+02  0.90000020658E+02 0.  0.
        -12    1    1    2    0    0  0.20982130488E+00 -0.10909135019E+01  0.39856176139E+00  0.11802409611E+01  0.00000000000E+00 0.  1.
         11    1    3    3    0    0  0.25590024590E+02 -0.19693954608E+02  0.18729982692E+02  0.37329793176E+02  0.51100000000E-03 0. -1.
        -11    1    3    3    0    0  0.51051935331E+01 -0.60483750692E+01 -0.50827744310E+01  0.94064041039E+01  0.51100000000E-03 0.  1.
        -12    1    3    3    0    0 -0.30905039428E+02  0.26833243179E+02 -0.14045770023E+02  0.43271561759E+02  0.00000000000E+00 0.  1.
</event>
<event>
 7    1  0.1756449E-015  0.9000775E+02  0.7816164E-02  0.1186339E+00
        -11   -1    0    0    0    0  0.00000000000E+00  0.00000000000E+00  0.45593999997E+02  0.45594000000E+02  0.51100000000E-03 0.  1.
         11   -1    0    0    0    0 -0.00000000000E+00 -0.00000000000E+00 -0.45593999997E+02  0.45594000000E+02  0.51100000000E-03 0. -1.
    9900012    2    1    2    0    0 -0.11020193853E-01  0.37723789330E-01 -0.11795914837E+01  0.90007754010E+02  0.90000015563E+02 0.  0.
        -12    1    1    2    0    0  0.11020193853E-01 -0.37723789330E-01  0.11795914837E+01  0.11802459902E+01  0.00000000000E+00 0.  1.
         11    1    3    3    0    0 -0.90206171877E+01  0.19262456073E+02 -0.34119496637E+02  0.40206390032E+02  0.51100000000E-03 0. -1.
        -11    1    3    3    0    0 -0.41964956307E+01  0.58240813927E+01  0.12210096767E+01  0.72815770640E+01  0.51100000000E-03 0.  1.
        -12    1    3    3    0    0  0.13206092625E+02 -0.25048813676E+02  0.31718895476E+02  0.42519786914E+02  0.00000000000E+00 0.  1.
</event>
<event>
 7    1  0.1756449E-015  0.9000773E+02  0.7816164E-02  0.1186339E+00
        -11   -1    0    0    0    0  0.00000000000E+00  0.00000000000E+00  0.45593999997E+02  0.45594000000E+02  0.51100000000E-03 0. -1.
         11   -1    0    0    0    0 -0.00000000000E+00 -0.00000000000E+00 -0.45593999997E+02  0.45594000000E+02  0.51100000000E-03 0.  1.
    9900012    2    1    2    0    0 -0.82771433807E+00 -0.15730525702E+00  0.82654964794E+00  0.90007728722E+02  0.89999989941E+02 0.  0.
        -12    1    1    2    0    0  0.82771433807E+00  0.15730525702E+00 -0.82654964794E+00  0.11802712781E+01  0.00000000000E+00 0.  1.
         11    1    3    3    0    0  0.27781922882E+02  0.17545536560E+02  0.20568429795E+02  0.38765208586E+02  0.51100000000E-03 0. -1.
        -11    1    3    3    0    0  0.58685871383E+01 -0.83149274439E+01  0.47128814885E+00  0.10188250398E+02  0.51100000000E-03 0.  1.
        -12    1    3    3    0    0 -0.34478224358E+02 -0.93879143733E+01 -0.20213168296E+02  0.41054269738E+02  0.00000000000E+00 0.  1.
</event>
<event>
 7    1  0.1756449E-015  0.9000774E+02  0.7816164E-02  0.1186339E+00
        -11   -1    0    0    0    0  0.00000000000E+00  0.00000000000E+00  0.45593999997E+02  0.45594000000E+02  0.51100000000E-03 0. -1.
         11   -1    0    0    0    0 -0.00000000000E+00 -0.00000000000E+00 -0.45593999997E+02  0.45594000000E+02  0.51100000000E-03 0.  1.
    9900012    2    1    2    0    0 -0.85630110716E+00 -0.65299329421E-01  0.80962853636E+00  0.90007739878E+02  0.90000001244E+02 0.  0.
        -12    1    1    2    0    0  0.85630110716E+00  0.65299329421E-01 -0.80962853636E+00  0.11802601219E+01  0.00000000000E+00 0.  1.
         11    1    3    3    0    0  0.79178442102E+00 -0.89205848394E+01  0.87294300860E+01  0.12506266682E+02  0.51100000000E-03 0. -1.
        -11    1    3    3    0    0 -0.11922642365E+02 -0.31422695111E+02 -0.12108284381E+02  0.35723181828E+02  0.51100000000E-03 0.  1.
         12    1    3    3    0    0  0.10274556837E+02  0.40277980621E+02  0.41884828316E+01  0.41778291367E+02  0.00000000000E+00 0. -1.
</event>
<event>
 7    1  0.1756449E-015  0.9000777E+02  0.7816164E-02  0.1186339E+00
        -11   -1    0    0    0    0  0.00000000000E+00  0.00000000000E+00  0.45593999997E+02  0.45594000000E+02  0.51100000000E-03 0. -1.
         11   -1    0    0    0    0 -0.00000000000E+00 -0.00000000000E+00 -0.45593999997E+02  0.45594000000E+02  0.51100000000E-03 0.  1.
    9900012    2    1    2    0    0  0.16048827776E+00 -0.34872042920E-01  0.11687488980E+01  0.90007768441E+02  0.90000030184E+02 0.  0.
        -12    1    1    2    0    0 -0.16048827776E+00  0.34872042920E-01 -0.11687488980E+01  0.11802315591E+01  0.00000000000E+00 0.  1.
         11    1    3    3    0    0  0.76086179581E+01 -0.41332241296E+02 -0.10864958505E+02  0.43408438826E+02  0.51100000000E-03 0. -1.
        -11    1    3    3    0    0 -0.14979101853E+01  0.15796403809E+00  0.39844980325E+01  0.42596845414E+01  0.51100000000E-03 0.  1.
        -12    1    3    3    0    0 -0.59502194951E+01  0.41139405215E+02  0.80492093700E+01  0.42339645073E+02  0.00000000000E+00 0.  1.
</event>
<event>
 7    1  0.1756449E-015  0.9000779E+02  0.7816164E-02  0.1186339E+00
        -11   -1    0    0    0    0  0.00000000000E+00  0.00000000000E+00  0.45593999997E+02  0.45594000000E+02  0.51100000000E-03 0.  1.
         11   -1    0    0    0    0 -0.00000000000E+00 -0.00000000000E+00 -0.45593999997E+02  0.45594000000E+02  0.51100000000E-03 0. -1.
    9900012    2    1    2    0    0 -0.19396200451E+00  0.11488717556E+01 -0.18804224434E+00  0.90007793469E+02  0.90000055543E+02 0.  0.
        -12    1    1    2    0    0  0.19396200451E+00 -0.11488717556E+01  0.18804224434E+00  0.11802065309E+01  0.00000000000E+00 0.  1.
         11    1    3    3    0    0  0.36254346275E+02  0.10265166511E+02  0.79789879170E+00  0.37688034044E+02  0.51100000000E-03 0. -1.
        -11    1    3    3    0    0  0.97584829721E+00  0.61307052721E+01  0.87729794722E+01  0.10747232021E+02  0.51100000000E-03 0.  1.
        -12    1    3    3    0    0 -0.37424156577E+02 -0.15247000028E+02 -0.97589205083E+01  0.41572527405E+02  0.00000000000E+00 0.  1.
</event>
<event>
 7    1  0.1756449E-015  0.9000770E+02  0.7816164E-02  0.1186339E+00
        -11   -1    0    0    0    0  0.00000000000E+00  0.00000000000E+00  0.45593999997E+02  0.45594000000E+02  0.51100000000E-03 0.  1.
         11   -1    0    0    0    0 -0.00000000000E+00 -0.00000000000E+00 -0.45593999997E+02  0.45594000000E+02  0.51100000000E-03 0. -1.
    9900012    2    1    2    0    0  0.12444065191E+00 -0.77915620521E-01 -0.11711350681E+01  0.90007697637E+02  0.89999958446E+02 0.  0.
        -12    1    1    2    0    0 -0.12444065191E+00  0.77915620521E-01  0.11711350681E+01  0.11803023628E+01  0.00000000000E+00 0.  1.
         11    1    3    3    0    0  0.32479626998E+02  0.14019945423E+02  0.22279228475E+02  0.41807284787E+02  0.51100000000E-03 0. -1.
        -11    1    3    3    0    0 -0.76131003944E+01  0.25044921552E+01  0.28008294268E+01  0.84897835255E+01  0.51100000000E-03 0.  1.
        -12    1    3    3    0    0 -0.24742085952E+02 -0.16602353199E+02 -0.26251192970E+02  0.39710629324E+02  0.00000000000E+00 0.  1.
</event>
<event>
 7    1  0.1756449E-015  0.9000705E+02  0.7816164E-02  0.1186340E+00
        -11   -1    0    0    0    0  0.00000000000E+00  0.00000000000E+00  0.45593999997E+02  0.45594000000E+02  0.51100000000E-03 0.  1.
         11   -1    0    0    0    0 -0.00000000000E+00 -0.00000000000E+00 -0.45593999997E+02  0.45594000000E+02  0.51100000000E-03 0. -1.
    9900012    2    1    2    0    0 -0.33442504183E-01 -0.14901321123E-01 -0.11803777752E+01  0.90007054556E+02  0.89999306873E+02 0.  0.
        -12    1    1    2    0    0  0.33442504183E-01  0.14901321123E-01  0.11803777752E+01  0.11809454444E+01  0.00000000000E+00 0.  1.
         11    1    3    3    0    0  0.20703704255E+02  0.24037021684E+02 -0.18986860167E+02  0.36971916918E+02  0.51100000000E-03 0. -1.
        -11    1    3    3    0    0  0.85440212566E+01 -0.36197297207E+01 -0.51249217554E+01  0.10600356869E+02  0.51100000000E-03 0.  1.
        -12    1    3    3    0    0 -0.29281168015E+02 -0.20432193285E+02  0.22931404147E+02  0.42434780769E+02  0.00000000000E+00 0.  1.
</event>
<event>
 7    1  0.1756449E-015  0.9000759E+02  0.7816164E-02  0.1186339E+00
        -11   -1    0    0    0    0  0.00000000000E+00  0.00000000000E+00  0.45593999997E+02  0.45594000000E+02  0.51100000000E-03 0. -1.
         11   -1    0    0    0    0 -0.00000000000E+00 -0.00000000000E+00 -0.45593999997E+02  0.45594000000E+02  0.51100000000E-03 0.  1.
    9900012    2    1    2    0    0  0.27161232818E+00  0.10280870220E+01  0.51248018453E+00  0.90007588156E+02  0.89999847520E+02 0.  0.
        -12    1    1    2    0    0 -0.27161232818E+00 -0.10280870220E+01 -0.51248018453E+00  0.11804118439E+01  0.00000000000E+00 0.  1.
         11    1    3    3    0    0 -0.92626305751E+01  0.31821100189E+01  0.88421606892E+00  0.98338185697E+01  0.51100000000E-03 0. -1.
        -11    1    3    3    0    0 -0.80630443919E+01  0.28859858663E+02 -0.23145691543E+02  0.37863269328E+02  0.51100000000E-03 0.  1.
         12    1    3    3    0    0  0.17597287295E+02 -0.31013881660E+02  0.22773955659E+02  0.42310500259E+02  0.00000000000E+00 0. -1.
</event>
<event>
 7    1  0.1756449E-015  0.9000771E+02  0.7816164E-02  0.1186339E+00
        -11   -1    0    0    0    0  0.00000000000E+00  0.00000000000E+00  0.45593999997E+02  0.45594000000E+02  0.51100000000E-03 0. -1.
         11   -1    0    0    0    0 -0.00000000000E+00 -0.00000000000E+00 -0.45593999997E+02  0.45594000000E+02  0.51100000000E-03 0.  1.
    9900012    2    1    2    0    0  0.84338779434E+00 -0.61348053003E+00 -0.55265288834E+00  0.90007709126E+02  0.89999970086E+02 0.  0.
        -12    1    1    2    0    0 -0.84338779434E+00  0.61348053003E+00  0.55265288834E+00  0.11802908740E+01  0.00000000000E+00 0.  1.
         11    1    3    3    0    0 -0.28768033466E+02 -0.98090472627E+01  0.15467749989E+02  0.34103789345E+02  0.51100000000E-03 0. -1.
        -11    1    3    3    0    0 -0.10265842696E+02  0.53411105478E+01  0.23847699776E+01  0.11815333946E+02  0.51100000000E-03 0.  1.
        -12    1    3    3    0    0  0.39877263956E+02  0.38544561849E+01 -0.18405172855E+02  0.44088585835E+02  0.00000000000E+00 0.  1.
</event>
<event>
 7    1  0.1756449E-015  0.9000775E+02  0.7816164E-02  0.1186339E+00
        -11   -1    0    0    0    0  0.00000000000E+00  0.00000000000E+00  0.45593999997E+02  0.45594000000E+02  0.51100000000E-03 0.  1.
         11   -1    0    0    0    0 -0.00000000000E+00 -0.00000000000E+00 -0.45593999997E+02  0.45594000000E+02  0.51100000000E-03 0. -1.
    9900012    2    1    2    0    0  0.15894992532E+00 -0.11681264582E+01  0.56533000798E-01  0.90007754059E+02  0.90000015613E+02 0.  0.
        -12    1    1    2    0    0 -0.15894992532E+00  0.11681264582E+01 -0.56533000798E-01  0.11802459410E+01  0.00000000000E+00 0.  1.
         11    1    3    3    0    0  0.13536594741E+02  0.97662653882E+01  0.33030308566E+01  0.17015561993E+02  0.51100000000E-03 0. -1.
        -11    1    3    3    0    0  0.12494362908E+02 -0.35111087800E+02  0.13052470267E+01  0.37290766431E+02  0.51100000000E-03 0.  1.
         12    1    3    3    0    0 -0.25872007724E+02  0.24176695953E+02 -0.45517448825E+01  0.35701425635E+02  0.00000000000E+00 0. -1.
</event>
<event>
 7    1  0.1756449E-015  0.9000762E+02  0.7816164E-02  0.1186339E+00
        -11   -1    0    0    0    0  0.00000000000E+00  0.00000000000E+00  0.45593999997E+02  0.45594000000E+02  0.51100000000E-03 0. -1.
         11   -1    0    0    0    0 -0.00000000000E+00 -0.00000000000E+00 -0.45593999997E+02  0.45594000000E+02  0.51100000000E-03 0.  1.
    9900012    2    1    2    0    0 -0.19161579467E+00 -0.73479785583E+00  0.90368343668E+00  0.90007623681E+02  0.89999883513E+02 0.  0.
        -12    1    1    2    0    0  0.19161579467E+00  0.73479785583E+00 -0.90368343668E+00  0.11803763194E+01  0.00000000000E+00 0.  1.
         11    1    3    3    0    0  0.52156965336E+01 -0.19179358034E+00 -0.84306895627E+01  0.99154829370E+01  0.51100000000E-03 0. -1.
        -11    1    3    3    0    0  0.92829525540E+01  0.37569871525E+02  0.47001580328E+01  0.38984098557E+02  0.51100000000E-03 0.  1.
         12    1    3    3    0    0 -0.14690264882E+02 -0.38112875800E+02  0.46342149666E+01  0.41108042187E+02  0.00000000000E+00 0. -1.
</event>
<event>
 7    1  0.1756449E-015  0.9000799E+02  0.7816164E-02  0.1186339E+00
        -11   -1    0    0    0    0  0.00000000000E+00  0.00000000000E+00  0.45593999997E+02  0.45594000000E+02  0.51100000000E-03 0.  1.
         11   -1    0    0    0    0 -0.00000000000E+00 -0.00000000000E+00 -0.45593999997E+02  0.45594000000E+02  0.51100000000E-03 0. -1.
    9900012    2    1    2    0    0  0.97768121427E-01 -0.98061352027E+00 -0.64904351219E+00  0.90007991965E+02  0.90000256659E+02 0.  0.
        -12    1    1    2    0    0 -0.97768121427E-01  0.98061352027E+00  0.64904351219E+00  0.11800080349E+01  0.00000000000E+00 0.  1.
         11    1    3    3    0    0  0.15692050933E+01 -0.55001634880E+01 -0.11088344656E+02  0.12476601721E+02  0.51100000000E-03 0. -1.
        -11    1    3    3    0    0  0.21650964311E+02  0.32573513676E+02  0.12655497295E+02  0.41109118950E+02  0.51100000000E-03 0.  1.
         12    1    3    3    0    0 -0.23122401283E+02 -0.28053963708E+02 -0.22161961512E+01  0.36422271294E+02  0.00000000000E+00 0. -1.
</event>
<event>
 7    1  0.1756449E-015  0.9000765E+02  0.7816164E-02  0.1186339E+00
        -11   -1    0    0    0    0  0.00000000000E+00  0.00000000000E+00  0.45593999997E+02  0.45594000000E+02  0.51100000000E-03 0.  1.
         11   -1    0    0    0    0 -0.00000000000E+00 -0.00000000000E+00 -0.45593999997E+02  0.45594000000E+02  0.51100000000E-03 0. -1.
    9900012    2    1    2    0    0 -0.54188756490E+00 -0.18187830748E+00 -0.10327161993E+01  0.90007650645E+02  0.89999910833E+02 0.  0.
        -12    1    1    2    0    0  0.54188756490E+00  0.18187830748E+00  0.10327161993E+01  0.11803493551E+01  0.00000000000E+00 0.  1.
         11    1    3    3    0    0  0.29979751070E+02 -0.10244483615E+02 -0.60883677122E+01  0.32261480753E+02  0.51100000000E-03 0. -1.
        -11    1    3    3    0    0  0.12991382712E+02  0.39742266081E+01  0.13913231518E+01  0.13656730292E+02  0.51100000000E-03 0.  1.
        -12    1    3    3    0    0 -0.43513021346E+02  0.60883786993E+01  0.36643283611E+01  0.44089439600E+02  0.00000000000E+00 0.  1.
</event>
<event>
 7    1  0.1756449E-015  0.9000769E+02  0.7816164E-02  0.1186339E+00
        -11   -1    0    0    0    0  0.00000000000E+00  0.00000000000E+00  0.45593999997E+02  0.45594000000E+02  0.51100000000E-03 0.  1.
         11   -1    0    0    0    0 -0.00000000000E+00 -0.00000000000E+00 -0.45593999997E+02  0.45594000000E+02  0.51100000000E-03 0. -1.
    9900012    2    1    2    0    0  0.15464085453E+00  0.73397424551E+00 -0.91131933209E+00  0.90007688638E+02  0.89999949328E+02 0.  0.
        -12    1    1    2    0    0 -0.15464085453E+00 -0.73397424551E+00  0.91131933209E+00  0.11803113623E+01  0.00000000000E+00 0.  1.
         11    1    3    3    0    0  0.76584988621E+01  0.84540835123E+01 -0.35992362135E+02  0.37756777738E+02  0.51100000000E-03 0. -1.
        -11    1    3    3    0    0  0.55019656319E+00 -0.73897591729E+01 -0.65235738549E+01  0.98726021389E+01  0.51100000000E-03 0.  1.
        -12    1    3    3    0    0 -0.80540545707E+01 -0.33035009393E+00  0.41604616658E+02  0.42378308761E+02  0.00000000000E+00 0.  1.
</event>
<event>
 7    1  0.1756449E-015  0.9000779E+02  0.7816164E-02  0.1186339E+00
        -11   -1    0    0    0    0  0.00000000000E+00  0.00000000000E+00  0.45593999997E+02  0.45594000000E+02  0.51100000000E-03 0. -1.
         11   -1    0    0    0    0 -0.00000000000E+00 -0.00000000000E+00 -0.45593999997E+02  0.45594000000E+02  0.51100000000E-03 0.  1.
    9900012    2    1    2    0    0  0.21663197148E+00  0.11054237153E+00  0.11548776671E+01  0.90007791776E+02  0.90000053827E+02 0.  0.
        -12    1    1    2    0    0 -0.21663197148E+00 -0.11054237153E+00 -0.11548776671E+01  0.11802082244E+01  0.00000000000E+00 0.  1.
         11    1    3    3    0    0  0.25344606779E+01  0.70602950854E+01  0.11999926788E+02  0.14151660708E+02  0.51100000000E-03 0. -1.
        -11    1    3    3    0    0  0.33046906515E+01  0.28375982170E+02  0.14480372026E+02  0.32028089526E+02  0.51100000000E-03 0.  1.
         12    1    3    3    0    0 -0.56225193580E+01 -0.35325734884E+02 -0.25325421147E+02  0.43828041541E+02  0.00000000000E+00 0. -1.
</event>
<event>
 7    1  0.1756449E-015  0.9000757E+02  0.7816164E-02  0.1186339E+00
        -11   -1    0    0    0    0  0.00000000000E+00  0.00000000000E+00  0.45593999997E+02  0.45594000000E+02  0.51100000000E-03 0.  1.
         11   -1    0    0    0    0 -0.00000000000E+00 -0.00000000000E+00 -0.45593999997E+02  0.45594000000E+02  0.51100000000E-03 0. -1.
    9900012    2    1    2    0    0  0.21390896932E+00 -0.65762909768E+00 -0.95665200303E+00  0.90007569514E+02  0.89999828631E+02 0.  0.
        -12    1    1    2    0    0 -0.21390896932E+00  0.65762909768E+00  0.95665200303E+00  0.11804304860E+01  0.00000000000E+00 0.  1.
         11    1    3    3    0    0 -0.72224539093E+01  0.55640145491E+01  0.89635107492E+00  0.91610885753E+01  0.51100000000E-03 0. -1.
        -11    1    3    3    0    0  0.98627617267E+01 -0.82223216779E+01  0.38390134602E+02  0.40480650658E+02  0.51100000000E-03 0.  1.
         12    1    3    3    0    0 -0.24263988481E+01  0.20006780311E+01 -0.40243137680E+02  0.40365830281E+02  0.00000000000E+00 0. -1.
</event>
<event>
 7    1  0.1756449E-015  0.9000767E+02  0.7816164E-02  0.1186339E+00
        -11   -1    0    0    0    0  0.00000000000E+00  0.00000000000E+00  0.45593999997E+02  0.45594000000E+02  0.51100000000E-03 0.  1.
         11   -1    0    0    0    0 -0.00000000000E+00 -0.00000000000E+00 -0.45593999997E+02  0.45594000000E+02  0.51100000000E-03 0. -1.
    9900012    2    1    2    0    0 -0.74679620076E+00  0.66737003276E+00 -0.62456927857E+00  0.90007672033E+02  0.89999932504E+02 0.  0.
        -12    1    1    2    0    0  0.74679620076E+00 -0.66737003276E+00  0.62456927857E+00  0.11803279671E+01  0.00000000000E+00 0.  1.
         11    1    3    3    0    0  0.21392868954E+01 -0.18881889176E+02 -0.29560049587E+02  0.35141127175E+02  0.51100000000E-03 0. -1.
        -11    1    3    3    0    0 -0.62585743752E+01 -0.95533461589E+01 -0.27136165163E+01  0.11738819826E+02  0.51100000000E-03 0.  1.
        -12    1    3    3    0    0  0.33724912790E+01  0.29102605368E+02  0.31649096825E+02  0.43127725032E+02  0.00000000000E+00 0.  1.
</event>
<event>
 7    1  0.1756449E-015  0.9000785E+02  0.7816164E-02  0.1186339E+00
        -11   -1    0    0    0    0  0.00000000000E+00  0.00000000000E+00  0.45593999997E+02  0.45594000000E+02  0.51100000000E-03 0. -1.
         11   -1    0    0    0    0 -0.00000000000E+00 -0.00000000000E+00 -0.45593999997E+02  0.45594000000E+02  0.51100000000E-03 0.  1.
    9900012    2    1    2    0    0 -0.66154714492E+00  0.88343862504E+00  0.41791875498E+00  0.90007845555E+02  0.90000108316E+02 0.  0.
        -12    1    1    2    0    0  0.66154714492E+00 -0.88343862504E+00 -0.41791875498E+00  0.11801544454E+01  0.00000000000E+00 0.  1.
         11    1    3    3    0    0  0.26914235453E+01  0.10316413373E+02 -0.24049429306E+01  0.10929588114E+02  0.51100000000E-03 0. -1.
        -11    1    3    3    0    0 -0.17612597607E+01  0.68263090914E+01 -0.36144085053E+02  0.36825200832E+02  0.51100000000E-03 0.  1.
         12    1    3    3    0    0 -0.15917109295E+01 -0.16259283840E+02  0.38966946738E+02  0.42253056608E+02  0.00000000000E+00 0. -1.
</event>
<event>
 7    1  0.1756449E-015  0.9000768E+02  0.7816164E-02  0.1186339E+00
        -11   -1    0    0    0    0  0.00000000000E+00  0.00000000000E+00  0.45593999997E+02  0.45594000000E+02  0.51100000000E-03 0. -1.
         11   -1    0    0    0    0 -0.00000000000E+00 -0.00000000000E+00 -0.45593999997E+02  0.45594000000E+02  0.51100000000E-03 0.  1.
    9900012    2    1    2    0    0  0.89354993533E+00 -0.71613651857E+00 -0.28612987598E+00  0.90007680846E+02  0.89999941433E+02 0.  0.
        -12    1    1    2    0    0 -0.89354993533E+00  0.71613651857E+00  0.28612987598E+00  0.11803191543E+01  0.00000000000E+00 0.  1.
         11    1    3    3    0    0  0.30253838600E+02 -0.55743026336E+01  0.27089438315E+02  0.40990307005E+02  0.51100000000E-03 0. -1.
        -11    1    3    3    0    0 -0.60933614606E+01  0.12458989994E+02 -0.24516744386E+01  0.14084253383E+02  0.51100000000E-03 0.  1.
        -12    1    3    3    0    0 -0.23266927204E+02 -0.76008238787E+01 -0.24923893752E+02  0.34933120458E+02  0.00000000000E+00 0.  1.
</event>
<event>
 7    1  0.1756449E-015  0.9000751E+02  0.7816164E-02  0.1186340E+00
        -11   -1    0    0    0    0  0.00000000000E+00  0.00000000000E+00  0.45593999997E+02  0.45594000000E+02  0.51100000000E-03 0.  1.
         11   -1    0    0    0    0 -0.00000000000E+00 -0.00000000000E+00 -0.45593999997E+02  0.45594000000E+02  0.51100000000E-03 0. -1.
    9900012    2    1    2    0    0 -0.20991580017E+00  0.86777386182E+00 -0.77230634103E+00  0.90007511456E+02  0.89999769807E+02 0.  0.
        -12    1    1    2    0    0  0.20991580017E+00 -0.86777386182E+00  0.77230634103E+00  0.11804885441E+01  0.00000000000E+00 0.  1.
         11    1    3    3    0    0  0.10233617143E+02 -0.27510602700E+02 -0.33314891478E+02  0.44400925386E+02  0.51100000000E-03 0. -1.
        -11    1    3    3    0    0  0.96210121765E+00  0.31308751703E+01  0.78086349642E+01  0.84677504894E+01  0.51100000000E-03 0.  1.
        -12    1    3    3    0    0 -0.11405634160E+02  0.25247501392E+02  0.24733950172E+02  0.37138835580E+02  0.00000000000E+00 0.  1.
</event>
<event>
 7    1  0.1756449E-015  0.9000780E+02  0.7816164E-02  0.1186339E+00
        -11   -1    0    0    0    0  0.00000000000E+00  0.00000000000E+00  0.45593999997E+02  0.45594000000E+02  0.51100000000E-03 0.  1.
         11   -1    0    0    0    0 -0.00000000000E+00 -0.00000000000E+00 -0.45593999997E+02  0.45594000000E+02  0.51100000000E-03 0. -1.
    9900012    2    1    2    0    0 -0.76167526240E+00 -0.88438471877E+00 -0.17490603295E+00  0.90007797621E+02  0.90000059749E+02 0.  0.
        -12    1    1    2    0    0  0.76167526240E+00  0.88438471877E+00  0.17490603295E+00  0.11802023795E+01  0.00000000000E+00 0.  1.
         11    1    3    3    0    0  0.39739156162E+01  0.55818796089E+01 -0.64500550922E+01  0.94102389048E+01  0.51100000000E-03 0. -1.
        -11    1    3    3    0    0  0.13821848531E+02 -0.39437477219E+02 -0.21172561651E+01  0.41843050560E+02  0.51100000000E-03 0.  1.
         12    1    3    3    0    0 -0.18557439410E+02  0.32971212891E+02  0.83924052243E+01  0.38754508156E+02  0.00000000000E+00 0. -1.
</event>
<event>
 7    1  0.1756449E-015  0.9000774E+02  0.7816164E-02  0.1186339E+00
        -11   -1    0    0    0    0  0.00000000000E+00  0.00000000000E+00  0.45593999997E+02  0.45594000000E+02  0.51100000000E-03 0. -1.
         11   -1    0    0    0    0 -0.00000000000E+00 -0.00000000000E+00 -0.45593999997E+02  0.45594000000E+02  0.51100000000E-03 0.  1.
    9900012    2    1    2    0    0  0.10245208855E+01 -0.57845045225E+00 -0.93644354269E-01  0.90007738488E+02  0.89999999836E+02 0.  0.
        -12    1    1    2    0    0 -0.10245208855E+01  0.57845045225E+00  0.93644354269E-01  0.11802615116E+01  0.00000000000E+00 0.  1.
         11    1    3    3    0    0 -0.20508434252E+02  0.34248376873E+02  0.70016981996E+01  0.40528643844E+02  0.51100000000E-03 0. -1.
        -11    1    3    3    0    0  0.53770896452E+01  0.30187453935E+00 -0.93040672930E+01  0.10750343704E+02  0.51100000000E-03 0.  1.
        -12    1    3    3    0    0  0.16155865492E+02 -0.35128701864E+02  0.22087247391E+01  0.38728750941E+02  0.00000000000E+00 0.  1.
</event>
<event>
 7    1  0.1756449E-015  0.9000771E+02  0.7816164E-02  0.1186339E+00
        -11   -1    0    0    0    0  0.00000000000E+00  0.00000000000E+00  0.45593999997E+02  0.45594000000E+02  0.51100000000E-03 0. -1.
         11   -1    0    0    0    0 -0.00000000000E+00 -0.00000000000E+00 -0.45593999997E+02  0.45594000000E+02  0.51100000000E-03 0.  1.
    9900012    2    1    2    0    0 -0.75477625455E+00  0.90616757307E+00 -0.47593002285E-01  0.90007706834E+02  0.89999967764E+02 0.  0.
        -12    1    1    2    0    0  0.75477625455E+00 -0.90616757307E+00  0.47593002285E-01  0.11802931665E+01  0.00000000000E+00 0.  1.
         11    1    3    3    0    0 -0.91818422279E+01  0.14822493687E+01  0.11505342086E+01  0.93716070722E+01  0.51100000000E-03 0. -1.
        -11    1    3    3    0    0 -0.13849062072E+02 -0.15142165207E+02 -0.33189401258E+02  0.39020738634E+02  0.51100000000E-03 0.  1.
         12    1    3    3    0    0  0.22276128045E+02  0.14566083411E+02  0.31991274047E+02  0.41615361127E+02  0.00000000000E+00 0. -1.
</event>
<event>
 7    1  0.1756449E-015  0.9000770E+02  0.7816164E-02  0.1186339E+00
        -11   -1    0    0    0    0  0.00000000000E+00  0.00000000000E+00  0.45593999997E+02  0.45594000000E+02  0.51100000000E-03 0.  1.
         11   -1    0    0    0    0 -0.00000000000E+00 -0.00000000000E+00 -0.45593999997E+02  0.45594000000E+02  0.51100000000E-03 0. -1.
    9900012    2    1    2    0    0 -0.21377820725E+00 -0.10202058839E+01 -0.55370863179E+00  0.90007697320E+02  0.89999958125E+02 0.  0.
        -12    1    1    2    0    0  0.21377820725E+00  0.10202058839E+01  0.55370863179E+00  0.11803026800E+01  0.00000000000E+00 0.  1.
         11    1    3    3    0    0  0.72836534896E+01 -0.29009358857E+01  0.25896750234E+01  0.82567217561E+01  0.51100000000E-03 0. -1.
        -11    1    3    3    0    0  0.39061983883E+01 -0.58793498810E+01  0.37848238198E+02  0.38500834742E+02  0.51100000000E-03 0.  1.
         12    1    3    3    0    0 -0.11403630085E+02  0.77600798829E+01 -0.40991621854E+02  0.43250140822E+02  0.00000000000E+00 0. -1.
</event>
<event>
 7    1  0.1756449E-015  0.9000783E+02  0.7816164E-02  0.1186339E+00
        -11   -1    0    0    0    0  0.00000000000E+00  0.00000000000E+00  0.45593999997E+02  0.45594000000E+02  0.51100000000E-03 0. -1.
         11   -1    0    0    0    0 -0.00000000000E+00 -0.00000000000E+00 -0.45593999997E+02  0.45594000000E+02  0.51100000000E-03 0.  1.
    9900012    2    1    2    0    0  0.14023074500E+00 -0.10352075524E+01  0.54907573358E+00  0.90007829038E+02  0.90000091581E+02 0.  0.
        -12    1    1    2    0    0 -0.14023074500E+00  0.10352075524E+01 -0.54907573358E+00  0.11801709620E+01  0.00000000000E+00 0.  1.
         11    1    3    3    0    0 -0.39206260775E+01  0.67731063440E+01  0.41355286752E+01  0.88514900481E+01  0.51100000000E-03 0. -1.
        -11    1    3    3    0    0  0.69285373678E+01 -0.41333279078E+02  0.12676060611E+02  0.43785010018E+02  0.51100000000E-03 0.  1.
         12    1    3    3    0    0 -0.28676805453E+01  0.33524965181E+02 -0.16262513552E+02  0.37371328972E+02  0.00000000000E+00 0. -1.
</event>
<event>
 7    1  0.1756449E-015  0.9000769E+02  0.7816164E-02  0.1186339E+00
        -11   -1    0    0    0    0  0.00000000000E+00  0.00000000000E+00  0.45593999997E+02  0.45594000000E+02  0.51100000000E-03 0.  1.
         11   -1    0    0    0    0 -0.00000000000E+00 -0.00000000000E+00 -0.45593999997E+02  0.45594000000E+02  0.51100000000E-03 0. -1.
    9900012    2    1    2    0    0 -0.68862126140E+00 -0.93741152605E+00 -0.20046702616E+00  0.90007692142E+02  0.89999952878E+02 0.  0.
        -12    1    1    2    0    0  0.68862126140E+00  0.93741152605E+00  0.20046702616E+00  0.11803078579E+01  0.00000000000E+00 0.  1.
         11    1    3    3    0    0  0.96576840339E+01  0.74861266894E+01  0.91827349499E+01  0.15285142300E+02  0.51100000000E-03 0. -1.
        -11    1    3    3    0    0 -0.16334644002E+02 -0.53202001366E+01  0.30105400926E+02  0.34662087204E+02  0.51100000000E-03 0.  1.
         12    1    3    3    0    0  0.59883387066E+01 -0.31033380788E+01 -0.39488602902E+02  0.40060462639E+02  0.00000000000E+00 0. -1.
</event>
<event>
 7    1  0.1756449E-015  0.9000772E+02  0.7816164E-02  0.1186339E+00
        -11   -1    0    0    0    0  0.00000000000E+00  0.00000000000E+00  0.45593999997E+02  0.45594000000E+02  0.51100000000E-03 0.  1.
         11   -1    0    0    0    0 -0.00000000000E+00 -0.00000000000E+00 -0.45593999997E+02  0.45594000000E+02  0.51100000000E-03 0. -1.
    9900012    2    1    2    0    0  0.31250552638E+00  0.97473232813E+00 -0.58762283599E+00  0.90007718926E+02  0.89999980016E+02 0.  0.
        -12    1    1    2    0    0 -0.31250552638E+00 -0.97473232813E+00  0.58762283599E+00  0.11802810737E+01  0.00000000000E+00 0.  1.
         11    1    3    3    0    0  0.32860191322E+02 -0.13647968055E+02 -0.17488327218E+02  0.39647204125E+02  0.51100000000E-03 0. -1.
        -11    1    3    3    0    0 -0.70038113986E+01 -0.66599692444E+01 -0.46639252862E+01  0.10731298327E+02  0.51100000000E-03 0.  1.
        -12    1    3    3    0    0 -0.25543874397E+02  0.21282669628E+02  0.21564629668E+02  0.39629216475E+02  0.00000000000E+00 0.  1.
</event>
<event>
 7    1  0.1756449E-015  0.9000770E+02  0.7816164E-02  0.1186339E+00
        -11   -1    0    0    0    0  0.00000000000E+00  0.00000000000E+00  0.45593999997E+02  0.45594000000E+02  0.51100000000E-03 0.  1.
         11   -1    0    0    0    0 -0.00000000000E+00 -0.00000000000E+00 -0.45593999997E+02  0.45594000000E+02  0.51100000000E-03 0. -1.
    9900012    2    1    2    0    0  0.50433032183E+00 -0.87914822168E+00  0.60486185376E+00  0.90007699813E+02  0.89999960651E+02 0.  0.
        -12    1    1    2    0    0 -0.50433032183E+00  0.87914822168E+00 -0.60486185376E+00  0.11803001870E+01  0.00000000000E+00 0.  1.
         11    1    3    3    0    0  0.38769274941E+02  0.13065028761E+02  0.18278536863E+01  0.40952322344E+02  0.51100000000E-03 0. -1.
        -11    1    3    3    0    0 -0.25904290979E+01  0.53198754631E+01 -0.57614287526E+01  0.82586596604E+01  0.51100000000E-03 0.  1.
        -12    1    3    3    0    0 -0.35674515521E+02 -0.19264052446E+02  0.45384369200E+01  0.40796717809E+02  0.00000000000E+00 0.  1.
</event>
<event>
 7    1  0.1756449E-015  0.9000781E+02  0.7816164E-02  0.1186339E+00
        -11   -1    0    0    0    0  0.00000000000E+00  0.00000000000E+00  0.45593999997E+02  0.45594000000E+02  0.51100000000E-03 0.  1.
         11   -1    0    0    0    0 -0.00000000000E+00 -0.00000000000E+00 -0.45593999997E+02  0.45594000000E+02  0.51100000000E-03 0. -1.
    9900012    2    1    2    0    0  0.33620477314E+00  0.87104910955E+00 -0.72186986793E+00  0.90007806665E+02  0.90000068913E+02 0.  0.
        -12    1    1    2    0    0 -0.33620477314E+00 -0.87104910955E+00  0.72186986793E+00  0.11801933346E+01  0.00000000000E+00 0.  1.
         11    1    3    3    0    0  0.12249219546E+02  0.29304315279E+02 -0.21994652144E+02  0.38633547555E+02  0.51100000000E-03 0. -1.
        -11    1    3    3    0    0 -0.45189541780E+01 -0.95050054930E+01 -0.97114771354E+01  0.14320574873E+02  0.51100000000E-03 0.  1.
        -12    1    3    3    0    0 -0.73940605949E+01 -0.18928260677E+02  0.30984259411E+02  0.37053684238E+02  0.00000000000E+00 0.  1.
</event>
<event>
 7    1  0.1756449E-015  0.9000789E+02  0.7816164E-02  0.1186339E+00
        -11   -1    0    0    0    0  0.00000000000E+00  0.00000000000E+00  0.45593999997E+02  0.45594000000E+02  0.51100000000E-03 0.  1.
         11   -1    0    0    0    0 -0.00000000000E+00 -0.00000000000E+00 -0.45593999997E+02  0.45594000000E+02  0.51100000000E-03 0. -1.
    9900012    2    1    2    0    0 -0.11665533725E+01  0.10796947406E+00  0.14197616834E+00  0.90007889238E+02  0.90000152576E+02 0.  0.
        -12    1    1    2    0    0  0.11665533725E+01 -0.10796947406E+00 -0.14197616834E+00  0.11801107620E+01  0.00000000000E+00 0.  1.
         11    1    3    3    0    0 -0.62986515102E-01 -0.13619975020E+02 -0.35499387991E+02  0.38022549032E+02  0.51100000000E-03 0. -1.
        -11    1    3    3    0    0 -0.73042913499E+01 -0.95386676228E+01  0.49947743640E+01  0.13011019305E+02  0.51100000000E-03 0.  1.
        -12    1    3    3    0    0  0.62007244926E+01  0.23266612117E+02  0.30646589796E+02  0.38974320902E+02  0.00000000000E+00 0.  1.
</event>
<event>
 7    1  0.1756449E-015  0.9000782E+02  0.7816164E-02  0.1186339E+00
        -11   -1    0    0    0    0  0.00000000000E+00  0.00000000000E+00  0.45593999997E+02  0.45594000000E+02  0.51100000000E-03 0.  1.
         11   -1    0    0    0    0 -0.00000000000E+00 -0.00000000000E+00 -0.45593999997E+02  0.45594000000E+02  0.51100000000E-03 0. -1.
    9900012    2    1    2    0    0  0.51503308392E+00  0.45828091998E+00 -0.95788007532E+00  0.90007824285E+02  0.90000086766E+02 0.  0.
        -12    1    1    2    0    0 -0.51503308392E+00 -0.45828091998E+00  0.95788007532E+00  0.11801757148E+01  0.00000000000E+00 0.  1.
         11    1    3    3    0    0  0.68755652972E+01  0.26767853994E+02 -0.18499760691E+02  0.33257067692E+02  0.51100000000E-03 0. -1.
        -11    1    3    3    0    0 -0.41420141881E+01  0.46601808906E+01 -0.12234267915E+02  0.13731383002E+02  0.51100000000E-03 0.  1.
        -12    1    3    3    0    0 -0.22185180252E+01 -0.30969753964E+02  0.29776148531E+02  0.43019373591E+02  0.00000000000E+00 0.  1.
</event>
<event>
 7    1  0.1756449E-015  0.9000778E+02  0.7816164E-02  0.1186339E+00
        -11   -1    0    0    0    0  0.00000000000E+00  0.00000000000E+00  0.45593999997E+02  0.45594000000E+02  0.51100000000E-03 0.  1.
         11   -1    0    0    0    0 -0.00000000000E+00 -0.00000000000E+00 -0.45593999997E+02  0.45594000000E+02  0.51100000000E-03 0. -1.
    9900012    2    1    2    0    0  0.17567523658E+00 -0.90464334775E+00  0.73735283165E+00  0.90007775202E+02  0.90000037035E+02 0.  0.
        -12    1    1    2    0    0 -0.17567523658E+00  0.90464334775E+00 -0.73735283165E+00  0.11802247980E+01  0.00000000000E+00 0.  1.
         11    1    3    3    0    0 -0.38241819689E+02  0.59879711380E+01  0.84782726182E+01  0.39625417075E+02  0.51100000000E-03 0. -1.
        -11    1    3    3    0    0  0.13350372895E+01 -0.70977851592E+01  0.73882579057E+01  0.10331855297E+02  0.51100000000E-03 0.  1.
        -12    1    3    3    0    0  0.37082457636E+02  0.20517067344E+00 -0.15129177692E+02  0.40050502831E+02  0.00000000000E+00 0.  1.
</event>
<event>
 7    1  0.1756449E-015  0.9000771E+02  0.7816164E-02  0.1186339E+00
        -11   -1    0    0    0    0  0.00000000000E+00  0.00000000000E+00  0.45593999997E+02  0.45594000000E+02  0.51100000000E-03 0.  1.
         11   -1    0    0    0    0 -0.00000000000E+00 -0.00000000000E+00 -0.45593999997E+02  0.45594000000E+02  0.51100000000E-03 0. -1.
    9900012    2    1    2    0    0 -0.20745507542E+00 -0.63119193691E+00 -0.97551895453E+00  0.90007712704E+02  0.89999973712E+02 0.  0.
        -12    1    1    2    0    0  0.20745507542E+00  0.63119193691E+00  0.97551895453E+00  0.11802872956E+01  0.00000000000E+00 0.  1.
         11    1    3    3    0    0  0.51951456239E+01  0.84944647342E+01 -0.75943118788E+01  0.12522741008E+02  0.51100000000E-03 0. -1.
        -11    1    3    3    0    0 -0.11207279267E+02  0.32541249227E+02 -0.22516651180E+01  0.34490665489E+02  0.51100000000E-03 0.  1.
         12    1    3    3    0    0  0.58046785678E+01 -0.41666905898E+02  0.88704580423E+01  0.42994306208E+02  0.00000000000E+00 0. -1.
</event>
<event>
 7    1  0.1756449E-015  0.9000783E+02  0.7816164E-02  0.1186339E+00
        -11   -1    0    0    0    0  0.00000000000E+00  0.00000000000E+00  0.45593999997E+02  0.45594000000E+02  0.51100000000E-03 0.  1.
         11   -1    0    0    0    0 -0.00000000000E+00 -0.00000000000E+00 -0.45593999997E+02  0.45594000000E+02  0.51100000000E-03 0. -1.
    9900012    2    1    2    0    0 -0.50176540379E+00  0.49176576162E-01 -0.10670606603E+01  0.90007828271E+02  0.90000090805E+02 0.  0.
        -12    1    1    2    0    0  0.50176540379E+00 -0.49176576162E-01  0.10670606603E+01  0.11801717285E+01  0.00000000000E+00 0.  1.
         11    1    3    3    0    0  0.63768047480E+00  0.14669748846E+01  0.81459112327E+01  0.83014770837E+01  0.51100000000E-03 0. -1.
        -11    1    3    3    0    0  0.30208373017E+02  0.15781282525E+02  0.16301903634E+02  0.37780242731E+02  0.51100000000E-03 0.  1.
         12    1    3    3    0    0 -0.31347818896E+02 -0.17199080833E+02 -0.25514875527E+02  0.43926108457E+02  0.00000000000E+00 0. -1.
</event>
<event>
 7    1  0.1756449E-015  0.9000776E+02  0.7816164E-02  0.1186339E+00
        -11   -1    0    0    0    0  0.00000000000E+00  0.00000000000E+00  0.45593999997E+02  0.45594000000E+02  0.51100000000E-03 0. -1.
         11   -1    0    0    0    0 -0.00000000000E+00 -0.00000000000E+00 -0.45593999997E+02  0.45594000000E+02  0.51100000000E-03 0.  1.
    9900012    2    1    2    0    0 -0.11035767319E+01 -0.41445367445E+00 -0.57570868732E-01  0.90007759407E+02  0.90000021032E+02 0.  0.
        -12    1    1    2    0    0  0.11035767319E+01  0.41445367445E+00  0.57570868732E-01  0.11802405926E+01  0.00000000000E+00 0.  1.
         11    1    3    3    0    0  0.30443126241E+02 -0.12785657868E+02 -0.12189957293E+02  0.35197330034E+02  0.51100000000E-03 0. -1.
        -11    1    3    3    0    0  0.65786268093E+01  0.99919124031E+00 -0.78485542217E+01  0.10289631551E+02  0.51100000000E-03 0.  1.
        -12    1    3    3    0    0 -0.38125329782E+02  0.11372012953E+02  0.19980940646E+02  0.44520797822E+02  0.00000000000E+00 0.  1.
</event>
<event>
 7    1  0.1756449E-015  0.9000777E+02  0.7816164E-02  0.1186339E+00
        -11   -1    0    0    0    0  0.00000000000E+00  0.00000000000E+00  0.45593999997E+02  0.45594000000E+02  0.51100000000E-03 0.  1.
         11   -1    0    0    0    0 -0.00000000000E+00 -0.00000000000E+00 -0.45593999997E+02  0.45594000000E+02  0.51100000000E-03 0. -1.
    9900012    2    1    2    0    0 -0.80264025752E+00  0.86881230512E-02 -0.86523804928E+00  0.90007769621E+02  0.90000031380E+02 0.  0.
        -12    1    1    2    0    0  0.80264025752E+00 -0.86881230512E-02  0.86523804928E+00  0.11802303794E+01  0.00000000000E+00 0.  1.
         11    1    3    3    0    0 -0.69206187422E+00  0.38449832831E+02 -0.20437311029E+02  0.43549423380E+02  0.51100000000E-03 0. -1.
        -11    1    3    3    0    0 -0.22750301616E+01 -0.93860866148E+00  0.60540302815E+01  0.65351382056E+01  0.51100000000E-03 0.  1.
        -12    1    3    3    0    0  0.21644517783E+01 -0.37502536047E+02  0.13518042698E+02  0.39923208035E+02  0.00000000000E+00 0.  1.
</event>
<event>
 7    1  0.1756449E-015  0.9000759E+02  0.7816164E-02  0.1186339E+00
        -11   -1    0    0    0    0  0.00000000000E+00  0.00000000000E+00  0.45593999997E+02  0.45594000000E+02  0.51100000000E-03 0. -1.
         11   -1    0    0    0    0 -0.00000000000E+00 -0.00000000000E+00 -0.45593999997E+02  0.45594000000E+02  0.51100000000E-03 0.  1.
    9900012    2    1    2    0    0  0.21950706923E-03 -0.34320595506E+00  0.11294111025E+01  0.90007593369E+02  0.89999852802E+02 0.  0.
        -12    1    1    2    0    0 -0.21950706923E-03  0.34320595506E+00 -0.11294111025E+01  0.11804066309E+01  0.00000000000E+00 0.  1.
         11    1    3    3    0    0  0.22154789378E+02 -0.31718151143E+02 -0.26629493949E+01  0.38781014737E+02  0.51100000000E-03 0. -1.
        -11    1    3    3    0    0 -0.56662760958E+01 -0.52100961531E+01  0.77250609006E+01  0.10905427681E+02  0.51100000000E-03 0.  1.
        -12    1    3    3    0    0 -0.16488293775E+02  0.36585041341E+02 -0.39327004033E+01  0.40321150951E+02  0.00000000000E+00 0.  1.
</event>
<event>
 7    1  0.1756449E-015  0.9000773E+02  0.7816164E-02  0.1186339E+00
        -11   -1    0    0    0    0  0.00000000000E+00  0.00000000000E+00  0.45593999997E+02  0.45594000000E+02  0.51100000000E-03 0.  1.
         11   -1    0    0    0    0 -0.00000000000E+00 -0.00000000000E+00 -0.45593999997E+02  0.45594000000E+02  0.51100000000E-03 0. -1.
    9900012    2    1    2    0    0 -0.10127995602E+00 -0.54835384910E+00 -0.10402300561E+01  0.90007733868E+02  0.89999995155E+02 0.  0.
        -12    1    1    2    0    0  0.10127995602E+00  0.54835384910E+00  0.10402300561E+01  0.11802661323E+01  0.00000000000E+00 0.  1.
         11    1    3    3    0    0  0.10543486519E+02 -0.38981113064E+02 -0.37283805602E+01  0.40553583141E+02  0.51100000000E-03 0. -1.
        -11    1    3    3    0    0  0.88121622227E+01  0.36747341732E+01  0.48761071227E+00  0.95601066286E+01  0.51100000000E-03 0.  1.
        -12    1    3    3    0    0 -0.19456928698E+02  0.34758025042E+02  0.22005397919E+01  0.39894044098E+02  0.00000000000E+00 0.  1.
</event>
<event>
 7    1  0.1756449E-015  0.9000771E+02  0.7816164E-02  0.1186339E+00
        -11   -1    0    0    0    0  0.00000000000E+00  0.00000000000E+00  0.45593999997E+02  0.45594000000E+02  0.51100000000E-03 0. -1.
         11   -1    0    0    0    0 -0.00000000000E+00 -0.00000000000E+00 -0.45593999997E+02  0.45594000000E+02  0.51100000000E-03 0.  1.
    9900012    2    1    2    0    0 -0.89456384843E+00  0.39235993371E+00  0.66248772554E+00  0.90007711568E+02  0.89999972561E+02 0.  0.
        -12    1    1    2    0    0  0.89456384843E+00 -0.39235993371E+00 -0.66248772554E+00  0.11802884321E+01  0.00000000000E+00 0.  1.
         11    1    3    3    0    0  0.27006863622E+02 -0.11095750632E+02  0.29574987382E+02  0.41559189642E+02  0.51100000000E-03 0. -1.
        -11    1    3    3    0    0 -0.66943171673E+01  0.73357427181E+01  0.25744400052E+01  0.10259373527E+02  0.51100000000E-03 0.  1.
        -12    1    3    3    0    0 -0.21207110303E+02  0.41523678475E+01 -0.31486939662E+02  0.38189148399E+02  0.00000000000E+00 0.  1.
</event>
<event>
 7    1  0.1756449E-015  0.9000775E+02  0.7816164E-02  0.1186339E+00
        -11   -1    0    0    0    0  0.00000000000E+00  0.00000000000E+00  0.45593999997E+02  0.45594000000E+02  0.51100000000E-03 0.  1.
         11   -1    0    0    0    0 -0.00000000000E+00 -0.00000000000E+00 -0.45593999997E+02  0.45594000000E+02  0.51100000000E-03 0. -1.
    9900012    2    1    2    0    0 -0.63330559620E+00 -0.97332438772E+00 -0.21105972795E+00  0.90007753182E+02  0.90000014724E+02 0.  0.
        -12    1    1    2    0    0  0.63330559620E+00  0.97332438772E+00  0.21105972795E+00  0.11802468177E+01  0.00000000000E+00 0.  1.
         11    1    3    3    0    0 -0.77178995075E+01  0.19491929908E+01 -0.21304548210E+02  0.22743111063E+02  0.51100000000E-03 0. -1.
        -11    1    3    3    0    0  0.70917999836E+00  0.26603337068E+02 -0.53192245436E+01  0.27139171495E+02  0.51100000000E-03 0.  1.
         12    1    3    3    0    0  0.63754139129E+01 -0.29525854447E+02  0.26412713026E+02  0.40125470624E+02  0.00000000000E+00 0. -1.
</event>
<event>
 7    1  0.1756449E-015  0.9000775E+02  0.7816164E-02  0.1186339E+00
        -11   -1    0    0    0    0  0.00000000000E+00  0.00000000000E+00  0.45593999997E+02  0.45594000000E+02  0.51100000000E-03 0.  1.
         11   -1    0    0    0    0 -0.00000000000E+00 -0.00000000000E+00 -0.45593999997E+02  0.45594000000E+02  0.51100000000E-03 0. -1.
    9900012    2    1    2    0    0 -0.51260157567E+00 -0.10076717859E+01 -0.33884546925E+00  0.90007754663E+02  0.90000016225E+02 0.  0.
        -12    1    1    2    0    0  0.51260157567E+00  0.10076717859E+01  0.33884546925E+00  0.11802453370E+01  0.00000000000E+00 0.  1.
         11    1    3    3    0    0  0.31619589717E+02 -0.10458427458E+02 -0.59121948755E+01  0.33825008608E+02  0.51100000000E-03 0. -1.
        -11    1    3    3    0    0  0.74379926032E+01  0.71711843635E+01  0.12210398577E+02  0.15995107152E+02  0.51100000000E-03 0.  1.
        -12    1    3    3    0    0 -0.39570183896E+02  0.22795713089E+01 -0.66370491706E+01  0.40187638903E+02  0.00000000000E+00 0.  1.
</event>
<event>
 7    1  0.1756449E-015  0.9000773E+02  0.7816164E-02  0.1186339E+00
        -11   -1    0    0    0    0  0.00000000000E+00  0.00000000000E+00  0.45593999997E+02  0.45594000000E+02  0.51100000000E-03 0.  1.
         11   -1    0    0    0    0 -0.00000000000E+00 -0.00000000000E+00 -0.45593999997E+02  0.45594000000E+02  0.51100000000E-03 0. -1.
    9900012    2    1    2    0    0 -0.90134589213E-01  0.53701155901E+00 -0.10471592829E+01  0.90007725361E+02  0.89999986536E+02 0.  0.
        -12    1    1    2    0    0  0.90134589213E-01 -0.53701155901E+00  0.10471592829E+01  0.11802746386E+01  0.00000000000E+00 0.  1.
         11    1    3    3    0    0 -0.73234794564E+01  0.46885128255E+01  0.28709752887E+01  0.91574015546E+01  0.51100000000E-03 0. -1.
        -11    1    3    3    0    0 -0.12568507515E+02  0.33209581687E+02  0.90103008693E+01  0.36633716970E+02  0.51100000000E-03 0.  1.
         12    1    3    3    0    0  0.19801852382E+02 -0.37361082954E+02 -0.12928435441E+02  0.44216606837E+02  0.00000000000E+00 0. -1.
</event>
<event>
 7    1  0.2134208E-015  0.9000780E+02  0.7816164E-02  0.1186339E+00
        -11   -1    0    0    0    0  0.00000000000E+00  0.00000000000E+00  0.45593999997E+02  0.45594000000E+02  0.51100000000E-03 0. -1.
         11   -1    0    0    0    0 -0.00000000000E+00 -0.00000000000E+00 -0.45593999997E+02  0.45594000000E+02  0.51100000000E-03 0.  1.
    9900012    2    1    2    0    0  0.75843197570E+00  0.50413704163E+00  0.75065788181E+00  0.90007804900E+02  0.90000067125E+02 0.  0.
        -12    1    1    2    0    0 -0.75843197570E+00 -0.50413704163E+00 -0.75065788181E+00  0.11801951000E+01  0.00000000000E+00 0.  1.
         11    1    3    3    0    0  0.10268875506E+02  0.66273091514E+01  0.37525271397E+02  0.39465390210E+02  0.51100000000E-03 0. -1.
        -11    1    3    3    0    0  0.49103743960E+01  0.79285959926E+01 -0.85594929258E+00  0.93652047802E+01  0.51100000000E-03 0.  1.
        -12    1    3    3    0    0 -0.14420817927E+02 -0.14051768102E+02 -0.35918664222E+02  0.41177209910E+02  0.00000000000E+00 0.  1.
</event>
<event>
 7    1  0.1756449E-015  0.9000765E+02  0.7816164E-02  0.1186339E+00
        -11   -1    0    0    0    0  0.00000000000E+00  0.00000000000E+00  0.45593999997E+02  0.45594000000E+02  0.51100000000E-03 0.  1.
         11   -1    0    0    0    0 -0.00000000000E+00 -0.00000000000E+00 -0.45593999997E+02  0.45594000000E+02  0.51100000000E-03 0. -1.
    9900012    2    1    2    0    0  0.93224887160E+00  0.17823850073E+00 -0.70169130759E+00  0.90007649369E+02  0.89999909540E+02 0.  0.
        -12    1    1    2    0    0 -0.93224887160E+00 -0.17823850073E+00  0.70169130759E+00  0.11803506313E+01  0.00000000000E+00 0.  1.
         11    1    3    3    0    0  0.11273815793E+02 -0.18050653370E+02 -0.14583366462E+02  0.25799216795E+02  0.51100000000E-03 0. -1.
        -11    1    3    3    0    0  0.21309983711E+02 -0.63842003445E+01  0.82181624657E+01  0.23715219046E+02  0.51100000000E-03 0.  1.
        -12    1    3    3    0    0 -0.31651550633E+02  0.24613092215E+02  0.56635126887E+01  0.40493213528E+02  0.00000000000E+00 0.  1.
</event>
<event>
 7    1  0.1756449E-015  0.9000775E+02  0.7816164E-02  0.1186339E+00
        -11   -1    0    0    0    0  0.00000000000E+00  0.00000000000E+00  0.45593999997E+02  0.45594000000E+02  0.51100000000E-03 0.  1.
         11   -1    0    0    0    0 -0.00000000000E+00 -0.00000000000E+00 -0.45593999997E+02  0.45594000000E+02  0.51100000000E-03 0. -1.
    9900012    2    1    2    0    0  0.10723225424E+01 -0.33256249918E+00 -0.36402623300E+00  0.90007750641E+02  0.90000012150E+02 0.  0.
        -12    1    1    2    0    0 -0.10723225424E+01  0.33256249918E+00  0.36402623300E+00  0.11802493589E+01  0.00000000000E+00 0.  1.
         11    1    3    3    0    0 -0.76568225628E+01  0.11452074402E+01  0.83159206736E+01  0.11361908675E+02  0.51100000000E-03 0. -1.
        -11    1    3    3    0    0  0.19857077699E+02 -0.27262053440E+02  0.19419837958E+02  0.38918545696E+02  0.51100000000E-03 0.  1.
         12    1    3    3    0    0 -0.11127932594E+02  0.25784283501E+02 -0.28099784865E+02  0.39727296270E+02  0.00000000000E+00 0. -1.
</event>
<event>
 7    1  0.1756449E-015  0.9000781E+02  0.7816164E-02  0.1186339E+00
        -11   -1    0    0    0    0  0.00000000000E+00  0.00000000000E+00  0.45593999997E+02  0.45594000000E+02  0.51100000000E-03 0.  1.
         11   -1    0    0    0    0 -0.00000000000E+00 -0.00000000000E+00 -0.45593999997E+02  0.45594000000E+02  0.51100000000E-03 0. -1.
    9900012    2    1    2    0    0  0.23030088567E+00 -0.11097715623E+01  0.32897671091E+00  0.90007806332E+02  0.90000068575E+02 0.  0.
        -12    1    1    2    0    0 -0.23030088567E+00  0.11097715623E+01 -0.32897671091E+00  0.11801936684E+01  0.00000000000E+00 0.  1.
         11    1    3    3    0    0 -0.69104082635E+01  0.29076028281E+02  0.18051711124E+02  0.34914659353E+02  0.51100000000E-03 0. -1.
        -11    1    3    3    0    0 -0.43573845014E+00  0.43657738658E+01  0.94959421715E+01  0.10460533802E+02  0.51100000000E-03 0.  1.
         12    1    3    3    0    0  0.75764475993E+01 -0.34551573709E+02 -0.27218676584E+02  0.44632613177E+02  0.00000000000E+00 0. -1.
</event>
<event>
 7    1  0.1756449E-015  0.9000779E+02  0.7816164E-02  0.1186339E+00
        -11   -1    0    0    0    0  0.00000000000E+00  0.00000000000E+00  0.45593999997E+02  0.45594000000E+02  0.51100000000E-03 0. -1.
         11   -1    0    0    0    0 -0.00000000000E+00 -0.00000000000E+00 -0.45593999997E+02  0.45594000000E+02  0.51100000000E-03 0.  1.
    9900012    2    1    2    0    0  0.47531002374E+00  0.10595829529E+01 -0.21039711546E+00  0.90007787054E+02  0.90000049043E+02 0.  0.
        -12    1    1    2    0    0 -0.47531002374E+00 -0.10595829529E+01  0.21039711546E+00  0.11802129464E+01  0.00000000000E+00 0.  1.
         11    1    3    3    0    0 -0.32125168127E+02  0.52291890963E+01  0.17871612421E+02  0.37131730051E+02  0.51100000000E-03 0. -1.
        -11    1    3    3    0    0 -0.40949694168E+01 -0.74800772437E+01  0.45199957390E+01  0.96514606065E+01  0.51100000000E-03 0.  1.
        -12    1    3    3    0    0  0.36695447568E+02  0.33104711002E+01 -0.22602005275E+02  0.43224596396E+02  0.00000000000E+00 0.  1.
</event>
<event>
 7    1  0.2197510E-015  0.9000785E+02  0.7816164E-02  0.1186339E+00
        -11   -1    0    0    0    0  0.00000000000E+00  0.00000000000E+00  0.45593999997E+02  0.45594000000E+02  0.51100000000E-03 0. -1.
         11   -1    0    0    0    0 -0.00000000000E+00 -0.00000000000E+00 -0.45593999997E+02  0.45594000000E+02  0.51100000000E-03 0.  1.
    9900012    2    1    2    0    0 -0.78327210354E+00 -0.17324297142E+00  0.86557841620E+00  0.90007849878E+02  0.90000112697E+02 0.  0.
        -12    1    1    2    0    0  0.78327210354E+00  0.17324297142E+00 -0.86557841620E+00  0.11801501218E+01  0.00000000000E+00 0.  1.
         11    1    3    3    0    0 -0.54595304630E+01  0.19529150113E+01 -0.83954643439E+01  0.10203145188E+02  0.51100000000E-03 0. -1.
        -11    1    3    3    0    0 -0.20440705645E+01 -0.15160370427E+02 -0.32296171669E+02  0.35735944939E+02  0.51100000000E-03 0.  1.
         12    1    3    3    0    0  0.67203289239E+01  0.13034212444E+02  0.41557214429E+02  0.44068759751E+02  0.00000000000E+00 0. -1.
</event>
<event>
 7    1  0.1756449E-015  0.9000786E+02  0.7816164E-02  0.1186339E+00
        -11   -1    0    0    0    0  0.00000000000E+00  0.00000000000E+00  0.45593999997E+02  0.45594000000E+02  0.51100000000E-03 0.  1.
         11   -1    0    0    0    0 -0.00000000000E+00 -0.00000000000E+00 -0.45593999997E+02  0.45594000000E+02  0.51100000000E-03 0. -1.
    9900012    2    1    2    0    0  0.34789894645E+00 -0.27607348540E+00 -0.10933835759E+01  0.90007856835E+02  0.90000119745E+02 0.  0.
        -12    1    1    2    0    0 -0.34789894645E+00  0.27607348540E+00  0.10933835759E+01  0.11801431652E+01  0.00000000000E+00 0.  1.
         11    1    3    3    0    0  0.27161084605E+02 -0.13155402894E+02 -0.20733550827E+02  0.36615150859E+02  0.51100000000E-03 0. -1.
        -11    1    3    3    0    0 -0.79422347839E+01 -0.13508612009E+02  0.12810500789E+02  0.20240321700E+02  0.51100000000E-03 0.  1.
        -12    1    3    3    0    0 -0.18870950875E+02  0.26387941418E+02  0.68296664619E+01  0.33152384276E+02  0.00000000000E+00 0.  1.
</event>
<event>
 7    1  0.1756449E-015  0.9000790E+02  0.7816164E-02  0.1186339E+00
        -11   -1    0    0    0    0  0.00000000000E+00  0.00000000000E+00  0.45593999997E+02  0.45594000000E+02  0.51100000000E-03 0. -1.
         11   -1    0    0    0    0 -0.00000000000E+00 -0.00000000000E+00 -0.45593999997E+02  0.45594000000E+02  0.51100000000E-03 0.  1.
    9900012    2    1    2    0    0 -0.64432646990E+00  0.30145832345E+00  0.94159161510E+00  0.90007903186E+02  0.90000166708E+02 0.  0.
        -12    1    1    2    0    0  0.64432646990E+00 -0.30145832345E+00 -0.94159161510E+00  0.11800968139E+01  0.00000000000E+00 0.  1.
         11    1    3    3    0    0 -0.36850334576E+00 -0.61158002220E+01 -0.75178289594E+01  0.96982761146E+01  0.51100000000E-03 0. -1.
        -11    1    3    3    0    0 -0.22083996148E+01 -0.24503955601E+02 -0.24746002726E+02  0.34895350982E+02  0.51100000000E-03 0.  1.
         12    1    3    3    0    0  0.19325764907E+01  0.30921214146E+02  0.33205423301E+02  0.45414276090E+02  0.00000000000E+00 0. -1.
</event>
<event>
 7    1  0.1756449E-015  0.9000774E+02  0.7816164E-02  0.1186339E+00
        -11   -1    0    0    0    0  0.00000000000E+00  0.00000000000E+00  0.45593999997E+02  0.45594000000E+02  0.51100000000E-03 0.  1.
         11   -1    0    0    0    0 -0.00000000000E+00 -0.00000000000E+00 -0.45593999997E+02  0.45594000000E+02  0.51100000000E-03 0. -1.
    9900012    2    1    2    0    0 -0.11373077333E+01 -0.27101026104E+00  0.16153753484E+00  0.90007741631E+02  0.90000003021E+02 0.  0.
        -12    1    1    2    0    0  0.11373077333E+01  0.27101026104E+00 -0.16153753484E+00  0.11802583687E+01  0.00000000000E+00 0.  1.
         11    1    3    3    0    0 -0.27667494599E+01 -0.10826348037E+02  0.19467874531E+01  0.11342605347E+02  0.51100000000E-03 0. -1.
        -11    1    3    3    0    0  0.11470933625E+02 -0.11103011293E+02  0.32921395785E+02  0.36587941711E+02  0.51100000000E-03 0.  1.
         12    1    3    3    0    0 -0.98414918979E+01  0.21658349069E+02 -0.34706645703E+02  0.42077194573E+02  0.00000000000E+00 0. -1.
</event>
<event>
 7    1  0.1756449E-015  0.9000776E+02  0.7816164E-02  0.1186339E+00
        -11   -1    0    0    0    0  0.00000000000E+00  0.00000000000E+00  0.45593999997E+02  0.45594000000E+02  0.51100000000E-03 0.  1.
         11   -1    0    0    0    0 -0.00000000000E+00 -0.00000000000E+00 -0.45593999997E+02  0.45594000000E+02  0.51100000000E-03 0. -1.
    9900012    2    1    2    0    0 -0.34100264426E+00  0.11239649962E+00 -0.11242948469E+01  0.90007764990E+02  0.90000026688E+02 0.  0.
        -12    1    1    2    0    0  0.34100264426E+00 -0.11239649962E+00  0.11242948469E+01  0.11802350102E+01  0.00000000000E+00 0.  1.
         11    1    3    3    0    0  0.10295685389E+02  0.29537418207E+01  0.35531685295E+02  0.37111000910E+02  0.51100000000E-03 0. -1.
        -11    1    3    3    0    0 -0.25240077088E+01 -0.72471830429E+01  0.56917163541E+01  0.95544708010E+01  0.51100000000E-03 0.  1.
        -12    1    3    3    0    0 -0.81126803248E+01  0.44058377218E+01 -0.42347696496E+02  0.43342293278E+02  0.00000000000E+00 0.  1.
</event>
<event>
 7    1  0.1756449E-015  0.9000772E+02  0.7816164E-02  0.1186339E+00
        -11   -1    0    0    0    0  0.00000000000E+00  0.00000000000E+00  0.45593999997E+02  0.45594000000E+02  0.51100000000E-03 0.  1.
         11   -1    0    0    0    0 -0.00000000000E+00 -0.00000000000E+00 -0.45593999997E+02  0.45594000000E+02  0.51100000000E-03 0. -1.
    9900012    2    1    2    0    0  0.11214382469E+01  0.16125871991E+00  0.33081045749E+00  0.90007718815E+02  0.89999979904E+02 0.  0.
        -12    1    1    2    0    0 -0.11214382469E+01 -0.16125871991E+00 -0.33081045749E+00  0.11802811848E+01  0.00000000000E+00 0.  1.
         11    1    3    3    0    0 -0.61897371067E-01  0.27760119945E+01  0.99469567727E+01  0.10327246641E+02  0.51100000000E-03 0. -1.
        -11    1    3    3    0    0 -0.32065135559E+02 -0.19010554922E+02 -0.18417638516E+02  0.41578642662E+02  0.51100000000E-03 0.  1.
         12    1    3    3    0    0  0.33248471177E+02  0.16395801647E+02  0.88014922004E+01  0.38101829513E+02  0.00000000000E+00 0. -1.
</event>
<event>
 7    1  0.2282612E-015  0.9000775E+02  0.7816164E-02  0.1186339E+00
        -11   -1    0    0    0    0  0.00000000000E+00  0.00000000000E+00  0.45593999997E+02  0.45594000000E+02  0.51100000000E-03 0. -1.
         11   -1    0    0    0    0 -0.00000000000E+00 -0.00000000000E+00 -0.45593999997E+02  0.45594000000E+02  0.51100000000E-03 0.  1.
    9900012    2    1    2    0    0 -0.12737393792E-01 -0.12933467260E+00  0.11730767859E+01  0.90007746280E+02  0.90000007731E+02 0.  0.
        -12    1    1    2    0    0  0.12737393792E-01  0.12933467260E+00 -0.11730767859E+01  0.11802537203E+01  0.00000000000E+00 0.  1.
         11    1    3    3    0    0 -0.28872559830E+02  0.39951176266E+01  0.22228678295E+02  0.36656511222E+02  0.51100000000E-03 0. -1.
        -11    1    3    3    0    0 -0.35119290267E+01  0.65097292675E+01  0.62522309800E+01  0.96850716628E+01  0.51100000000E-03 0.  1.
        -12    1    3    3    0    0  0.32371751462E+02 -0.10634181567E+02 -0.27307832489E+02  0.43666163395E+02  0.00000000000E+00 0.  1.
</event>
<event>
 7    1  0.1756449E-015  0.9000771E+02  0.7816164E-02  0.1186339E+00
        -11   -1    0    0    0    0  0.00000000000E+00  0.00000000000E+00  0.45593999997E+02  0.45594000000E+02  0.51100000000E-03 0.  1.
         11   -1    0    0    0    0 -0.00000000000E+00 -0.00000000000E+00 -0.45593999997E+02  0.45594000000E+02  0.51100000000E-03 0. -1.
    9900012    2    1    2    0    0 -0.90462641755E-02  0.17342793631E+00 -0.11674468683E+01  0.90007707124E+02  0.89999968058E+02 0.  0.
        -12    1    1    2    0    0  0.90462641755E-02 -0.17342793631E+00  0.11674468683E+01  0.11802928764E+01  0.00000000000E+00 0.  1.
         11    1    3    3    0    0  0.13813149224E+00  0.28535395316E+02 -0.25427192215E+02  0.38220805465E+02  0.51100000000E-03 0. -1.
        -11    1    3    3    0    0  0.61118936182E+01  0.38265685993E+01 -0.42195545460E+01  0.83547897445E+01  0.51100000000E-03 0.  1.
        -12    1    3    3    0    0 -0.62590713747E+01 -0.32188535979E+02  0.28479299893E+02  0.43432111914E+02  0.00000000000E+00 0.  1.
</event>
<event>
 7    1  0.1756449E-015  0.9000731E+02  0.7816164E-02  0.1186340E+00
        -11   -1    0    0    0    0  0.00000000000E+00  0.00000000000E+00  0.45593999997E+02  0.45594000000E+02  0.51100000000E-03 0.  1.
         11   -1    0    0    0    0 -0.00000000000E+00 -0.00000000000E+00 -0.45593999997E+02  0.45594000000E+02  0.51100000000E-03 0. -1.
    9900012    2    1    2    0    0  0.64590918999E+00 -0.40682184880E+00 -0.90073921521E+00  0.90007307901E+02  0.89999563564E+02 0.  0.
        -12    1    1    2    0    0 -0.64590918999E+00  0.40682184880E+00  0.90073921521E+00  0.11806920988E+01  0.00000000000E+00 0.  1.
         11    1    3    3    0    0 -0.86613773760E+01  0.41732797110E+02 -0.34359934138E+01  0.42760400649E+02  0.51100000000E-03 0. -1.
        -11    1    3    3    0    0 -0.56570873698E+01 -0.72933538964E+01  0.11093244072E+01  0.92965719203E+01  0.51100000000E-03 0.  1.
        -12    1    3    3    0    0  0.14964373936E+02 -0.34846265062E+02  0.14259297914E+01  0.37950335332E+02  0.00000000000E+00 0.  1.
</event>
<event>
 7    1  0.1756449E-015  0.9000781E+02  0.7816164E-02  0.1186339E+00
        -11   -1    0    0    0    0  0.00000000000E+00  0.00000000000E+00  0.45593999997E+02  0.45594000000E+02  0.51100000000E-03 0.  1.
         11   -1    0    0    0    0 -0.00000000000E+00 -0.00000000000E+00 -0.45593999997E+02  0.45594000000E+02  0.51100000000E-03 0. -1.
    9900012    2    1    2    0    0  0.87175487257E+00  0.61318567368E+00 -0.50685668943E+00  0.90007806401E+02  0.90000068645E+02 0.  0.
        -12    1    1    2    0    0 -0.87175487257E+00 -0.61318567368E+00  0.50685668943E+00  0.11801935993E+01  0.00000000000E+00 0.  1.
         11    1    3    3    0    0 -0.42213915497E+01  0.14834324698E+02  0.56937781682E+01  0.16440694813E+02  0.51100000000E-03 0. -1.
        -11    1    3    3    0    0  0.16443126611E+02  0.18686288163E+02  0.18390137639E+02  0.30947551450E+02  0.51100000000E-03 0.  1.
         12    1    3    3    0    0 -0.11349980189E+02 -0.32907427187E+02 -0.24590772497E+02  0.42619560138E+02  0.00000000000E+00 0. -1.
</event>
<event>
 7    1  0.1756449E-015  0.9000761E+02  0.7816164E-02  0.1186339E+00
        -11   -1    0    0    0    0  0.00000000000E+00  0.00000000000E+00  0.45593999997E+02  0.45594000000E+02  0.51100000000E-03 0. -1.
         11   -1    0    0    0    0 -0.00000000000E+00 -0.00000000000E+00 -0.45593999997E+02  0.45594000000E+02  0.51100000000E-03 0.  1.
    9900012    2    1    2    0    0 -0.10085258069E+01  0.60667078185E+00 -0.90219116383E-01  0.90007613102E+02  0.89999872795E+02 0.  0.
        -12    1    1    2    0    0  0.10085258069E+01 -0.60667078185E+00  0.90219116383E-01  0.11803868983E+01  0.00000000000E+00 0.  1.
         11    1    3    3    0    0  0.40236807475E+02  0.10110176093E+02 -0.67358599545E+01  0.42030799968E+02  0.51100000000E-03 0. -1.
        -11    1    3    3    0    0 -0.40965998589E+01 -0.93985130888E+01  0.83861247042E-01  0.10252863583E+02  0.51100000000E-03 0.  1.
        -12    1    3    3    0    0 -0.37148733423E+02 -0.10499222185E+00  0.65617795911E+01  0.37723949550E+02  0.00000000000E+00 0.  1.
</event>
<event>
 7    1  0.1756449E-015  0.9000766E+02  0.7816164E-02  0.1186339E+00
        -11   -1    0    0    0    0  0.00000000000E+00  0.00000000000E+00  0.45593999997E+02  0.45594000000E+02  0.51100000000E-03 0.  1.
         11   -1    0    0    0    0 -0.00000000000E+00 -0.00000000000E+00 -0.45593999997E+02  0.45594000000E+02  0.51100000000E-03 0. -1.
    9900012    2    1    2    0    0  0.36133031909E+00 -0.63211996192E+00 -0.92901560041E+00  0.90007658850E+02  0.89999919146E+02 0.  0.
        -12    1    1    2    0    0 -0.36133031909E+00  0.63211996192E+00  0.92901560041E+00  0.11803411505E+01  0.00000000000E+00 0.  1.
         11    1    3    3    0    0 -0.73633637541E+01  0.53109172342E+01 -0.27261764373E+01  0.94792935323E+01  0.51100000000E-03 0. -1.
        -11    1    3    3    0    0  0.44275130816E+01 -0.71622277920E+01  0.40651970629E+02  0.41514853912E+02  0.51100000000E-03 0.  1.
         12    1    3    3    0    0  0.32971809915E+01  0.12191905959E+01 -0.38854809792E+02  0.39013511405E+02  0.00000000000E+00 0. -1.
</event>
<event>
 7    1  0.1756449E-015  0.9000793E+02  0.7816164E-02  0.1186339E+00
        -11   -1    0    0    0    0  0.00000000000E+00  0.00000000000E+00  0.45593999997E+02  0.45594000000E+02  0.51100000000E-03 0. -1.
         11   -1    0    0    0    0 -0.00000000000E+00 -0.00000000000E+00 -0.45593999997E+02  0.45594000000E+02  0.51100000000E-03 0.  1.
    9900012    2    1    2    0    0 -0.54713388222E+00 -0.88618707181E+00  0.55486833360E+00  0.90007931409E+02  0.90000195304E+02 0.  0.
        -12    1    1    2    0    0  0.54713388222E+00  0.88618707181E+00 -0.55486833360E+00  0.11800685908E+01  0.00000000000E+00 0.  1.
         11    1    3    3    0    0  0.14161910896E+02  0.21552602435E+02  0.29045172492E+01  0.25952083012E+02  0.51100000000E-03 0. -1.
        -11    1    3    3    0    0 -0.95427556525E+01  0.18474707145E+02  0.66801828510E+01  0.21840417412E+02  0.51100000000E-03 0.  1.
        -12    1    3    3    0    0 -0.51662891255E+01 -0.40913496652E+02 -0.90298317666E+01  0.42215430986E+02  0.00000000000E+00 0.  1.
</event>
<event>
 7    1  0.1756449E-015  0.9000769E+02  0.7816164E-02  0.1186339E+00
        -11   -1    0    0    0    0  0.00000000000E+00  0.00000000000E+00  0.45593999997E+02  0.45594000000E+02  0.51100000000E-03 0.  1.
         11   -1    0    0    0    0 -0.00000000000E+00 -0.00000000000E+00 -0.45593999997E+02  0.45594000000E+02  0.51100000000E-03 0. -1.
    9900012    2    1    2    0    0  0.38152446272E+00 -0.11109199957E+01  0.11592725654E+00  0.90007685092E+02  0.89999945736E+02 0.  0.
        -12    1    1    2    0    0 -0.38152446272E+00  0.11109199957E+01 -0.11592725654E+00  0.11803149077E+01  0.00000000000E+00 0.  1.
         11    1    3    3    0    0  0.68561704597E+01  0.51988110217E+01  0.36074385983E+01  0.93299690735E+01  0.51100000000E-03 0. -1.
        -11    1    3    3    0    0  0.25703343486E+02  0.14141640055E+01  0.25827892902E+02  0.36465624610E+02  0.51100000000E-03 0.  1.
         12    1    3    3    0    0 -0.32177989483E+02 -0.77238950229E+01 -0.29319404244E+02  0.44212091408E+02  0.00000000000E+00 0. -1.
</event>
<event>
 7    1  0.1756449E-015  0.9000770E+02  0.7816164E-02  0.1186339E+00
        -11   -1    0    0    0    0  0.00000000000E+00  0.00000000000E+00  0.45593999997E+02  0.45594000000E+02  0.51100000000E-03 0.  1.
         11   -1    0    0    0    0 -0.00000000000E+00 -0.00000000000E+00 -0.45593999997E+02  0.45594000000E+02  0.51100000000E-03 0. -1.
    9900012    2    1    2    0    0 -0.20967684686E+00 -0.81333197904E+00 -0.82923844031E+00  0.90007699327E+02  0.89999960158E+02 0.  0.
        -12    1    1    2    0    0  0.20967684686E+00  0.81333197904E+00  0.82923844031E+00  0.11803006732E+01  0.00000000000E+00 0.  1.
         11    1    3    3    0    0 -0.19419955891E+01  0.88564549641E+01 -0.12243751977E+01  0.91491658792E+01  0.51100000000E-03 0. -1.
        -11    1    3    3    0    0  0.37182528285E+02 -0.42363520294E+01 -0.16876136879E+02  0.41052296944E+02  0.51100000000E-03 0.  1.
         12    1    3    3    0    0 -0.35450209543E+02 -0.54334349138E+01  0.17271273636E+02  0.39806236504E+02  0.00000000000E+00 0. -1.
</event>
<event>
 7    1  0.1756449E-015  0.9000795E+02  0.7816164E-02  0.1186339E+00
        -11   -1    0    0    0    0  0.00000000000E+00  0.00000000000E+00  0.45593999997E+02  0.45594000000E+02  0.51100000000E-03 0.  1.
         11   -1    0    0    0    0 -0.00000000000E+00 -0.00000000000E+00 -0.45593999997E+02  0.45594000000E+02  0.51100000000E-03 0. -1.
    9900012    2    1    2    0    0  0.26154152254E+00  0.15275332176E+00 -0.11405176537E+01  0.90007949974E+02  0.90000214113E+02 0.  0.
        -12    1    1    2    0    0 -0.26154152254E+00 -0.15275332176E+00  0.11405176537E+01  0.11800500259E+01  0.00000000000E+00 0.  1.
         11    1    3    3    0    0 -0.26977580807E+02 -0.24892476570E+02 -0.19803096703E+02  0.41708367210E+02  0.51100000000E-03 0. -1.
        -11    1    3    3    0    0  0.20758405015E+01 -0.40617978880E+01  0.65116845217E+01  0.79504308966E+01  0.51100000000E-03 0.  1.
        -12    1    3    3    0    0  0.25163281828E+02  0.29107027780E+02  0.12150894528E+02  0.40349151867E+02  0.00000000000E+00 0.  1.
</event>
<event>
 7    1  0.1756449E-015  0.9000776E+02  0.7816164E-02  0.1186339E+00
        -11   -1    0    0    0    0  0.00000000000E+00  0.00000000000E+00  0.45593999997E+02  0.45594000000E+02  0.51100000000E-03 0. -1.
         11   -1    0    0    0    0 -0.00000000000E+00 -0.00000000000E+00 -0.45593999997E+02  0.45594000000E+02  0.51100000000E-03 0.  1.
    9900012    2    1    2    0    0 -0.11404643955E+01  0.26727920031E+00  0.14448054927E+00  0.90007757721E+02  0.90000019323E+02 0.  0.
        -12    1    1    2    0    0  0.11404643955E+01 -0.26727920031E+00 -0.14448054927E+00  0.11802422792E+01  0.00000000000E+00 0.  1.
         11    1    3    3    0    0  0.15262779485E+02  0.31761311580E+02 -0.25306706447E+02  0.43383899575E+02  0.51100000000E-03 0. -1.
        -11    1    3    3    0    0  0.29091299478E+01 -0.54792634264E+01  0.69417583567E+01  0.93098536021E+01  0.51100000000E-03 0.  1.
        -12    1    3    3    0    0 -0.19312373828E+02 -0.26014768953E+02  0.18509428640E+02  0.37314004544E+02  0.00000000000E+00 0.  1.
</event>
<event>
 7    1  0.1756449E-015  0.9000740E+02  0.7816164E-02  0.1186340E+00
        -11   -1    0    0    0    0  0.00000000000E+00  0.00000000000E+00  0.45593999997E+02  0.45594000000E+02  0.51100000000E-03 0.  1.
         11   -1    0    0    0    0 -0.00000000000E+00 -0.00000000000E+00 -0.45593999997E+02  0.45594000000E+02  0.51100000000E-03 0. -1.
    9900012    2    1    2    0    0 -0.40800469319E-01 -0.82967622546E+00 -0.83892493497E+00  0.90007397457E+02  0.89999654303E+02 0.  0.
        -12    1    1    2    0    0  0.40800469319E-01  0.82967622546E+00  0.83892493497E+00  0.11806025427E+01  0.00000000000E+00 0.  1.
         11    1    3    3    0    0 -0.77441467532E+01 -0.14159480472E+01  0.52296766194E+01  0.94512557691E+01  0.51100000000E-03 0. -1.
        -11    1    3    3    0    0 -0.25348009623E+02  0.26511033922E+02  0.52481117485E+01  0.37052654273E+02  0.51100000000E-03 0.  1.
         12    1    3    3    0    0  0.33051355907E+02 -0.25924762101E+02 -0.11316713303E+02  0.43503487415E+02  0.00000000000E+00 0. -1.
</event>
<event>
 7    1  0.2254896E-015  0.9000784E+02  0.7816164E-02  0.1186339E+00
        -11   -1    0    0    0    0  0.00000000000E+00  0.00000000000E+00  0.45593999997E+02  0.45594000000E+02  0.51100000000E-03 0. -1.
         11   -1    0    0    0    0 -0.00000000000E+00 -0.00000000000E+00 -0.45593999997E+02  0.45594000000E+02  0.51100000000E-03 0.  1.
    9900012    2    1    2    0    0  0.10295205487E+01 -0.42279045385E+00  0.39256364752E+00  0.90007843000E+02  0.90000105727E+02 0.  0.
        -12    1    1    2    0    0 -0.10295205487E+01  0.42279045385E+00 -0.39256364752E+00  0.11801570003E+01  0.00000000000E+00 0.  1.
         11    1    3    3    0    0 -0.22296614408E+00 -0.98459058946E+01 -0.58183303347E+00  0.98656021978E+01  0.51100000000E-03 0. -1.
        -11    1    3    3    0    0 -0.45505872230E+00 -0.53247608551E+01 -0.38032182364E+02  0.38405820551E+02  0.51100000000E-03 0.  1.
         12    1    3    3    0    0  0.17075454150E+01  0.14747876296E+02  0.39006579045E+02  0.41736420251E+02  0.00000000000E+00 0. -1.
</event>
<event>
 7    1  0.1756449E-015  0.9000775E+02  0.7816164E-02  0.1186339E+00
        -11   -1    0    0    0    0  0.00000000000E+00  0.00000000000E+00  0.45593999997E+02  0.45594000000E+02  0.51100000000E-03 0.  1.
         11   -1    0    0    0    0 -0.00000000000E+00 -0.00000000000E+00 -0.45593999997E+02  0.45594000000E+02  0.51100000000E-03 0. -1.
    9900012    2    1    2    0    0 -0.91815226586E+00  0.26491533010E+00 -0.69267784950E+00  0.90007751586E+02  0.90000013107E+02 0.  0.
        -12    1    1    2    0    0  0.91815226586E+00 -0.26491533010E+00  0.69267784950E+00  0.11802484139E+01  0.00000000000E+00 0.  1.
         11    1    3    3    0    0  0.84055100268E+01 -0.67281871893E+01  0.23044399475E+01  0.11010519761E+02  0.51100000000E-03 0. -1.
        -11    1    3    3    0    0  0.49894655424E+01 -0.62595569425E+01  0.35204778382E+02  0.36103368828E+02  0.51100000000E-03 0.  1.
         12    1    3    3    0    0 -0.14313127835E+02  0.13252659462E+02 -0.38201896179E+02  0.42893862998E+02  0.00000000000E+00 0. -1.
</event>
<event>
 7    1  0.1756449E-015  0.9000771E+02  0.7816164E-02  0.1186339E+00
        -11   -1    0    0    0    0  0.00000000000E+00  0.00000000000E+00  0.45593999997E+02  0.45594000000E+02  0.51100000000E-03 0. -1.
         11   -1    0    0    0    0 -0.00000000000E+00 -0.00000000000E+00 -0.45593999997E+02  0.45594000000E+02  0.51100000000E-03 0.  1.
    9900012    2    1    2    0    0 -0.11187215408E+01  0.16683288836E+00  0.33720791417E+00  0.90007711783E+02  0.89999972778E+02 0.  0.
        -12    1    1    2    0    0  0.11187215408E+01 -0.16683288836E+00 -0.33720791417E+00  0.11802882173E+01  0.00000000000E+00 0.  1.
         11    1    3    3    0    0  0.50958895789E+01 -0.24959165639E+01 -0.73415090567E+01  0.92787631495E+01  0.51100000000E-03 0. -1.
        -11    1    3    3    0    0  0.33342241376E+02 -0.10046970503E+02 -0.89846395439E+01  0.35963459570E+02  0.51100000000E-03 0.  1.
         12    1    3    3    0    0 -0.39556852496E+02  0.12709719955E+02  0.16663356515E+02  0.44765489063E+02  0.00000000000E+00 0. -1.
</event>
<event>
 7    1  0.1756449E-015  0.9000776E+02  0.7816164E-02  0.1186339E+00
        -11   -1    0    0    0    0  0.00000000000E+00  0.00000000000E+00  0.45593999997E+02  0.45594000000E+02  0.51100000000E-03 0. -1.
         11   -1    0    0    0    0 -0.00000000000E+00 -0.00000000000E+00 -0.45593999997E+02  0.45594000000E+02  0.51100000000E-03 0.  1.
    9900012    2    1    2    0    0 -0.51549869722E+00  0.10487466714E+01 -0.16538667795E+00  0.90007762210E+02  0.90000023871E+02 0.  0.
        -12    1    1    2    0    0  0.51549869722E+00 -0.10487466714E+01  0.16538667795E+00  0.11802377900E+01  0.00000000000E+00 0.  1.
         11    1    3    3    0    0  0.56964831204E+01  0.36216019335E+02  0.21743333437E+02  0.42624201173E+02  0.51100000000E-03 0. -1.
        -11    1    3    3    0    0 -0.71699303537E+01 -0.38460089244E+01  0.14949934665E+01  0.82725263160E+01  0.51100000000E-03 0.  1.
        -12    1    3    3    0    0  0.95794853603E+00 -0.31321263739E+02 -0.23403713581E+02  0.39111034722E+02  0.00000000000E+00 0.  1.
</event>
<event>
 7    1  0.1756449E-015  0.9000781E+02  0.7816164E-02  0.1186339E+00
        -11   -1    0    0    0    0  0.00000000000E+00  0.00000000000E+00  0.45593999997E+02  0.45594000000E+02  0.51100000000E-03 0.  1.
         11   -1    0    0    0    0 -0.00000000000E+00 -0.00000000000E+00 -0.45593999997E+02  0.45594000000E+02  0.51100000000E-03 0. -1.
    9900012    2    1    2    0    0 -0.69869760156E+00  0.41571981213E+00 -0.85547883606E+00  0.90007811312E+02  0.90000073621E+02 0.  0.
        -12    1    1    2    0    0  0.69869760156E+00 -0.41571981213E+00  0.85547883606E+00  0.11801886881E+01  0.00000000000E+00 0.  1.
         11    1    3    3    0    0 -0.77474162237E+01 -0.11272819439E+02 -0.17228333677E+02  0.21998054410E+02  0.51100000000E-03 0. -1.
        -11    1    3    3    0    0 -0.61947896448E+01 -0.21027776259E+02 -0.98568403330E+01  0.24035392544E+02  0.51100000000E-03 0.  1.
         12    1    3    3    0    0  0.13243508267E+02  0.32716315510E+02  0.26229695174E+02  0.43974364358E+02  0.00000000000E+00 0. -1.
</event>
<event>
 7    1  0.1756449E-015  0.9000774E+02  0.7816164E-02  0.1186339E+00
        -11   -1    0    0    0    0  0.00000000000E+00  0.00000000000E+00  0.45593999997E+02  0.45594000000E+02  0.51100000000E-03 0.  1.
         11   -1    0    0    0    0 -0.00000000000E+00 -0.00000000000E+00 -0.45593999997E+02  0.45594000000E+02  0.51100000000E-03 0. -1.
    9900012    2    1    2    0    0  0.79909785283E+00 -0.77595665258E+00  0.39032213865E+00  0.90007738386E+02  0.89999999733E+02 0.  0.
        -12    1    1    2    0    0 -0.79909785283E+00  0.77595665258E+00 -0.39032213865E+00  0.11802616138E+01  0.00000000000E+00 0.  1.
         11    1    3    3    0    0 -0.26861336612E+02 -0.13705186829E+02 -0.17791158354E+02  0.35012695789E+02  0.51100000000E-03 0. -1.
        -11    1    3    3    0    0 -0.36642491522E+01  0.10541331057E+01 -0.10325836384E+02  0.11007307379E+02  0.51100000000E-03 0.  1.
        -12    1    3    3    0    0  0.31324683617E+02  0.11875097071E+02  0.28507316876E+02  0.43987735218E+02  0.00000000000E+00 0.  1.
</event>
<event>
 7    1  0.1756449E-015  0.9000768E+02  0.7816164E-02  0.1186339E+00
        -11   -1    0    0    0    0  0.00000000000E+00  0.00000000000E+00  0.45593999997E+02  0.45594000000E+02  0.51100000000E-03 0.  1.
         11   -1    0    0    0    0 -0.00000000000E+00 -0.00000000000E+00 -0.45593999997E+02  0.45594000000E+02  0.51100000000E-03 0. -1.
    9900012    2    1    2    0    0 -0.97022697556E+00 -0.18688541097E+00 -0.64566800975E+00  0.90007680670E+02  0.89999941255E+02 0.  0.
        -12    1    1    2    0    0  0.97022697556E+00  0.18688541097E+00  0.64566800975E+00  0.11803193296E+01  0.00000000000E+00 0.  1.
         11    1    3    3    0    0 -0.14703539474E+02 -0.32280334063E+01 -0.35249875613E+02  0.38329727415E+02  0.51100000000E-03 0. -1.
        -11    1    3    3    0    0  0.27335074438E+00 -0.88556652992E+01 -0.35199407910E+01  0.95334942153E+01  0.51100000000E-03 0.  1.
        -12    1    3    3    0    0  0.13459961754E+02  0.11896813295E+02  0.38124148394E+02  0.42144459040E+02  0.00000000000E+00 0.  1.
</event>
<event>
 7    1  0.1756449E-015  0.9000782E+02  0.7816164E-02  0.1186339E+00
        -11   -1    0    0    0    0  0.00000000000E+00  0.00000000000E+00  0.45593999997E+02  0.45594000000E+02  0.51100000000E-03 0.  1.
         11   -1    0    0    0    0 -0.00000000000E+00 -0.00000000000E+00 -0.45593999997E+02  0.45594000000E+02  0.51100000000E-03 0. -1.
    9900012    2    1    2    0    0  0.62311294804E+00 -0.17225800593E+00 -0.98736262489E+00  0.90007818862E+02  0.90000081270E+02 0.  0.
        -12    1    1    2    0    0 -0.62311294804E+00  0.17225800593E+00  0.98736262489E+00  0.11801811385E+01  0.00000000000E+00 0.  1.
         11    1    3    3    0    0  0.38893886608E+01 -0.71701395879E+01  0.37710947176E+01  0.89866234758E+01  0.51100000000E-03 0. -1.
        -11    1    3    3    0    0  0.31605361946E+02  0.24752699706E+02  0.56219337383E+01  0.40536418017E+02  0.51100000000E-03 0.  1.
         12    1    3    3    0    0 -0.34871637659E+02 -0.17754818124E+02 -0.10380391081E+02  0.40484777369E+02  0.00000000000E+00 0. -1.
</event>
<event>
 7    1  0.1756449E-015  0.9000765E+02  0.7816164E-02  0.1186339E+00
        -11   -1    0    0    0    0  0.00000000000E+00  0.00000000000E+00  0.45593999997E+02  0.45594000000E+02  0.51100000000E-03 0. -1.
         11   -1    0    0    0    0 -0.00000000000E+00 -0.00000000000E+00 -0.45593999997E+02  0.45594000000E+02  0.51100000000E-03 0.  1.
    9900012    2    1    2    0    0 -0.19869601557E+00 -0.60686291624E+00  0.99270071719E+00  0.90007653687E+02  0.89999913915E+02 0.  0.
        -12    1    1    2    0    0  0.19869601557E+00  0.60686291624E+00 -0.99270071719E+00  0.11803463134E+01  0.00000000000E+00 0.  1.
         11    1    3    3    0    0  0.18180014776E+02 -0.13861495159E+02  0.22075233334E+02  0.31780023794E+02  0.51100000000E-03 0. -1.
        -11    1    3    3    0    0  0.15132264992E+02 -0.13593114484E+01  0.14829442895E+01  0.15265395358E+02  0.51100000000E-03 0.  1.
        -12    1    3    3    0    0 -0.33510975784E+02  0.14613943691E+02 -0.22565476906E+02  0.42962234535E+02  0.00000000000E+00 0.  1.
</event>
<event>
 7    1  0.1756449E-015  0.9000777E+02  0.7816164E-02  0.1186339E+00
        -11   -1    0    0    0    0  0.00000000000E+00  0.00000000000E+00  0.45593999997E+02  0.45594000000E+02  0.51100000000E-03 0. -1.
         11   -1    0    0    0    0 -0.00000000000E+00 -0.00000000000E+00 -0.45593999997E+02  0.45594000000E+02  0.51100000000E-03 0.  1.
    9900012    2    1    2    0    0  0.63345609511E+00  0.66582663762E+00  0.74051467236E+00  0.90007765398E+02  0.90000027101E+02 0.  0.
        -12    1    1    2    0    0 -0.63345609511E+00 -0.66582663762E+00 -0.74051467236E+00  0.11802346020E+01  0.00000000000E+00 0.  1.
         11    1    3    3    0    0  0.71902481833E+01  0.22400599150E+02 -0.75064715880E+01  0.24694809721E+02  0.51100000000E-03 0. -1.
        -11    1    3    3    0    0  0.58815501785E+01  0.10341577887E+02 -0.18321070273E+02  0.21844964681E+02  0.51100000000E-03 0.  1.
        -12    1    3    3    0    0 -0.12438342267E+02 -0.32076350399E+02  0.26568056533E+02  0.43467990996E+02  0.00000000000E+00 0.  1.
</event>
<event>
 7    1  0.1756449E-015  0.9000787E+02  0.7816164E-02  0.1186339E+00
        -11   -1    0    0    0    0  0.00000000000E+00  0.00000000000E+00  0.45593999997E+02  0.45594000000E+02  0.51100000000E-03 0. -1.
         11   -1    0    0    0    0 -0.00000000000E+00 -0.00000000000E+00 -0.45593999997E+02  0.45594000000E+02  0.51100000000E-03 0.  1.
    9900012    2    1    2    0    0  0.14257940247E+00  0.11629559709E+01 -0.14113243876E+00  0.90007867024E+02  0.90000130068E+02 0.  0.
        -12    1    1    2    0    0 -0.14257940247E+00 -0.11629559709E+01  0.14113243876E+00  0.11801329762E+01  0.00000000000E+00 0.  1.
         11    1    3    3    0    0  0.65373792105E+01  0.20668647098E+01 -0.97766741735E+01  0.11941214964E+02  0.51100000000E-03 0. -1.
        -11    1    3    3    0    0  0.12487274192E+02 -0.35723763071E+02  0.39065180358E+01  0.38044449636E+02  0.51100000000E-03 0.  1.
         12    1    3    3    0    0 -0.18882074000E+02  0.34819854332E+02  0.57290236989E+01  0.40022202423E+02  0.00000000000E+00 0. -1.
</event>
<event>
 7    1  0.1756449E-015  0.9000772E+02  0.7816164E-02  0.1186339E+00
        -11   -1    0    0    0    0  0.00000000000E+00  0.00000000000E+00  0.45593999997E+02  0.45594000000E+02  0.51100000000E-03 0. -1.
         11   -1    0    0    0    0 -0.00000000000E+00 -0.00000000000E+00 -0.45593999997E+02  0.45594000000E+02  0.51100000000E-03 0.  1.
    9900012    2    1    2    0    0  0.52841508906E+00 -0.93017315366E-01  0.10512760291E+01  0.90007722060E+02  0.89999983191E+02 0.  0.
        -12    1    1    2    0    0 -0.52841508906E+00  0.93017315366E-01 -0.10512760291E+01  0.11802779404E+01  0.00000000000E+00 0.  1.
         11    1    3    3    0    0 -0.24532596305E+02 -0.23117867293E+02 -0.58634697313E+01  0.34214972559E+02  0.51100000000E-03 0. -1.
        -11    1    3    3    0    0 -0.47544715597E+01 -0.95954078769E+01  0.42434067723E+01  0.11518826044E+02  0.51100000000E-03 0.  1.
        -12    1    3    3    0    0  0.29815482954E+02  0.32620257854E+02  0.26713389881E+01  0.44273923457E+02  0.00000000000E+00 0.  1.
</event>
<event>
 7    1  0.1766243E-015  0.9000779E+02  0.7816164E-02  0.1186339E+00
        -11   -1    0    0    0    0  0.00000000000E+00  0.00000000000E+00  0.45593999997E+02  0.45594000000E+02  0.51100000000E-03 0. -1.
         11   -1    0    0    0    0 -0.00000000000E+00 -0.00000000000E+00 -0.45593999997E+02  0.45594000000E+02  0.51100000000E-03 0.  1.
    9900012    2    1    2    0    0 -0.92173531819E+00  0.52186504130E+00  0.52053740846E+00  0.90007788870E+02  0.90000050883E+02 0.  0.
        -12    1    1    2    0    0  0.92173531819E+00 -0.52186504130E+00 -0.52053740846E+00  0.11802111302E+01  0.00000000000E+00 0.  1.
         11    1    3    3    0    0  0.45644325097E+01 -0.38519393585E+01 -0.66446370911E+01  0.89343541060E+01  0.51100000000E-03 0. -1.
        -11    1    3    3    0    0  0.18491371338E+02  0.32067105628E+02 -0.13031482881E+02  0.39243466000E+02  0.51100000000E-03 0.  1.
         12    1    3    3    0    0 -0.23977539166E+02 -0.27693301229E+02  0.20196657381E+02  0.41829968764E+02  0.00000000000E+00 0. -1.
</event>
<event>
 7    1  0.1756449E-015  0.9000781E+02  0.7816164E-02  0.1186339E+00
        -11   -1    0    0    0    0  0.00000000000E+00  0.00000000000E+00  0.45593999997E+02  0.45594000000E+02  0.51100000000E-03 0.  1.
         11   -1    0    0    0    0 -0.00000000000E+00 -0.00000000000E+00 -0.45593999997E+02  0.45594000000E+02  0.51100000000E-03 0. -1.
    9900012    2    1    2    0    0  0.71788351189E+00  0.80943167326E+00  0.47149812682E+00  0.90007810670E+02  0.90000072971E+02 0.  0.
        -12    1    1    2    0    0 -0.71788351189E+00 -0.80943167326E+00 -0.47149812682E+00  0.11801893297E+01  0.00000000000E+00 0.  1.
         11    1    3    3    0    0 -0.45881962911E-01 -0.28566519592E+01  0.86758823787E+01  0.91341940466E+01  0.51100000000E-03 0. -1.
        -11    1    3    3    0    0 -0.18358595953E+02 -0.21870552040E+02  0.22683764048E+02  0.36467961878E+02  0.51100000000E-03 0.  1.
         12    1    3    3    0    0  0.19122361428E+02  0.25536635672E+02 -0.30888148300E+02  0.44405654746E+02  0.00000000000E+00 0. -1.
</event>
<event>
 7    1  0.1756449E-015  0.9000774E+02  0.7816164E-02  0.1186339E+00
        -11   -1    0    0    0    0  0.00000000000E+00  0.00000000000E+00  0.45593999997E+02  0.45594000000E+02  0.51100000000E-03 0.  1.
         11   -1    0    0    0    0 -0.00000000000E+00 -0.00000000000E+00 -0.45593999997E+02  0.45594000000E+02  0.51100000000E-03 0. -1.
    9900012    2    1    2    0    0  0.89929159001E+00 -0.20797524368E+00 -0.73555193570E+00  0.90007739132E+02  0.90000000489E+02 0.  0.
        -12    1    1    2    0    0 -0.89929159001E+00  0.20797524368E+00  0.73555193570E+00  0.11802608678E+01  0.00000000000E+00 0.  1.
         11    1    3    3    0    0 -0.47114166137E+01 -0.14687804817E+01  0.32929886412E+01  0.59328354994E+01  0.51100000000E-03 0. -1.
        -11    1    3    3    0    0 -0.28577259869E+02 -0.27231285660E+02 -0.19700214734E+01  0.39523204389E+02  0.51100000000E-03 0.  1.
         12    1    3    3    0    0  0.34187968072E+02  0.28492090898E+02 -0.20585191035E+01  0.44551699244E+02  0.00000000000E+00 0. -1.
</event>
<event>
 7    1  0.1756449E-015  0.9000770E+02  0.7816164E-02  0.1186339E+00
        -11   -1    0    0    0    0  0.00000000000E+00  0.00000000000E+00  0.45593999997E+02  0.45594000000E+02  0.51100000000E-03 0. -1.
         11   -1    0    0    0    0 -0.00000000000E+00 -0.00000000000E+00 -0.45593999997E+02  0.45594000000E+02  0.51100000000E-03 0.  1.
    9900012    2    1    2    0    0 -0.76666407333E+00  0.70492878703E+00  0.55533891416E+00  0.90007703552E+02  0.89999964439E+02 0.  0.
        -12    1    1    2    0    0  0.76666407333E+00 -0.70492878703E+00 -0.55533891416E+00  0.11802964482E+01  0.00000000000E+00 0.  1.
         11    1    3    3    0    0  0.30723502969E+01  0.15838804958E+02  0.26265659040E+02  0.30825183275E+02  0.51100000000E-03 0. -1.
        -11    1    3    3    0    0 -0.12942510177E+02  0.13925148936E+02  0.48055857664E+00  0.19017078623E+02  0.51100000000E-03 0.  1.
        -12    1    3    3    0    0  0.91034958067E+01 -0.29059025107E+02 -0.26190878702E+02  0.40165441654E+02  0.00000000000E+00 0.  1.
</event>
<event>
 7    1  0.1756449E-015  0.9000774E+02  0.7816164E-02  0.1186339E+00
        -11   -1    0    0    0    0  0.00000000000E+00  0.00000000000E+00  0.45593999997E+02  0.45594000000E+02  0.51100000000E-03 0. -1.
         11   -1    0    0    0    0 -0.00000000000E+00 -0.00000000000E+00 -0.45593999997E+02  0.45594000000E+02  0.51100000000E-03 0.  1.
    9900012    2    1    2    0    0  0.12248771854E+00 -0.30518222985E+00  0.11335235378E+01  0.90007739416E+02  0.90000000777E+02 0.  0.
        -12    1    1    2    0    0 -0.12248771854E+00  0.30518222985E+00 -0.11335235378E+01  0.11802605837E+01  0.00000000000E+00 0.  1.
         11    1    3    3    0    0  0.43118477473E+01  0.79475026034E+01  0.25829941863E+02  0.27366781424E+02  0.51100000000E-03 0. -1.
        -11    1    3    3    0    0 -0.11358738858E+02  0.26322720277E+01  0.16062783084E+02  0.19848496294E+02  0.51100000000E-03 0.  1.
        -12    1    3    3    0    0  0.71693788288E+01 -0.10884956861E+02 -0.40759201409E+02  0.42792461698E+02  0.00000000000E+00 0.  1.
</event>
<event>
 7    1  0.1756449E-015  0.9000770E+02  0.7816164E-02  0.1186339E+00
        -11   -1    0    0    0    0  0.00000000000E+00  0.00000000000E+00  0.45593999997E+02  0.45594000000E+02  0.51100000000E-03 0.  1.
         11   -1    0    0    0    0 -0.00000000000E+00 -0.00000000000E+00 -0.45593999997E+02  0.45594000000E+02  0.51100000000E-03 0. -1.
    9900012    2    1    2    0    0 -0.71690385423E+00 -0.14350936739E+00 -0.92658156288E+00  0.90007703653E+02  0.89999964541E+02 0.  0.
        -12    1    1    2    0    0  0.71690385423E+00  0.14350936739E+00  0.92658156288E+00  0.11802963473E+01  0.00000000000E+00 0.  1.
         11    1    3    3    0    0 -0.27900057359E+00 -0.47254456450E+01 -0.82765090006E+01  0.95345833345E+01  0.51100000000E-03 0. -1.
        -11    1    3    3    0    0 -0.12991438505E+02 -0.12363894856E+02  0.38720811513E+02  0.42672527637E+02  0.51100000000E-03 0.  1.
         12    1    3    3    0    0  0.12553535224E+02  0.16945831134E+02 -0.31370884075E+02  0.37800592682E+02  0.00000000000E+00 0. -1.
</event>
<event>
 7    1  0.1756449E-015  0.9000809E+02  0.7816164E-02  0.1186338E+00
        -11   -1    0    0    0    0  0.00000000000E+00  0.00000000000E+00  0.45593999997E+02  0.45594000000E+02  0.51100000000E-03 0.  1.
         11   -1    0    0    0    0 -0.00000000000E+00 -0.00000000000E+00 -0.45593999997E+02  0.45594000000E+02  0.51100000000E-03 0. -1.
    9900012    2    1    2    0    0 -0.57708625629E-01 -0.24060383979E-01 -0.11782553044E+01  0.90008086974E+02  0.90000352921E+02 0.  0.
        -12    1    1    2    0    0  0.57708625629E-01  0.24060383979E-01  0.11782553044E+01  0.11799130264E+01  0.00000000000E+00 0.  1.
         11    1    3    3    0    0 -0.62170420330E+01  0.13841549738E+02 -0.34696473082E+02  0.37869319447E+02  0.51100000000E-03 0. -1.
        -11    1    3    3    0    0  0.47207321545E+01  0.66757389540E+01 -0.41803999319E+01  0.91829486827E+01  0.51100000000E-03 0.  1.
        -12    1    3    3    0    0  0.14386012528E+01 -0.20541349076E+02  0.37698617709E+02  0.42955818844E+02  0.00000000000E+00 0.  1.
</event>
<event>
 7    1  0.1756449E-015  0.9000758E+02  0.7816164E-02  0.1186339E+00
        -11   -1    0    0    0    0  0.00000000000E+00  0.00000000000E+00  0.45593999997E+02  0.45594000000E+02  0.51100000000E-03 0.  1.
         11   -1    0    0    0    0 -0.00000000000E+00 -0.00000000000E+00 -0.45593999997E+02  0.45594000000E+02  0.51100000000E-03 0. -1.
    9900012    2    1    2    0    0  0.23544561281E+00 -0.88821711540E+00 -0.74096037349E+00  0.90007582042E+02  0.89999841325E+02 0.  0.
        -12    1    1    2    0    0 -0.23544561281E+00  0.88821711540E+00  0.74096037349E+00  0.11804179581E+01  0.00000000000E+00 0.  1.
         11    1    3    3    0    0 -0.25157289597E+02  0.26573840766E+02  0.44534171260E+01  0.36863140904E+02  0.51100000000E-03 0. -1.
        -11    1    3    3    0    0 -0.37850126384E+01  0.64351183513E+01 -0.38474012462E+01  0.83987835714E+01  0.51100000000E-03 0.  1.
        -12    1    3    3    0    0  0.29177747848E+02 -0.33897176233E+02 -0.13469762533E+01  0.44745657567E+02  0.00000000000E+00 0.  1.
</event>
<event>
 7    1  0.1756449E-015  0.9000776E+02  0.7816164E-02  0.1186339E+00
        -11   -1    0    0    0    0  0.00000000000E+00  0.00000000000E+00  0.45593999997E+02  0.45594000000E+02  0.51100000000E-03 0. -1.
         11   -1    0    0    0    0 -0.00000000000E+00 -0.00000000000E+00 -0.45593999997E+02  0.45594000000E+02  0.51100000000E-03 0.  1.
    9900012    2    1    2    0    0  0.68492163251E+00  0.11057680106E+00  0.95479132492E+00  0.90007757929E+02  0.90000019534E+02 0.  0.
        -12    1    1    2    0    0 -0.68492163251E+00 -0.11057680106E+00 -0.95479132492E+00  0.11802420708E+01  0.00000000000E+00 0.  1.
         11    1    3    3    0    0 -0.37762238838E+02  0.61784256042E+01  0.20625783858E+02  0.43469329245E+02  0.51100000000E-03 0. -1.
        -11    1    3    3    0    0  0.29384939400E+01 -0.56064361379E+01 -0.97045477943E+00  0.64038000862E+01  0.51100000000E-03 0.  1.
        -12    1    3    3    0    0  0.35508666530E+02 -0.46141266524E+00 -0.18700537754E+02  0.40134628598E+02  0.00000000000E+00 0.  1.
</event>
<event>
 7    1  0.1756449E-015  0.9000775E+02  0.7816164E-02  0.1186339E+00
        -11   -1    0    0    0    0  0.00000000000E+00  0.00000000000E+00  0.45593999997E+02  0.45594000000E+02  0.51100000000E-03 0. -1.
         11   -1    0    0    0    0 -0.00000000000E+00 -0.00000000000E+00 -0.45593999997E+02  0.45594000000E+02  0.51100000000E-03 0.  1.
    9900012    2    1    2    0    0 -0.35523144598E-01 -0.10890022558E+01 -0.45366231628E+00  0.90007746932E+02  0.90000008392E+02 0.  0.
        -12    1    1    2    0    0  0.35523144598E-01  0.10890022558E+01  0.45366231628E+00  0.11802530678E+01  0.00000000000E+00 0.  1.
         11    1    3    3    0    0  0.10577873136E+02  0.35954271715E+01  0.66449266575E+01  0.12998982544E+02  0.51100000000E-03 0. -1.
        -11    1    3    3    0    0 -0.40483330993E+02  0.80300567638E+01  0.65580074762E+01  0.41789823669E+02  0.51100000000E-03 0.  1.
         12    1    3    3    0    0  0.29869934713E+02 -0.12714486191E+02 -0.13656596450E+02  0.35218940720E+02  0.00000000000E+00 0. -1.
</event>
<event>
 7    1  0.1756449E-015  0.9000771E+02  0.7816164E-02  0.1186339E+00
        -11   -1    0    0    0    0  0.00000000000E+00  0.00000000000E+00  0.45593999997E+02  0.45594000000E+02  0.51100000000E-03 0.  1.
         11   -1    0    0    0    0 -0.00000000000E+00 -0.00000000000E+00 -0.45593999997E+02  0.45594000000E+02  0.51100000000E-03 0. -1.
    9900012    2    1    2    0    0 -0.57421969378E+00  0.65070347176E+00 -0.79997031531E+00  0.90007705219E+02  0.89999966128E+02 0.  0.
        -12    1    1    2    0    0  0.57421969378E+00 -0.65070347176E+00  0.79997031531E+00  0.11802947811E+01  0.00000000000E+00 0.  1.
         11    1    3    3    0    0 -0.34019909232E+01 -0.89621361909E+01  0.82352851232E+01  0.12637774672E+02  0.51100000000E-03 0. -1.
        -11    1    3    3    0    0  0.36555289552E+02  0.12034814135E+02  0.83010613571E+01  0.39370465648E+02  0.51100000000E-03 0.  1.
         12    1    3    3    0    0 -0.33727518322E+02 -0.24219744721E+01 -0.17336316796E+02  0.37999464898E+02  0.00000000000E+00 0. -1.
</event>
<event>
 7    1  0.1756449E-015  0.9000766E+02  0.7816164E-02  0.1186339E+00
        -11   -1    0    0    0    0  0.00000000000E+00  0.00000000000E+00  0.45593999997E+02  0.45594000000E+02  0.51100000000E-03 0. -1.
         11   -1    0    0    0    0 -0.00000000000E+00 -0.00000000000E+00 -0.45593999997E+02  0.45594000000E+02  0.51100000000E-03 0.  1.
    9900012    2    1    2    0    0  0.69150580384E+00 -0.31498818542E+00  0.90321927437E+00  0.90007659841E+02  0.89999920151E+02 0.  0.
        -12    1    1    2    0    0 -0.69150580384E+00  0.31498818542E+00 -0.90321927437E+00  0.11803401591E+01  0.00000000000E+00 0.  1.
         11    1    3    3    0    0  0.30762387139E+02  0.18096465236E+02  0.11026266628E+02  0.37354853400E+02  0.51100000000E-03 0. -1.
        -11    1    3    3    0    0 -0.61229287415E-01  0.10145788501E+02 -0.32982223359E+01  0.10668600853E+02  0.51100000000E-03 0.  1.
        -12    1    3    3    0    0 -0.30009652048E+02 -0.28557241922E+02 -0.68248250179E+01  0.41984205587E+02  0.00000000000E+00 0.  1.
</event>
<event>
 7    1  0.1756449E-015  0.9000694E+02  0.7816164E-02  0.1186341E+00
        -11   -1    0    0    0    0  0.00000000000E+00  0.00000000000E+00  0.45593999997E+02  0.45594000000E+02  0.51100000000E-03 0.  1.
         11   -1    0    0    0    0 -0.00000000000E+00 -0.00000000000E+00 -0.45593999997E+02  0.45594000000E+02  0.51100000000E-03 0. -1.
    9900012    2    1    2    0    0  0.16504681245E+00 -0.11116871063E+01  0.36305887894E+00  0.90006940974E+02  0.89999191791E+02 0.  0.
        -12    1    1    2    0    0 -0.16504681245E+00  0.11116871063E+01 -0.36305887894E+00  0.11810590257E+01  0.00000000000E+00 0.  1.
         11    1    3    3    0    0  0.99721440363E+01  0.10736954770E+00 -0.45522268035E+00  0.99831063727E+01  0.51100000000E-03 0. -1.
        -11    1    3    3    0    0  0.19697053556E+02  0.27031556526E+02  0.15171988903E+02  0.36726941263E+02  0.51100000000E-03 0.  1.
         12    1    3    3    0    0 -0.29504150780E+02 -0.28250613180E+02 -0.14353707344E+02  0.43296893339E+02  0.00000000000E+00 0. -1.
</event>
<event>
 7    1  0.1756449E-015  0.9000782E+02  0.7816164E-02  0.1186339E+00
        -11   -1    0    0    0    0  0.00000000000E+00  0.00000000000E+00  0.45593999997E+02  0.45594000000E+02  0.51100000000E-03 0. -1.
         11   -1    0    0    0    0 -0.00000000000E+00 -0.00000000000E+00 -0.45593999997E+02  0.45594000000E+02  0.51100000000E-03 0.  1.
    9900012    2    1    2    0    0  0.77615582554E+00 -0.81902752688E+00  0.34583408483E+00  0.90007819857E+02  0.90000082279E+02 0.  0.
        -12    1    1    2    0    0 -0.77615582554E+00  0.81902752688E+00 -0.34583408483E+00  0.11801801428E+01  0.00000000000E+00 0.  1.
         11    1    3    3    0    0  0.25964927742E+01  0.28642411786E+02  0.93023765392E+01  0.30226871111E+02  0.51100000000E-03 0. -1.
        -11    1    3    3    0    0  0.17889236696E+01  0.13629478295E+02 -0.91955644282E+01  0.16538480339E+02  0.51100000000E-03 0.  1.
        -12    1    3    3    0    0 -0.36092606183E+01 -0.43090917608E+02  0.23902197379E+00  0.43242468408E+02  0.00000000000E+00 0.  1.
</event>
<event>
 7    1  0.1756449E-015  0.9000776E+02  0.7816164E-02  0.1186339E+00
        -11   -1    0    0    0    0  0.00000000000E+00  0.00000000000E+00  0.45593999997E+02  0.45594000000E+02  0.51100000000E-03 0.  1.
         11   -1    0    0    0    0 -0.00000000000E+00 -0.00000000000E+00 -0.45593999997E+02  0.45594000000E+02  0.51100000000E-03 0. -1.
    9900012    2    1    2    0    0  0.38340889110E-01  0.83354444554E+00 -0.83468051947E+00  0.90007763610E+02  0.90000025290E+02 0.  0.
        -12    1    1    2    0    0 -0.38340889110E-01 -0.83354444554E+00  0.83468051947E+00  0.11802363899E+01  0.00000000000E+00 0.  1.
         11    1    3    3    0    0 -0.50998641640E+01  0.48512883047E+01 -0.34319477905E+01  0.78308287304E+01  0.51100000000E-03 0. -1.
        -11    1    3    3    0    0 -0.14227016622E+02  0.35253066850E+02  0.49021355443E+01  0.38330375128E+02  0.51100000000E-03 0.  1.
         12    1    3    3    0    0  0.19365221675E+02 -0.39270810710E+02 -0.23048682732E+01  0.43846559752E+02  0.00000000000E+00 0. -1.
</event>
<event>
 7    1  0.1756449E-015  0.9000773E+02  0.7816164E-02  0.1186339E+00
        -11   -1    0    0    0    0  0.00000000000E+00  0.00000000000E+00  0.45593999997E+02  0.45594000000E+02  0.51100000000E-03 0. -1.
         11   -1    0    0    0    0 -0.00000000000E+00 -0.00000000000E+00 -0.45593999997E+02  0.45594000000E+02  0.51100000000E-03 0.  1.
    9900012    2    1    2    0    0 -0.31053237349E+00 -0.95499209837E+00  0.62015167798E+00  0.90007733773E+02  0.89999995059E+02 0.  0.
        -12    1    1    2    0    0  0.31053237349E+00  0.95499209837E+00 -0.62015167798E+00  0.11802662270E+01  0.00000000000E+00 0.  1.
         11    1    3    3    0    0  0.25043213951E+02  0.13206005339E+01  0.23346076352E+02  0.34262892932E+02  0.51100000000E-03 0. -1.
        -11    1    3    3    0    0  0.86162919518E+01 -0.69938577099E+01  0.44806139161E+01  0.11967891794E+02  0.51100000000E-03 0.  1.
        -12    1    3    3    0    0 -0.33970038276E+02  0.47182650777E+01 -0.27206538590E+02  0.43776949047E+02  0.00000000000E+00 0.  1.
</event>
<event>
 7    1  0.1756449E-015  0.9000773E+02  0.7816164E-02  0.1186339E+00
        -11   -1    0    0    0    0  0.00000000000E+00  0.00000000000E+00  0.45593999997E+02  0.45594000000E+02  0.51100000000E-03 0. -1.
         11   -1    0    0    0    0 -0.00000000000E+00 -0.00000000000E+00 -0.45593999997E+02  0.45594000000E+02  0.51100000000E-03 0.  1.
    9900012    2    1    2    0    0  0.45977264287E+00  0.10137975464E+01  0.39224182190E+00  0.90007733083E+02  0.89999994360E+02 0.  0.
        -12    1    1    2    0    0 -0.45977264287E+00 -0.10137975464E+01 -0.39224182190E+00  0.11802669169E+01  0.00000000000E+00 0.  1.
         11    1    3    3    0    0  0.27170885089E+02  0.24779682239E+02  0.10489292500E+02  0.38240226278E+02  0.51100000000E-03 0. -1.
        -11    1    3    3    0    0 -0.34976086860E+00  0.84992761872E+01 -0.47999244283E+01  0.97672566850E+01  0.51100000000E-03 0.  1.
        -12    1    3    3    0    0 -0.26361351578E+02 -0.32265160880E+02 -0.52971262503E+01  0.42000250120E+02  0.00000000000E+00 0.  1.
</event>
<event>
 7    1  0.1756449E-015  0.9000776E+02  0.7816164E-02  0.1186339E+00
        -11   -1    0    0    0    0  0.00000000000E+00  0.00000000000E+00  0.45593999997E+02  0.45594000000E+02  0.51100000000E-03 0. -1.
         11   -1    0    0    0    0 -0.00000000000E+00 -0.00000000000E+00 -0.45593999997E+02  0.45594000000E+02  0.51100000000E-03 0.  1.
    9900012    2    1    2    0    0 -0.65967557068E-02 -0.56141619634E+00  0.10381435656E+01  0.90007756921E+02  0.90000018512E+02 0.  0.
        -12    1    1    2    0    0  0.65967557068E-02  0.56141619634E+00 -0.10381435656E+01  0.11802430790E+01  0.00000000000E+00 0.  1.
         11    1    3    3    0    0 -0.33236129898E+02  0.16068101044E+01  0.16305529652E+02  0.37055262336E+02  0.51100000000E-03 0. -1.
        -11    1    3    3    0    0 -0.78227508715E+00  0.34571953296E+01  0.97390996981E+01  0.10364083030E+02  0.51100000000E-03 0.  1.
        -12    1    3    3    0    0  0.34011808229E+02 -0.56254216303E+01 -0.25006485784E+02  0.42588411555E+02  0.00000000000E+00 0.  1.
</event>
<event>
 7    1  0.1756449E-015  0.9000785E+02  0.7816164E-02  0.1186339E+00
        -11   -1    0    0    0    0  0.00000000000E+00  0.00000000000E+00  0.45593999997E+02  0.45594000000E+02  0.51100000000E-03 0.  1.
         11   -1    0    0    0    0 -0.00000000000E+00 -0.00000000000E+00 -0.45593999997E+02  0.45594000000E+02  0.51100000000E-03 0. -1.
    9900012    2    1    2    0    0  0.27889796562E-01  0.16532493589E+00 -0.11681794921E+01  0.90007850221E+02  0.90000113044E+02 0.  0.
        -12    1    1    2    0    0 -0.27889796562E-01 -0.16532493589E+00  0.11681794921E+01  0.11801497790E+01  0.00000000000E+00 0.  1.
         11    1    3    3    0    0 -0.30453691178E+02 -0.44855163033E+01  0.22592329570E+02  0.38183249188E+02  0.51100000000E-03 0. -1.
        -11    1    3    3    0    0 -0.57476287869E+01  0.54796415133E+01 -0.10655430319E+02  0.13289089635E+02  0.51100000000E-03 0.  1.
        -12    1    3    3    0    0  0.36229209761E+02 -0.82880027413E+00 -0.13105078743E+02  0.38535511398E+02  0.00000000000E+00 0.  1.
</event>
<event>
 7    1  0.1756449E-015  0.9000819E+02  0.7816164E-02  0.1186338E+00
        -11   -1    0    0    0    0  0.00000000000E+00  0.00000000000E+00  0.45593999997E+02  0.45594000000E+02  0.51100000000E-03 0.  1.
         11   -1    0    0    0    0 -0.00000000000E+00 -0.00000000000E+00 -0.45593999997E+02  0.45594000000E+02  0.51100000000E-03 0. -1.
    9900012    2    1    2    0    0 -0.57711938805E+00  0.80186244743E+00  0.64490551730E+00  0.90008189295E+02  0.90000456593E+02 0.  0.
        -12    1    1    2    0    0  0.57711938805E+00 -0.80186244743E+00 -0.64490551730E+00  0.11798107047E+01  0.00000000000E+00 0.  1.
         11    1    3    3    0    0 -0.10874077201E+02 -0.86856642253E+00 -0.97564494567E+00  0.10952253007E+02  0.51100000000E-03 0. -1.
        -11    1    3    3    0    0 -0.25976519641E+02  0.13460243783E+02 -0.19784907744E+02  0.35318554756E+02  0.51100000000E-03 0.  1.
         12    1    3    3    0    0  0.36273477454E+02 -0.11789814913E+02  0.21405458207E+02  0.43737381533E+02  0.00000000000E+00 0. -1.
</event>
<event>
 7    1  0.1756449E-015  0.9000767E+02  0.7816164E-02  0.1186339E+00
        -11   -1    0    0    0    0  0.00000000000E+00  0.00000000000E+00  0.45593999997E+02  0.45594000000E+02  0.51100000000E-03 0. -1.
         11   -1    0    0    0    0 -0.00000000000E+00 -0.00000000000E+00 -0.45593999997E+02  0.45594000000E+02  0.51100000000E-03 0.  1.
    9900012    2    1    2    0    0  0.17122433877E-01 -0.33485100909E+00  0.11317041478E+01  0.90007672650E+02  0.89999933129E+02 0.  0.
        -12    1    1    2    0    0 -0.17122433877E-01  0.33485100909E+00 -0.11317041478E+01  0.11803273504E+01  0.00000000000E+00 0.  1.
         11    1    3    3    0    0 -0.23360318269E+02 -0.28483116035E+02 -0.18103192601E+02  0.41045315826E+02  0.51100000000E-03 0. -1.
        -11    1    3    3    0    0 -0.46715801872E+01  0.79091164160E+01 -0.39032490364E+00  0.91940272850E+01  0.51100000000E-03 0.  1.
        -12    1    3    3    0    0  0.28049020890E+02  0.20239148610E+02  0.19625221653E+02  0.39768329538E+02  0.00000000000E+00 0.  1.
</event>
<event>
 7    1  0.1756449E-015  0.9000768E+02  0.7816164E-02  0.1186339E+00
        -11   -1    0    0    0    0  0.00000000000E+00  0.00000000000E+00  0.45593999997E+02  0.45594000000E+02  0.51100000000E-03 0.  1.
         11   -1    0    0    0    0 -0.00000000000E+00 -0.00000000000E+00 -0.45593999997E+02  0.45594000000E+02  0.51100000000E-03 0. -1.
    9900012    2    1    2    0    0  0.11275389678E+01 -0.29431698183E+00 -0.18758575607E+00  0.90007680117E+02  0.89999940695E+02 0.  0.
        -12    1    1    2    0    0 -0.11275389678E+01  0.29431698183E+00  0.18758575607E+00  0.11803198827E+01  0.00000000000E+00 0.  1.
         11    1    3    3    0    0 -0.17262208161E+02 -0.10964970094E+02 -0.30745944191E+02  0.36925973030E+02  0.51100000000E-03 0. -1.
        -11    1    3    3    0    0 -0.69689897768E+01  0.18220785264E+01 -0.48171980863E+01  0.86655747835E+01  0.51100000000E-03 0.  1.
        -12    1    3    3    0    0  0.25358736906E+02  0.88485745857E+01  0.35375556521E+02  0.44416132304E+02  0.00000000000E+00 0.  1.
</event>
<event>
 7    1  0.1756449E-015  0.9000780E+02  0.7816164E-02  0.1186339E+00
        -11   -1    0    0    0    0  0.00000000000E+00  0.00000000000E+00  0.45593999997E+02  0.45594000000E+02  0.51100000000E-03 0. -1.
         11   -1    0    0    0    0 -0.00000000000E+00 -0.00000000000E+00 -0.45593999997E+02  0.45594000000E+02  0.51100000000E-03 0.  1.
    9900012    2    1    2    0    0  0.29201507643E+00  0.11325437222E+01  0.15792231522E+00  0.90007801904E+02  0.90000064089E+02 0.  0.
        -12    1    1    2    0    0 -0.29201507643E+00 -0.11325437222E+01 -0.15792231522E+00  0.11801980957E+01  0.00000000000E+00 0.  1.
         11    1    3    3    0    0 -0.21220800298E+01  0.27026540817E+02  0.31590115649E+02  0.41627785663E+02  0.51100000000E-03 0. -1.
        -11    1    3    3    0    0  0.75585219711E+01 -0.28505262433E+01  0.11318706181E+01  0.81570758001E+01  0.51100000000E-03 0.  1.
        -12    1    3    3    0    0 -0.51444268649E+01 -0.23043470851E+02 -0.32564063952E+02  0.40222940441E+02  0.00000000000E+00 0.  1.
</event>
<event>
 7    1  0.1756449E-015  0.9000779E+02  0.7816164E-02  0.1186339E+00
        -11   -1    0    0    0    0  0.00000000000E+00  0.00000000000E+00  0.45593999997E+02  0.45594000000E+02  0.51100000000E-03 0. -1.
         11   -1    0    0    0    0 -0.00000000000E+00 -0.00000000000E+00 -0.45593999997E+02  0.45594000000E+02  0.51100000000E-03 0.  1.
    9900012    2    1    2    0    0  0.89641807004E+00  0.66183037232E+00  0.38898424646E+00  0.90007790891E+02  0.90000052930E+02 0.  0.
        -12    1    1    2    0    0 -0.89641807004E+00 -0.66183037232E+00 -0.38898424646E+00  0.11802091094E+01  0.00000000000E+00 0.  1.
         11    1    3    3    0    0  0.36814723903E+02 -0.94221069573E+01  0.46580600423E+01  0.38285735192E+02  0.51100000000E-03 0. -1.
        -11    1    3    3    0    0  0.11560731127E+01 -0.81398835812E+01  0.46692033189E+01  0.94549283261E+01  0.51100000000E-03 0.  1.
        -12    1    3    3    0    0 -0.37074378946E+02  0.18223820911E+02 -0.89382791148E+01  0.42267127373E+02  0.00000000000E+00 0.  1.
</event>
<event>
 7    1  0.2161677E-015  0.9000800E+02  0.7816164E-02  0.1186339E+00
        -11   -1    0    0    0    0  0.00000000000E+00  0.00000000000E+00  0.45593999997E+02  0.45594000000E+02  0.51100000000E-03 0. -1.
         11   -1    0    0    0    0 -0.00000000000E+00 -0.00000000000E+00 -0.45593999997E+02  0.45594000000E+02  0.51100000000E-03 0.  1.
    9900012    2    1    2    0    0 -0.53585801221E+00  0.48668269807E+00  0.93187664277E+00  0.90008000875E+02  0.90000265686E+02 0.  0.
        -12    1    1    2    0    0  0.53585801221E+00 -0.48668269807E+00 -0.93187664277E+00  0.11799991251E+01  0.00000000000E+00 0.  1.
         11    1    3    3    0    0  0.22584543246E+00 -0.84224211746E+01  0.21625857825E+01  0.86985609230E+01  0.51100000000E-03 0. -1.
        -11    1    3    3    0    0 -0.15323002096E+02  0.85316595489E+01 -0.37949996844E+02  0.41806529019E+02  0.51100000000E-03 0.  1.
         12    1    3    3    0    0  0.14561298651E+02  0.37744432386E+00  0.36719287705E+02  0.39502910933E+02  0.00000000000E+00 0. -1.
</event>
<event>
 7    1  0.1756449E-015  0.9000769E+02  0.7816164E-02  0.1186339E+00
        -11   -1    0    0    0    0  0.00000000000E+00  0.00000000000E+00  0.45593999997E+02  0.45594000000E+02  0.51100000000E-03 0.  1.
         11   -1    0    0    0    0 -0.00000000000E+00 -0.00000000000E+00 -0.45593999997E+02  0.45594000000E+02  0.51100000000E-03 0. -1.
    9900012    2    1    2    0    0  0.45498137110E+00 -0.73920153345E+00 -0.79980881384E+00  0.90007694491E+02  0.89999955259E+02 0.  0.
        -12    1    1    2    0    0 -0.45498137110E+00  0.73920153345E+00  0.79980881384E+00  0.11803055087E+01  0.00000000000E+00 0.  1.
         11    1    3    3    0    0  0.25348160638E+01 -0.39722049067E+02  0.53899061287E+01  0.40166124569E+02  0.51100000000E-03 0. -1.
        -11    1    3    3    0    0  0.85827641956E+01  0.70265142553E+00 -0.52648309655E+01  0.10093364435E+02  0.51100000000E-03 0.  1.
        -12    1    3    3    0    0 -0.10662598888E+02  0.38280196108E+02 -0.92488397702E+00  0.39748205487E+02  0.00000000000E+00 0.  1.
</event>
<event>
 7    1  0.1756449E-015  0.9000800E+02  0.7816164E-02  0.1186339E+00
        -11   -1    0    0    0    0  0.00000000000E+00  0.00000000000E+00  0.45593999997E+02  0.45594000000E+02  0.51100000000E-03 0. -1.
         11   -1    0    0    0    0 -0.00000000000E+00 -0.00000000000E+00 -0.45593999997E+02  0.45594000000E+02  0.51100000000E-03 0.  1.
    9900012    2    1    2    0    0 -0.81017095742E+00  0.48512038035E+00 -0.70758643501E+00  0.90008001133E+02  0.90000265947E+02 0.  0.
        -12    1    1    2    0    0  0.81017095742E+00 -0.48512038035E+00  0.70758643501E+00  0.11799988672E+01  0.00000000000E+00 0.  1.
         11    1    3    3    0    0 -0.84014753264E+01 -0.37295113146E+01 -0.38539931637E+01  0.99673118680E+01  0.51100000000E-03 0. -1.
        -11    1    3    3    0    0 -0.35606614857E+02 -0.40058200521E+01  0.40415608943E+01  0.36058450197E+02  0.51100000000E-03 0.  1.
         12    1    3    3    0    0  0.43197919226E+02  0.82204517471E+01 -0.89515416553E+00  0.43982239068E+02  0.00000000000E+00 0. -1.
</event>
<event>
 7    1  0.1756449E-015  0.9000774E+02  0.7816164E-02  0.1186339E+00
        -11   -1    0    0    0    0  0.00000000000E+00  0.00000000000E+00  0.45593999997E+02  0.45594000000E+02  0.51100000000E-03 0. -1.
         11   -1    0    0    0    0 -0.00000000000E+00 -0.00000000000E+00 -0.45593999997E+02  0.45594000000E+02  0.51100000000E-03 0.  1.
    9900012    2    1    2    0    0 -0.99158034738E+00 -0.88013538134E-01  0.63406965991E+00  0.90007736342E+02  0.89999997662E+02 0.  0.
        -12    1    1    2    0    0  0.99158034738E+00  0.88013538134E-01 -0.63406965991E+00  0.11802636578E+01  0.00000000000E+00 0.  1.
         11    1    3    3    0    0 -0.23411419250E+01  0.39736188697E+02  0.57566623344E+01  0.40219209330E+02  0.51100000000E-03 0. -1.
        -11    1    3    3    0    0 -0.92689929150E+00  0.47726086793E+01 -0.76396116147E+00  0.49214401165E+01  0.51100000000E-03 0.  1.
        -12    1    3    3    0    0  0.22764608691E+01 -0.44596810914E+02 -0.43586315130E+01  0.44867086895E+02  0.00000000000E+00 0.  1.
</event>
<event>
 7    1  0.1756449E-015  0.9000774E+02  0.7816164E-02  0.1186339E+00
        -11   -1    0    0    0    0  0.00000000000E+00  0.00000000000E+00  0.45593999997E+02  0.45594000000E+02  0.51100000000E-03 0.  1.
         11   -1    0    0    0    0 -0.00000000000E+00 -0.00000000000E+00 -0.45593999997E+02  0.45594000000E+02  0.51100000000E-03 0. -1.
    9900012    2    1    2    0    0 -0.85490960810E+00 -0.69858287381E-01 -0.81071708599E+00  0.90007740363E+02  0.90000001735E+02 0.  0.
        -12    1    1    2    0    0  0.85490960810E+00  0.69858287381E-01  0.81071708599E+00  0.11802596375E+01  0.00000000000E+00 0.  1.
         11    1    3    3    0    0  0.61673395852E+01  0.79022664838E+01  0.42636962120E+01  0.10893162938E+02  0.51100000000E-03 0. -1.
        -11    1    3    3    0    0  0.54084049762E+01  0.29917434124E+02  0.15628451439E+02  0.34184092844E+02  0.51100000000E-03 0.  1.
         12    1    3    3    0    0 -0.12430654169E+02 -0.37889558895E+02 -0.20702864737E+02  0.44930484581E+02  0.00000000000E+00 0. -1.
</event>
<event>
 7    1  0.1756449E-015  0.9000724E+02  0.7816164E-02  0.1186340E+00
        -11   -1    0    0    0    0  0.00000000000E+00  0.00000000000E+00  0.45593999997E+02  0.45594000000E+02  0.51100000000E-03 0.  1.
         11   -1    0    0    0    0 -0.00000000000E+00 -0.00000000000E+00 -0.45593999997E+02  0.45594000000E+02  0.51100000000E-03 0. -1.
    9900012    2    1    2    0    0  0.19867842037E+00  0.11638390216E+01 -0.14379764935E-01  0.90007237043E+02  0.89999491771E+02 0.  0.
        -12    1    1    2    0    0 -0.19867842037E+00 -0.11638390216E+01  0.14379764935E-01  0.11807629570E+01  0.00000000000E+00 0.  1.
         11    1    3    3    0    0 -0.63248321452E+01 -0.35566491467E+01  0.42833707054E+01  0.84261806104E+01  0.51100000000E-03 0. -1.
        -11    1    3    3    0    0 -0.37327654303E+02  0.27895656442E-01 -0.71948329097E+00  0.37334598034E+02  0.51100000000E-03 0.  1.
         12    1    3    3    0    0  0.43851164868E+02  0.46925925119E+01 -0.35782671794E+01  0.44246458398E+02  0.00000000000E+00 0. -1.
</event>
<event>
 7    1  0.1756449E-015  0.9000782E+02  0.7816164E-02  0.1186339E+00
        -11   -1    0    0    0    0  0.00000000000E+00  0.00000000000E+00  0.45593999997E+02  0.45594000000E+02  0.51100000000E-03 0. -1.
         11   -1    0    0    0    0 -0.00000000000E+00 -0.00000000000E+00 -0.45593999997E+02  0.45594000000E+02  0.51100000000E-03 0.  1.
    9900012    2    1    2    0    0 -0.21995280879E+00 -0.65032593750E+00  0.95996447976E+00  0.90007815749E+02  0.90000078117E+02 0.  0.
        -12    1    1    2    0    0  0.21995280879E+00  0.65032593750E+00 -0.95996447976E+00  0.11801842506E+01  0.00000000000E+00 0.  1.
         11    1    3    3    0    0  0.24672496815E+02  0.31849294782E+02  0.97297055674E+01  0.41446071561E+02  0.51100000000E-03 0. -1.
        -11    1    3    3    0    0 -0.20235740762E+01 -0.85376297961E+01  0.76055128352E+01  0.11611623501E+02  0.51100000000E-03 0.  1.
        -12    1    3    3    0    0 -0.22868875547E+02 -0.23961990923E+02 -0.16375253923E+02  0.36950120688E+02  0.00000000000E+00 0.  1.
</event>
<event>
 7    1  0.1756449E-015  0.9000773E+02  0.7816164E-02  0.1186339E+00
        -11   -1    0    0    0    0  0.00000000000E+00  0.00000000000E+00  0.45593999997E+02  0.45594000000E+02  0.51100000000E-03 0.  1.
         11   -1    0    0    0    0 -0.00000000000E+00 -0.00000000000E+00 -0.45593999997E+02  0.45594000000E+02  0.51100000000E-03 0. -1.
    9900012    2    1    2    0    0 -0.48773226881E+00  0.36893895132E+00 -0.10094685807E+01  0.90007734974E+02  0.89999996276E+02 0.  0.
        -12    1    1    2    0    0  0.48773226881E+00 -0.36893895132E+00  0.10094685807E+01  0.11802650258E+01  0.00000000000E+00 0.  1.
         11    1    3    3    0    0 -0.20247968581E+02 -0.24245357264E+02 -0.22951128421E+02  0.39045766435E+02  0.51100000000E-03 0. -1.
        -11    1    3    3    0    0 -0.49291201781E+01  0.36809701897E+01 -0.57073209980E+01  0.83916196591E+01  0.51100000000E-03 0.  1.
        -12    1    3    3    0    0  0.24689356490E+02  0.20933326025E+02  0.27648980838E+02  0.42570348880E+02  0.00000000000E+00 0.  1.
</event>
<event>
 7    1  0.1756449E-015  0.9000803E+02  0.7816164E-02  0.1186338E+00
        -11   -1    0    0    0    0  0.00000000000E+00  0.00000000000E+00  0.45593999997E+02  0.45594000000E+02  0.51100000000E-03 0.  1.
         11   -1    0    0    0    0 -0.00000000000E+00 -0.00000000000E+00 -0.45593999997E+02  0.45594000000E+02  0.51100000000E-03 0. -1.
    9900012    2    1    2    0    0 -0.84735228576E+00  0.41854567654E+00 -0.70649401427E+00  0.90008033826E+02  0.90000299072E+02 0.  0.
        -12    1    1    2    0    0  0.84735228576E+00 -0.41854567654E+00  0.70649401427E+00  0.11799661740E+01  0.00000000000E+00 0.  1.
         11    1    3    3    0    0  0.40483191244E+02  0.23434041105E+01 -0.14148478149E+01  0.40575634446E+02  0.51100000000E-03 0. -1.
        -11    1    3    3    0    0 -0.22269492207E+01 -0.87932064542E+01 -0.30081830510E+01  0.95566180267E+01  0.51100000000E-03 0.  1.
        -12    1    3    3    0    0 -0.39103594309E+02  0.68683480203E+01  0.37165368516E+01  0.39875781353E+02  0.00000000000E+00 0.  1.
</event>
<event>
 7    1  0.1756449E-015  0.9000774E+02  0.7816164E-02  0.1186339E+00
        -11   -1    0    0    0    0  0.00000000000E+00  0.00000000000E+00  0.45593999997E+02  0.45594000000E+02  0.51100000000E-03 0.  1.
         11   -1    0    0    0    0 -0.00000000000E+00 -0.00000000000E+00 -0.45593999997E+02  0.45594000000E+02  0.51100000000E-03 0. -1.
    9900012    2    1    2    0    0  0.76281589174E+00 -0.26770264340E+00 -0.85991674991E+00  0.90007741720E+02  0.90000003111E+02 0.  0.
        -12    1    1    2    0    0 -0.76281589174E+00  0.26770264340E+00  0.85991674991E+00  0.11802582797E+01  0.00000000000E+00 0.  1.
         11    1    3    3    0    0 -0.62066886365E+01  0.62080645235E+01 -0.38853785585E+02  0.39833148300E+02  0.51100000000E-03 0. -1.
        -11    1    3    3    0    0 -0.80425851870E+01  0.18649153466E+01 -0.24151848557E+00  0.82595046571E+01  0.51100000000E-03 0.  1.
        -12    1    3    3    0    0  0.15012089715E+02 -0.83406825135E+01  0.38235387321E+02  0.41915088763E+02  0.00000000000E+00 0.  1.
</event>
<event>
 7    1  0.1756449E-015  0.9000772E+02  0.7816164E-02  0.1186339E+00
        -11   -1    0    0    0    0  0.00000000000E+00  0.00000000000E+00  0.45593999997E+02  0.45594000000E+02  0.51100000000E-03 0.  1.
         11   -1    0    0    0    0 -0.00000000000E+00 -0.00000000000E+00 -0.45593999997E+02  0.45594000000E+02  0.51100000000E-03 0. -1.
    9900012    2    1    2    0    0 -0.11647725151E+01  0.38457341315E-01  0.18679306299E+00  0.90007717988E+02  0.89999979066E+02 0.  0.
        -12    1    1    2    0    0  0.11647725151E+01 -0.38457341315E-01 -0.18679306299E+00  0.11802820118E+01  0.00000000000E+00 0.  1.
         11    1    3    3    0    0  0.41246666977E+01 -0.29737708040E+01 -0.77202020856E+01  0.92443338681E+01  0.51100000000E-03 0. -1.
        -11    1    3    3    0    0  0.17541314141E+02 -0.33013735926E+02 -0.56505634468E-02  0.37384548864E+02  0.51100000000E-03 0.  1.
         12    1    3    3    0    0 -0.22830753354E+02  0.36025964071E+02  0.79126457121E+01  0.43378835256E+02  0.00000000000E+00 0. -1.
</event>
<event>
 7    1  0.1756449E-015  0.9000648E+02  0.7816164E-02  0.1186342E+00
        -11   -1    0    0    0    0  0.00000000000E+00  0.00000000000E+00  0.45593999997E+02  0.45594000000E+02  0.51100000000E-03 0.  1.
         11   -1    0    0    0    0 -0.00000000000E+00 -0.00000000000E+00 -0.45593999997E+02  0.45594000000E+02  0.51100000000E-03 0. -1.
    9900012    2    1    2    0    0 -0.92915142149E+00 -0.65860247136E-01 -0.72686402586E+00  0.90006479265E+02  0.89998723982E+02 0.  0.
        -12    1    1    2    0    0  0.92915142149E+00  0.65860247136E-01  0.72686402586E+00  0.11815207355E+01  0.00000000000E+00 0.  1.
         11    1    3    3    0    0  0.10443679516E+01 -0.87896519567E+01  0.11787107842E+01  0.89296161907E+01  0.51100000000E-03 0. -1.
        -11    1    3    3    0    0  0.35765257009E+02 -0.94134780444E+01  0.84671827975E+01  0.37940220908E+02  0.51100000000E-03 0.  1.
         12    1    3    3    0    0 -0.37738776382E+02  0.18137269754E+02 -0.10372757608E+02  0.43136642165E+02  0.00000000000E+00 0. -1.
</event>
<event>
 7    1  0.1756449E-015  0.9000764E+02  0.7816164E-02  0.1186339E+00
        -11   -1    0    0    0    0  0.00000000000E+00  0.00000000000E+00  0.45593999997E+02  0.45594000000E+02  0.51100000000E-03 0.  1.
         11   -1    0    0    0    0 -0.00000000000E+00 -0.00000000000E+00 -0.45593999997E+02  0.45594000000E+02  0.51100000000E-03 0. -1.
    9900012    2    1    2    0    0 -0.10383355170E+01  0.47346852829E+00 -0.30155093773E+00  0.90007641554E+02  0.89999901622E+02 0.  0.
        -12    1    1    2    0    0  0.10383355170E+01 -0.47346852829E+00  0.30155093773E+00  0.11803584461E+01  0.00000000000E+00 0.  1.
         11    1    3    3    0    0 -0.70192911798E+01  0.59620860933E+01  0.26357881275E+01  0.95793683803E+01  0.51100000000E-03 0. -1.
        -11    1    3    3    0    0 -0.15885580715E+02  0.18038035068E+02  0.27259710832E+02  0.36343007837E+02  0.51100000000E-03 0.  1.
         12    1    3    3    0    0  0.21866536378E+02 -0.23526652633E+02 -0.30197049897E+02  0.44085265336E+02  0.00000000000E+00 0. -1.
</event>
<event>
 7    1  0.1756449E-015  0.9000768E+02  0.7816164E-02  0.1186339E+00
        -11   -1    0    0    0    0  0.00000000000E+00  0.00000000000E+00  0.45593999997E+02  0.45594000000E+02  0.51100000000E-03 0.  1.
         11   -1    0    0    0    0 -0.00000000000E+00 -0.00000000000E+00 -0.45593999997E+02  0.45594000000E+02  0.51100000000E-03 0. -1.
    9900012    2    1    2    0    0  0.56433271588E-04  0.11729984871E+01 -0.13127656010E+00  0.90007678438E+02  0.89999938994E+02 0.  0.
        -12    1    1    2    0    0 -0.56433271598E-04 -0.11729984871E+01  0.13127656010E+00  0.11803215618E+01  0.00000000000E+00 0.  1.
         11    1    3    3    0    0 -0.70440632978E+01  0.26886515654E+01  0.56767287498E+01  0.94378453337E+01  0.51100000000E-03 0. -1.
        -11    1    3    3    0    0 -0.25153183104E+02  0.25231300924E+02  0.79606001736E+01  0.36505784774E+02  0.51100000000E-03 0.  1.
         12    1    3    3    0    0  0.32197302835E+02 -0.26746954002E+02 -0.13768605483E+02  0.44064048330E+02  0.00000000000E+00 0. -1.
</event>
<event>
 7    1  0.1756449E-015  0.9000759E+02  0.7816164E-02  0.1186339E+00
        -11   -1    0    0    0    0  0.00000000000E+00  0.00000000000E+00  0.45593999997E+02  0.45594000000E+02  0.51100000000E-03 0.  1.
         11   -1    0    0    0    0 -0.00000000000E+00 -0.00000000000E+00 -0.45593999997E+02  0.45594000000E+02  0.51100000000E-03 0. -1.
    9900012    2    1    2    0    0  0.78668473125E-01  0.98963328166E+00 -0.63860418615E+00  0.90007585637E+02  0.89999844968E+02 0.  0.
        -12    1    1    2    0    0 -0.78668473125E-01 -0.98963328166E+00  0.63860418615E+00  0.11804143626E+01  0.00000000000E+00 0.  1.
         11    1    3    3    0    0  0.80899066168E+01 -0.29743310946E+01  0.10977117814E+02  0.13956731361E+02  0.51100000000E-03 0. -1.
        -11    1    3    3    0    0  0.13238446307E+02  0.33152160969E+02  0.54593191274E+01  0.36112690333E+02  0.51100000000E-03 0.  1.
         12    1    3    3    0    0 -0.21249684451E+02 -0.29188196592E+02 -0.17075041128E+02  0.39938163943E+02  0.00000000000E+00 0. -1.
</event>
<event>
 7    1  0.1756449E-015  0.9000797E+02  0.7816164E-02  0.1186339E+00
        -11   -1    0    0    0    0  0.00000000000E+00  0.00000000000E+00  0.45593999997E+02  0.45594000000E+02  0.51100000000E-03 0.  1.
         11   -1    0    0    0    0 -0.00000000000E+00 -0.00000000000E+00 -0.45593999997E+02  0.45594000000E+02  0.51100000000E-03 0. -1.
    9900012    2    1    2    0    0 -0.21584660471E+00 -0.78463791561E-02 -0.11600942871E+01  0.90007970307E+02  0.90000234714E+02 0.  0.
        -12    1    1    2    0    0  0.21584660471E+00  0.78463791561E-02  0.11600942871E+01  0.11800296934E+01  0.00000000000E+00 0.  1.
         11    1    3    3    0    0 -0.88005033288E+01 -0.82838897930E-03  0.21611234169E+02  0.23334401687E+02  0.51100000000E-03 0. -1.
        -11    1    3    3    0    0 -0.34663302732E+01 -0.24035528049E+02  0.82300364751E+01  0.25640896139E+02  0.51100000000E-03 0.  1.
         12    1    3    3    0    0  0.12050986997E+02  0.24028510059E+02 -0.31001364931E+02  0.41032672480E+02  0.00000000000E+00 0. -1.
</event>
<event>
 7    1  0.1756449E-015  0.9000784E+02  0.7816164E-02  0.1186339E+00
        -11   -1    0    0    0    0  0.00000000000E+00  0.00000000000E+00  0.45593999997E+02  0.45594000000E+02  0.51100000000E-03 0. -1.
         11   -1    0    0    0    0 -0.00000000000E+00 -0.00000000000E+00 -0.45593999997E+02  0.45594000000E+02  0.51100000000E-03 0.  1.
    9900012    2    1    2    0    0 -0.75589146292E+00 -0.26705536674E+00  0.86607510593E+00  0.90007840451E+02  0.90000103145E+02 0.  0.
        -12    1    1    2    0    0  0.75589146292E+00  0.26705536674E+00 -0.86607510593E+00  0.11801595493E+01  0.00000000000E+00 0.  1.
         11    1    3    3    0    0 -0.35208599769E+02 -0.48924073145E+01  0.32732521309E+01  0.35697273380E+02  0.51100000000E-03 0. -1.
        -11    1    3    3    0    0  0.10653512063E+02  0.19290737378E+02 -0.11573451016E+02  0.24891256227E+02  0.51100000000E-03 0.  1.
        -12    1    3    3    0    0  0.23799196243E+02 -0.14665385430E+02  0.91662739911E+01  0.29419310843E+02  0.00000000000E+00 0.  1.
</event>
<event>
 7    1  0.1756449E-015  0.9000776E+02  0.7816164E-02  0.1186339E+00
        -11   -1    0    0    0    0  0.00000000000E+00  0.00000000000E+00  0.45593999997E+02  0.45594000000E+02  0.51100000000E-03 0. -1.
         11   -1    0    0    0    0 -0.00000000000E+00 -0.00000000000E+00 -0.45593999997E+02  0.45594000000E+02  0.51100000000E-03 0.  1.
    9900012    2    1    2    0    0 -0.11689869984E+01 -0.11345794710E+00  0.11644067980E+00  0.90007761999E+02  0.90000023657E+02 0.  0.
        -12    1    1    2    0    0  0.11689869984E+01  0.11345794710E+00 -0.11644067980E+00  0.11802380014E+01  0.00000000000E+00 0.  1.
         11    1    3    3    0    0 -0.22919536542E+01 -0.81371534511E+00 -0.97435971062E+01  0.10042552915E+02  0.51100000000E-03 0. -1.
        -11    1    3    3    0    0  0.93578106211E+01 -0.38112587635E+02  0.90771441853E+01  0.40280671577E+02  0.51100000000E-03 0.  1.
         12    1    3    3    0    0 -0.82348439652E+01  0.38812845033E+02  0.78289360071E+00  0.39684537507E+02  0.00000000000E+00 0. -1.
</event>
<event>
 7    1  0.1756449E-015  0.9000761E+02  0.7816164E-02  0.1186339E+00
        -11   -1    0    0    0    0  0.00000000000E+00  0.00000000000E+00  0.45593999997E+02  0.45594000000E+02  0.51100000000E-03 0.  1.
         11   -1    0    0    0    0 -0.00000000000E+00 -0.00000000000E+00 -0.45593999997E+02  0.45594000000E+02  0.51100000000E-03 0. -1.
    9900012    2    1    2    0    0  0.62324561237E+00  0.70492735628E+00 -0.71271540216E+00  0.90007609846E+02  0.89999869496E+02 0.  0.
        -12    1    1    2    0    0 -0.62324561237E+00 -0.70492735628E+00  0.71271540216E+00  0.11803901539E+01  0.00000000000E+00 0.  1.
         11    1    3    3    0    0 -0.94219415410E+01  0.51549039193E+01  0.36325665562E+00  0.10746067768E+02  0.51100000000E-03 0. -1.
        -11    1    3    3    0    0  0.32022961239E+01 -0.51935379605E+01  0.38556252727E+02  0.39036036704E+02  0.51100000000E-03 0.  1.
         12    1    3    3    0    0  0.68428910295E+01  0.74356139745E+00 -0.39632224784E+02  0.40225505373E+02  0.00000000000E+00 0. -1.
</event>
<event>
 7    1  0.1756449E-015  0.9000706E+02  0.7816164E-02  0.1186340E+00
        -11   -1    0    0    0    0  0.00000000000E+00  0.00000000000E+00  0.45593999997E+02  0.45594000000E+02  0.51100000000E-03 0. -1.
         11   -1    0    0    0    0 -0.00000000000E+00 -0.00000000000E+00 -0.45593999997E+02  0.45594000000E+02  0.51100000000E-03 0.  1.
    9900012    2    1    2    0    0 -0.13597145938E+00  0.10855468886E+01 -0.44464793940E+00  0.90007063052E+02  0.89999315482E+02 0.  0.
        -12    1    1    2    0    0  0.13597145938E+00 -0.10855468886E+01  0.44464793940E+00  0.11809369480E+01  0.00000000000E+00 0.  1.
         11    1    3    3    0    0  0.28984655185E+01 -0.87883396699E+01  0.41148884741E+02  0.42176613570E+02  0.51100000000E-03 0. -1.
        -11    1    3    3    0    0 -0.89786753144E+01  0.48279504138E+01 -0.69932206469E+01  0.12362477538E+02  0.51100000000E-03 0.  1.
        -12    1    3    3    0    0  0.59442383366E+01  0.50459361447E+01 -0.34600312034E+02  0.35467971944E+02  0.00000000000E+00 0.  1.
</event>
<event>
 7    1  0.1756449E-015  0.9000784E+02  0.7816164E-02  0.1186339E+00
        -11   -1    0    0    0    0  0.00000000000E+00  0.00000000000E+00  0.45593999997E+02  0.45594000000E+02  0.51100000000E-03 0. -1.
         11   -1    0    0    0    0 -0.00000000000E+00 -0.00000000000E+00 -0.45593999997E+02  0.45594000000E+02  0.51100000000E-03 0.  1.
    9900012    2    1    2    0    0 -0.44706259266E+00  0.76360657182E-01  0.10895301034E+01  0.90007842486E+02  0.90000105207E+02 0.  0.
        -12    1    1    2    0    0  0.44706259266E+00 -0.76360657182E-01 -0.10895301034E+01  0.11801575141E+01  0.00000000000E+00 0.  1.
         11    1    3    3    0    0 -0.19935984084E+02  0.14298406514E+02  0.28956624352E+02  0.37952259279E+02  0.51100000000E-03 0. -1.
        -11    1    3    3    0    0  0.49163077129E+01  0.81276010047E+01  0.41610116557E+01  0.10370245797E+02  0.51100000000E-03 0.  1.
        -12    1    3    3    0    0  0.14572613778E+02 -0.22349646862E+02 -0.32028105905E+02  0.41685337410E+02  0.00000000000E+00 0.  1.
</event>
<event>
 7    1  0.1756449E-015  0.9000780E+02  0.7816164E-02  0.1186339E+00
        -11   -1    0    0    0    0  0.00000000000E+00  0.00000000000E+00  0.45593999997E+02  0.45594000000E+02  0.51100000000E-03 0. -1.
         11   -1    0    0    0    0 -0.00000000000E+00 -0.00000000000E+00 -0.45593999997E+02  0.45594000000E+02  0.51100000000E-03 0.  1.
    9900012    2    1    2    0    0  0.36219409323E+00  0.96384312175E+00  0.57679785625E+00  0.90007799216E+02  0.90000061365E+02 0.  0.
        -12    1    1    2    0    0 -0.36219409323E+00 -0.96384312175E+00 -0.57679785625E+00  0.11802007844E+01  0.00000000000E+00 0.  1.
         11    1    3    3    0    0 -0.76752550002E+01  0.27004763385E+02  0.10607600889E+02  0.30011464171E+02  0.51100000000E-03 0. -1.
        -11    1    3    3    0    0  0.42847504591E+01  0.14148870300E+02  0.67887170949E+01  0.16267645722E+02  0.51100000000E-03 0.  1.
        -12    1    3    3    0    0  0.37526986343E+01 -0.40189790563E+02 -0.16819520128E+02  0.43728689323E+02  0.00000000000E+00 0.  1.
</event>
<event>
 7    1  0.1756449E-015  0.9000790E+02  0.7816164E-02  0.1186339E+00
        -11   -1    0    0    0    0  0.00000000000E+00  0.00000000000E+00  0.45593999997E+02  0.45594000000E+02  0.51100000000E-03 0. -1.
         11   -1    0    0    0    0 -0.00000000000E+00 -0.00000000000E+00 -0.45593999997E+02  0.45594000000E+02  0.51100000000E-03 0.  1.
    9900012    2    1    2    0    0 -0.96045522333E+00 -0.39942661674E+00 -0.55734130828E+00  0.90007896110E+02  0.90000159538E+02 0.  0.
        -12    1    1    2    0    0  0.96045522333E+00  0.39942661674E+00  0.55734130828E+00  0.11801038904E+01  0.00000000000E+00 0.  1.
         11    1    3    3    0    0  0.13990973047E+02  0.35636041163E+02 -0.40385303567E+01  0.38496551589E+02  0.51100000000E-03 0. -1.
        -11    1    3    3    0    0  0.84790060484E+01 -0.61006472954E+00  0.30645416604E+01  0.90364339423E+01  0.51100000000E-03 0.  1.
        -12    1    3    3    0    0 -0.23430434318E+02 -0.35425403050E+02  0.41664738804E+00  0.42474910578E+02  0.00000000000E+00 0.  1.
</event>
<event>
 7    1  0.1756449E-015  0.9000784E+02  0.7816164E-02  0.1186339E+00
        -11   -1    0    0    0    0  0.00000000000E+00  0.00000000000E+00  0.45593999997E+02  0.45594000000E+02  0.51100000000E-03 0.  1.
         11   -1    0    0    0    0 -0.00000000000E+00 -0.00000000000E+00 -0.45593999997E+02  0.45594000000E+02  0.51100000000E-03 0. -1.
    9900012    2    1    2    0    0  0.11171682658E+01  0.25204094559E+00  0.28492356523E+00  0.90007842803E+02  0.90000105528E+02 0.  0.
        -12    1    1    2    0    0 -0.11171682658E+01 -0.25204094559E+00 -0.28492356523E+00  0.11801571973E+01  0.00000000000E+00 0.  1.
         11    1    3    3    0    0 -0.13816006139E+01  0.14347424255E+01  0.75952832256E+01  0.78521101382E+01  0.51100000000E-03 0. -1.
        -11    1    3    3    0    0 -0.25860820106E+01  0.38048543973E+02  0.92946942458E+01  0.39252654178E+02  0.51100000000E-03 0.  1.
         12    1    3    3    0    0  0.50848508903E+01 -0.39231245453E+02 -0.16605053906E+02  0.42903078486E+02  0.00000000000E+00 0. -1.
</event>
<event>
 7    1  0.1756449E-015  0.9000770E+02  0.7816164E-02  0.1186339E+00
        -11   -1    0    0    0    0  0.00000000000E+00  0.00000000000E+00  0.45593999997E+02  0.45594000000E+02  0.51100000000E-03 0. -1.
         11   -1    0    0    0    0 -0.00000000000E+00 -0.00000000000E+00 -0.45593999997E+02  0.45594000000E+02  0.51100000000E-03 0.  1.
    9900012    2    1    2    0    0 -0.34571406610E+00 -0.70022662893E+00  0.88502769761E+00  0.90007699372E+02  0.89999960204E+02 0.  0.
        -12    1    1    2    0    0  0.34571406610E+00  0.70022662893E+00 -0.88502769761E+00  0.11803006282E+01  0.00000000000E+00 0.  1.
         11    1    3    3    0    0 -0.19133157368E+01  0.44723599081E+01  0.11051816877E+02  0.12074992207E+02  0.51100000000E-03 0. -1.
        -11    1    3    3    0    0 -0.17629682200E+02  0.27658979069E+02  0.10764648671E+02  0.34521044001E+02  0.51100000000E-03 0.  1.
         12    1    3    3    0    0  0.19197283871E+02 -0.32831565606E+02 -0.20931437850E+02  0.43411663164E+02  0.00000000000E+00 0. -1.
</event>
<event>
 7    1  0.1756449E-015  0.9000767E+02  0.7816164E-02  0.1186339E+00
        -11   -1    0    0    0    0  0.00000000000E+00  0.00000000000E+00  0.45593999997E+02  0.45594000000E+02  0.51100000000E-03 0.  1.
         11   -1    0    0    0    0 -0.00000000000E+00 -0.00000000000E+00 -0.45593999997E+02  0.45594000000E+02  0.51100000000E-03 0. -1.
    9900012    2    1    2    0    0 -0.70664126636E-02  0.11218860399E+01  0.36673154604E+00  0.90007673669E+02  0.89999934161E+02 0.  0.
        -12    1    1    2    0    0  0.70664126636E-02 -0.11218860399E+01 -0.36673154604E+00  0.11803263310E+01  0.00000000000E+00 0.  1.
         11    1    3    3    0    0  0.29341191369E+01 -0.67596478125E+00  0.24015406286E+02  0.24203423783E+02  0.51100000000E-03 0. -1.
        -11    1    3    3    0    0 -0.18518681142E+01 -0.21337793623E+02  0.11038490073E+02  0.24095209391E+02  0.51100000000E-03 0.  1.
         12    1    3    3    0    0 -0.10893174354E+01  0.23135644445E+02 -0.34687164812E+02  0.41709040495E+02  0.00000000000E+00 0. -1.
</event>
<event>
 7    1  0.1756449E-015  0.9000773E+02  0.7816164E-02  0.1186339E+00
        -11   -1    0    0    0    0  0.00000000000E+00  0.00000000000E+00  0.45593999997E+02  0.45594000000E+02  0.51100000000E-03 0. -1.
         11   -1    0    0    0    0 -0.00000000000E+00 -0.00000000000E+00 -0.45593999997E+02  0.45594000000E+02  0.51100000000E-03 0.  1.
    9900012    2    1    2    0    0  0.14404316471E+00 -0.43467997985E-02  0.11714360557E+01  0.90007733183E+02  0.89999994461E+02 0.  0.
        -12    1    1    2    0    0 -0.14404316471E+00  0.43467997985E-02 -0.11714360557E+01  0.11802668175E+01  0.00000000000E+00 0.  1.
         11    1    3    3    0    0  0.21018697975E+01 -0.62850930167E+01 -0.10047512459E+02  0.12036309972E+02  0.51100000000E-03 0. -1.
        -11    1    3    3    0    0 -0.48630527409E+01 -0.28919188259E+02 -0.15976510596E+02  0.33394874196E+02  0.51100000000E-03 0.  1.
         12    1    3    3    0    0  0.29052261081E+01  0.35199934476E+02  0.27195459110E+02  0.44576549014E+02  0.00000000000E+00 0. -1.
</event>
<event>
 7    1  0.1806608E-015  0.9000781E+02  0.7816164E-02  0.1186339E+00
        -11   -1    0    0    0    0  0.00000000000E+00  0.00000000000E+00  0.45593999997E+02  0.45594000000E+02  0.51100000000E-03 0.  1.
         11   -1    0    0    0    0 -0.00000000000E+00 -0.00000000000E+00 -0.45593999997E+02  0.45594000000E+02  0.51100000000E-03 0. -1.
    9900012    2    1    2    0    0  0.62271481945E+00  0.78107012838E+00 -0.62849400077E+00  0.90007809761E+02  0.90000072050E+02 0.  0.
        -12    1    1    2    0    0 -0.62271481945E+00 -0.78107012838E+00  0.62849400077E+00  0.11801902393E+01  0.00000000000E+00 0.  1.
         11    1    3    3    0    0  0.80383745371E+00  0.32358326100E+01  0.89352398388E+01  0.95370476863E+01  0.51100000000E-03 0. -1.
        -11    1    3    3    0    0 -0.23871383886E+02 -0.16854546417E+02  0.23373034230E+02  0.37419479325E+02  0.51100000000E-03 0.  1.
         12    1    3    3    0    0  0.23690261251E+02  0.14399783935E+02 -0.32936768070E+02  0.43051282750E+02  0.00000000000E+00 0. -1.
</event>
<event>
 7    1  0.1756449E-015  0.9000778E+02  0.7816164E-02  0.1186339E+00
        -11   -1    0    0    0    0  0.00000000000E+00  0.00000000000E+00  0.45593999997E+02  0.45594000000E+02  0.51100000000E-03 0. -1.
         11   -1    0    0    0    0 -0.00000000000E+00 -0.00000000000E+00 -0.45593999997E+02  0.45594000000E+02  0.51100000000E-03 0.  1.
    9900012    2    1    2    0    0 -0.30425173712E+00  0.95524108842E+00 -0.62278926972E+00  0.90007779202E+02  0.90000041088E+02 0.  0.
        -12    1    1    2    0    0  0.30425173712E+00 -0.95524108842E+00  0.62278926972E+00  0.11802207976E+01  0.00000000000E+00 0.  1.
         11    1    3    3    0    0  0.25829341779E+02 -0.27014402228E+01 -0.26325164274E+02  0.36979277309E+02  0.51100000000E-03 0. -1.
        -11    1    3    3    0    0 -0.24044848169E+01 -0.96373669188E+01 -0.57257616437E+01  0.11464935020E+02  0.51100000000E-03 0.  1.
        -12    1    3    3    0    0 -0.23729108699E+02  0.13294048230E+02  0.31428136648E+02  0.41563566872E+02  0.00000000000E+00 0.  1.
</event>
<event>
 7    1  0.1756449E-015  0.9000772E+02  0.7816164E-02  0.1186339E+00
        -11   -1    0    0    0    0  0.00000000000E+00  0.00000000000E+00  0.45593999997E+02  0.45594000000E+02  0.51100000000E-03 0. -1.
         11   -1    0    0    0    0 -0.00000000000E+00 -0.00000000000E+00 -0.45593999997E+02  0.45594000000E+02  0.51100000000E-03 0.  1.
    9900012    2    1    2    0    0  0.70769822397E+00  0.60339898871E+00  0.72672515911E+00  0.90007721824E+02  0.89999982952E+02 0.  0.
        -12    1    1    2    0    0 -0.70769822397E+00 -0.60339898871E+00 -0.72672515911E+00  0.11802781760E+01  0.00000000000E+00 0.  1.
         11    1    3    3    0    0  0.10521083428E+01  0.24629494200E+01  0.57836131064E+01  0.63736357470E+01  0.51100000000E-03 0. -1.
        -11    1    3    3    0    0 -0.30392331866E+02  0.13809022552E+02  0.22246219201E+02  0.40115797501E+02  0.51100000000E-03 0.  1.
         12    1    3    3    0    0  0.30047921747E+02 -0.15668572983E+02 -0.27303107149E+02  0.43518288576E+02  0.00000000000E+00 0. -1.
</event>
<event>
 7    1  0.1756449E-015  0.9000779E+02  0.7816164E-02  0.1186339E+00
        -11   -1    0    0    0    0  0.00000000000E+00  0.00000000000E+00  0.45593999997E+02  0.45594000000E+02  0.51100000000E-03 0.  1.
         11   -1    0    0    0    0 -0.00000000000E+00 -0.00000000000E+00 -0.45593999997E+02  0.45594000000E+02  0.51100000000E-03 0. -1.
    9900012    2    1    2    0    0 -0.11416145775E+01  0.12934420389E+00 -0.26997774751E+00  0.90007787413E+02  0.90000049407E+02 0.  0.
        -12    1    1    2    0    0  0.11416145775E+01 -0.12934420389E+00  0.26997774751E+00  0.11802125871E+01  0.00000000000E+00 0.  1.
         11    1    3    3    0    0 -0.21523104536E+01  0.35398934184E+02 -0.52729856238E+01  0.35854167949E+02  0.51100000000E-03 0. -1.
        -11    1    3    3    0    0  0.34099978775E+01  0.35401024634E+00 -0.13507831897E+02  0.13936101736E+02  0.51100000000E-03 0.  1.
        -12    1    3    3    0    0 -0.23993020014E+01 -0.35623600226E+02  0.18510839773E+02  0.40217517729E+02  0.00000000000E+00 0.  1.
</event>
<event>
 7    1  0.1756449E-015  0.9000773E+02  0.7816164E-02  0.1186339E+00
        -11   -1    0    0    0    0  0.00000000000E+00  0.00000000000E+00  0.45593999997E+02  0.45594000000E+02  0.51100000000E-03 0.  1.
         11   -1    0    0    0    0 -0.00000000000E+00 -0.00000000000E+00 -0.45593999997E+02  0.45594000000E+02  0.51100000000E-03 0. -1.
    9900012    2    1    2    0    0 -0.36995538207E+00  0.44220544546E+00 -0.10298707774E+01  0.90007726109E+02  0.89999987293E+02 0.  0.
        -12    1    1    2    0    0  0.36995538207E+00 -0.44220544546E+00  0.10298707774E+01  0.11802738914E+01  0.00000000000E+00 0.  1.
         11    1    3    3    0    0  0.87395576525E+01 -0.34465538851E+02 -0.12326059748E+02  0.37632233330E+02  0.51100000000E-03 0. -1.
        -11    1    3    3    0    0 -0.42838376946E+01 -0.67962177492E+01  0.60704627980E+01  0.10069278024E+02  0.51100000000E-03 0.  1.
        -12    1    3    3    0    0 -0.48256753400E+01  0.41703962045E+02  0.52257261731E+01  0.42306214754E+02  0.00000000000E+00 0.  1.
</event>
<event>
 7    1  0.1756449E-015  0.9000771E+02  0.7816164E-02  0.1186339E+00
        -11   -1    0    0    0    0  0.00000000000E+00  0.00000000000E+00  0.45593999997E+02  0.45594000000E+02  0.51100000000E-03 0.  1.
         11   -1    0    0    0    0 -0.00000000000E+00 -0.00000000000E+00 -0.45593999997E+02  0.45594000000E+02  0.51100000000E-03 0. -1.
    9900012    2    1    2    0    0  0.70233507881E+00 -0.94415658503E+00 -0.91539780919E-01  0.90007709463E+02  0.89999970428E+02 0.  0.
        -12    1    1    2    0    0 -0.70233507881E+00  0.94415658503E+00  0.91539780919E-01  0.11802905369E+01  0.00000000000E+00 0.  1.
         11    1    3    3    0    0 -0.26798736181E+02 -0.27064213909E+02 -0.15021362670E+02  0.40942462947E+02  0.51100000000E-03 0. -1.
        -11    1    3    3    0    0  0.35588848683E+01 -0.41741905198E+01  0.82068483038E+01  0.98712657417E+01  0.51100000000E-03 0.  1.
        -12    1    3    3    0    0  0.23942186392E+02  0.30294247844E+02  0.67229745858E+01  0.39193980774E+02  0.00000000000E+00 0.  1.
</event>
<event>
 7    1  0.1756449E-015  0.9000775E+02  0.7816164E-02  0.1186339E+00
        -11   -1    0    0    0    0  0.00000000000E+00  0.00000000000E+00  0.45593999997E+02  0.45594000000E+02  0.51100000000E-03 0.  1.
         11   -1    0    0    0    0 -0.00000000000E+00 -0.00000000000E+00 -0.45593999997E+02  0.45594000000E+02  0.51100000000E-03 0. -1.
    9900012    2    1    2    0    0  0.32838864651E+00  0.56151828137E+00  0.98481380201E+00  0.90007745744E+02  0.90000007188E+02 0.  0.
        -12    1    1    2    0    0 -0.32838864651E+00 -0.56151828137E+00 -0.98481380201E+00  0.11802542557E+01  0.00000000000E+00 0.  1.
         11    1    3    3    0    0  0.11243393937E+02  0.26027538072E+01  0.15196582406E+01  0.11640343467E+02  0.51100000000E-03 0. -1.
        -11    1    3    3    0    0  0.11935914861E+00  0.64638970439E+01  0.37400275482E+02  0.37954931405E+02  0.51100000000E-03 0.  1.
         12    1    3    3    0    0 -0.11034364439E+02 -0.85051325697E+01 -0.37935119920E+02  0.40412470872E+02  0.00000000000E+00 0. -1.
</event>
<event>
 7    1  0.1756449E-015  0.9000770E+02  0.7816164E-02  0.1186339E+00
        -11   -1    0    0    0    0  0.00000000000E+00  0.00000000000E+00  0.45593999997E+02  0.45594000000E+02  0.51100000000E-03 0. -1.
         11   -1    0    0    0    0 -0.00000000000E+00 -0.00000000000E+00 -0.45593999997E+02  0.45594000000E+02  0.51100000000E-03 0.  1.
    9900012    2    1    2    0    0  0.23885556642E+00 -0.11507662088E+01  0.10857995777E+00  0.90007701539E+02  0.89999962400E+02 0.  0.
        -12    1    1    2    0    0 -0.23885556642E+00  0.11507662088E+01 -0.10857995777E+00  0.11802984606E+01  0.00000000000E+00 0.  1.
         11    1    3    3    0    0 -0.52497364415E+01  0.46395634147E+01 -0.10358649790E+02  0.12505475085E+02  0.51100000000E-03 0. -1.
        -11    1    3    3    0    0 -0.54510301186E+01 -0.36711339180E+01 -0.32477307447E+02  0.33135576845E+02  0.51100000000E-03 0.  1.
         12    1    3    3    0    0  0.10939622127E+02 -0.21191957055E+01  0.42944537194E+02  0.44366649609E+02  0.00000000000E+00 0. -1.
</event>
<event>
 7    1  0.1756449E-015  0.9000773E+02  0.7816164E-02  0.1186339E+00
        -11   -1    0    0    0    0  0.00000000000E+00  0.00000000000E+00  0.45593999997E+02  0.45594000000E+02  0.51100000000E-03 0. -1.
         11   -1    0    0    0    0 -0.00000000000E+00 -0.00000000000E+00 -0.45593999997E+02  0.45594000000E+02  0.51100000000E-03 0.  1.
    9900012    2    1    2    0    0 -0.25453644322E+00  0.48129827606E+00  0.10471850531E+01  0.90007731655E+02  0.89999992913E+02 0.  0.
        -12    1    1    2    0    0  0.25453644322E+00 -0.48129827606E+00 -0.10471850531E+01  0.11802683453E+01  0.00000000000E+00 0.  1.
         11    1    3    3    0    0  0.27230804867E+01  0.76657774753E+01  0.10030570213E+01  0.81966722081E+01  0.51100000000E-03 0. -1.
        -11    1    3    3    0    0  0.29614655163E+02  0.19984858293E+02  0.12065770006E+02  0.37709483787E+02  0.51100000000E-03 0.  1.
         12    1    3    3    0    0 -0.32592272092E+02 -0.27169337492E+02 -0.12021641975E+02  0.44101575660E+02  0.00000000000E+00 0. -1.
</event>
<event>
 7    1  0.1756449E-015  0.9000769E+02  0.7816164E-02  0.1186339E+00
        -11   -1    0    0    0    0  0.00000000000E+00  0.00000000000E+00  0.45593999997E+02  0.45594000000E+02  0.51100000000E-03 0.  1.
         11   -1    0    0    0    0 -0.00000000000E+00 -0.00000000000E+00 -0.45593999997E+02  0.45594000000E+02  0.51100000000E-03 0. -1.
    9900012    2    1    2    0    0 -0.48747543420E+00  0.78992672820E+00 -0.72904721457E+00  0.90007692254E+02  0.89999952991E+02 0.  0.
        -12    1    1    2    0    0  0.48747543420E+00 -0.78992672820E+00  0.72904721457E+00  0.11803077463E+01  0.00000000000E+00 0.  1.
         11    1    3    3    0    0 -0.63243043255E+01  0.51451187671E+01 -0.11097547124E+02  0.13770425729E+02  0.51100000000E-03 0. -1.
        -11    1    3    3    0    0 -0.18820372514E+02  0.28172572854E+02 -0.90226649439E+00  0.33892689003E+02  0.51100000000E-03 0.  1.
         12    1    3    3    0    0  0.24657201406E+02 -0.32527764893E+02  0.11270766404E+02  0.42344577521E+02  0.00000000000E+00 0. -1.
</event>
<event>
 7    1  0.1756449E-015  0.9000768E+02  0.7816164E-02  0.1186339E+00
        -11   -1    0    0    0    0  0.00000000000E+00  0.00000000000E+00  0.45593999997E+02  0.45594000000E+02  0.51100000000E-03 0. -1.
         11   -1    0    0    0    0 -0.00000000000E+00 -0.00000000000E+00 -0.45593999997E+02  0.45594000000E+02  0.51100000000E-03 0.  1.
    9900012    2    1    2    0    0 -0.84218167131E+00 -0.64632826740E+00  0.51589001075E+00  0.90007681102E+02  0.89999941693E+02 0.  0.
        -12    1    1    2    0    0  0.84218167131E+00  0.64632826740E+00 -0.51589001075E+00  0.11803188975E+01  0.00000000000E+00 0.  1.
         11    1    3    3    0    0 -0.37738618353E+02 -0.14913105029E+02  0.51149315856E+01  0.40899468727E+02  0.51100000000E-03 0. -1.
        -11    1    3    3    0    0  0.12159877215E+00  0.54084093930E+01 -0.95330738895E+01  0.10961075516E+02  0.51100000000E-03 0.  1.
        -12    1    3    3    0    0  0.36774837909E+02  0.88583673685E+01  0.49340323146E+01  0.38147136859E+02  0.00000000000E+00 0.  1.
</event>
<event>
 7    1  0.1756449E-015  0.9000774E+02  0.7816164E-02  0.1186339E+00
        -11   -1    0    0    0    0  0.00000000000E+00  0.00000000000E+00  0.45593999997E+02  0.45594000000E+02  0.51100000000E-03 0.  1.
         11   -1    0    0    0    0 -0.00000000000E+00 -0.00000000000E+00 -0.45593999997E+02  0.45594000000E+02  0.51100000000E-03 0. -1.
    9900012    2    1    2    0    0  0.95554607009E+00 -0.42509924221E+00 -0.54703231744E+00  0.90007736464E+02  0.89999997785E+02 0.  0.
        -12    1    1    2    0    0 -0.95554607009E+00  0.42509924221E+00  0.54703231744E+00  0.11802635359E+01  0.00000000000E+00 0.  1.
         11    1    3    3    0    0  0.19065803642E+02  0.24905432972E+02  0.10063062983E+02  0.32940107724E+02  0.51100000000E-03 0. -1.
        -11    1    3    3    0    0  0.13898837127E+02  0.18467884250E+01 -0.38177784941E+01  0.14531473905E+02  0.51100000000E-03 0.  1.
        -12    1    3    3    0    0 -0.32009094698E+02 -0.27177320639E+02 -0.67923168060E+01  0.42536154835E+02  0.00000000000E+00 0.  1.
</event>
<event>
 7    1  0.1756449E-015  0.9000802E+02  0.7816164E-02  0.1186338E+00
        -11   -1    0    0    0    0  0.00000000000E+00  0.00000000000E+00  0.45593999997E+02  0.45594000000E+02  0.51100000000E-03 0.  1.
         11   -1    0    0    0    0 -0.00000000000E+00 -0.00000000000E+00 -0.45593999997E+02  0.45594000000E+02  0.51100000000E-03 0. -1.
    9900012    2    1    2    0    0  0.42621937630E+00 -0.10838502441E+01  0.18960687860E+00  0.90008023273E+02  0.90000288380E+02 0.  0.
        -12    1    1    2    0    0 -0.42621937630E+00  0.10838502441E+01 -0.18960687860E+00  0.11799767272E+01  0.00000000000E+00 0.  1.
         11    1    3    3    0    0  0.31010906202E+02  0.77553980815E+01  0.17715482648E+02  0.36546693812E+02  0.51100000000E-03 0. -1.
        -11    1    3    3    0    0  0.92569146759E+01 -0.39000098032E+01 -0.11775987456E+01  0.10113717657E+02  0.51100000000E-03 0.  1.
        -12    1    3    3    0    0 -0.39841601502E+02 -0.49392385224E+01 -0.16348277024E+02  0.43347611803E+02  0.00000000000E+00 0.  1.
</event>
<event>
 7    1  0.1756449E-015  0.9000775E+02  0.7816164E-02  0.1186339E+00
        -11   -1    0    0    0    0  0.00000000000E+00  0.00000000000E+00  0.45593999997E+02  0.45594000000E+02  0.51100000000E-03 0.  1.
         11   -1    0    0    0    0 -0.00000000000E+00 -0.00000000000E+00 -0.45593999997E+02  0.45594000000E+02  0.51100000000E-03 0. -1.
    9900012    2    1    2    0    0  0.11127194644E+00  0.11376831503E+01 -0.29372962248E+00  0.90007753633E+02  0.90000015181E+02 0.  0.
        -12    1    1    2    0    0 -0.11127194644E+00 -0.11376831503E+01  0.29372962248E+00  0.11802463673E+01  0.00000000000E+00 0.  1.
         11    1    3    3    0    0 -0.29459554812E+02  0.26533211076E+02  0.63668383185E+01  0.40154866332E+02  0.51100000000E-03 0. -1.
        -11    1    3    3    0    0  0.68003560215E+00 -0.23294232456E+01  0.92810186744E+01  0.95930166775E+01  0.51100000000E-03 0.  1.
        -12    1    3    3    0    0  0.28890791156E+02 -0.23066104680E+02 -0.15941586615E+02  0.40259870623E+02  0.00000000000E+00 0.  1.
</event>
<event>
 7    1  0.1756449E-015  0.9000788E+02  0.7816164E-02  0.1186339E+00
        -11   -1    0    0    0    0  0.00000000000E+00  0.00000000000E+00  0.45593999997E+02  0.45594000000E+02  0.51100000000E-03 0.  1.
         11   -1    0    0    0    0 -0.00000000000E+00 -0.00000000000E+00 -0.45593999997E+02  0.45594000000E+02  0.51100000000E-03 0. -1.
    9900012    2    1    2    0    0  0.52371116585E+00 -0.39437033699E+00 -0.98125969281E+00  0.90007884780E+02  0.90000148059E+02 0.  0.
        -12    1    1    2    0    0 -0.52371116585E+00  0.39437033699E+00  0.98125969281E+00  0.11801152201E+01  0.00000000000E+00 0.  1.
         11    1    3    3    0    0  0.24003023056E+01 -0.10364834136E+02  0.40700041437E+01  0.11391056660E+02  0.51100000000E-03 0. -1.
        -11    1    3    3    0    0 -0.13852170710E+02  0.26888667494E+02  0.26935101045E+02  0.40501638751E+02  0.51100000000E-03 0.  1.
         12    1    3    3    0    0  0.11975579570E+02 -0.16918203695E+02 -0.31986364881E+02  0.38115189369E+02  0.00000000000E+00 0. -1.
</event>
<event>
 7    1  0.1756449E-015  0.9000810E+02  0.7816164E-02  0.1186338E+00
        -11   -1    0    0    0    0  0.00000000000E+00  0.00000000000E+00  0.45593999997E+02  0.45594000000E+02  0.51100000000E-03 0. -1.
         11   -1    0    0    0    0 -0.00000000000E+00 -0.00000000000E+00 -0.45593999997E+02  0.45594000000E+02  0.51100000000E-03 0.  1.
    9900012    2    1    2    0    0 -0.11262261233E+01  0.26203607731E+00  0.23474777652E+00  0.90008103943E+02  0.90000370114E+02 0.  0.
        -12    1    1    2    0    0  0.11262261233E+01 -0.26203607731E+00 -0.23474777652E+00  0.11798960570E+01  0.00000000000E+00 0.  1.
         11    1    3    3    0    0 -0.16645824972E+02 -0.51125280138E+01  0.32767957147E+02  0.37107417689E+02  0.51100000000E-03 0. -1.
        -11    1    3    3    0    0  0.44757954412E+01 -0.49243106668E+01  0.75519777086E+01  0.10065482996E+02  0.51100000000E-03 0.  1.
        -12    1    3    3    0    0  0.11043803407E+02  0.10298874758E+02 -0.40085187079E+02  0.42835203258E+02  0.00000000000E+00 0.  1.
</event>
<event>
 7    1  0.1756449E-015  0.9000776E+02  0.7816164E-02  0.1186339E+00
        -11   -1    0    0    0    0  0.00000000000E+00  0.00000000000E+00  0.45593999997E+02  0.45594000000E+02  0.51100000000E-03 0. -1.
         11   -1    0    0    0    0 -0.00000000000E+00 -0.00000000000E+00 -0.45593999997E+02  0.45594000000E+02  0.51100000000E-03 0.  1.
    9900012    2    1    2    0    0  0.46421761850E-01 -0.30130860921E+00  0.11401900359E+01  0.90007756307E+02  0.90000017890E+02 0.  0.
        -12    1    1    2    0    0 -0.46421761850E-01  0.30130860921E+00 -0.11401900359E+01  0.11802436935E+01  0.00000000000E+00 0.  1.
         11    1    3    3    0    0 -0.26032057937E+02  0.16175015621E+02 -0.18183920171E+02  0.35636415698E+02  0.51100000000E-03 0. -1.
        -11    1    3    3    0    0 -0.59311653368E+01  0.77700067099E+01 -0.74379179144E-01  0.97753393316E+01  0.51100000000E-03 0.  1.
        -12    1    3    3    0    0  0.32009645036E+02 -0.24246330941E+02  0.19398489386E+02  0.44596001276E+02  0.00000000000E+00 0.  1.
</event>
<event>
 7    1  0.1756449E-015  0.9000801E+02  0.7816164E-02  0.1186338E+00
        -11   -1    0    0    0    0  0.00000000000E+00  0.00000000000E+00  0.45593999997E+02  0.45594000000E+02  0.51100000000E-03 0. -1.
         11   -1    0    0    0    0 -0.00000000000E+00 -0.00000000000E+00 -0.45593999997E+02  0.45594000000E+02  0.51100000000E-03 0.  1.
    9900012    2    1    2    0    0  0.10774251930E+01  0.16230954360E+00  0.45296961567E+00  0.90008012328E+02  0.90000277290E+02 0.  0.
        -12    1    1    2    0    0 -0.10774251930E+01 -0.16230954360E+00 -0.45296961567E+00  0.11799876724E+01  0.00000000000E+00 0.  1.
         11    1    3    3    0    0 -0.62423288438E+01  0.96924487332E+01  0.29398716919E+01  0.11897608065E+02  0.51100000000E-03 0. -1.
        -11    1    3    3    0    0  0.62419004545E+01  0.33866004764E+02  0.18414045000E+01  0.34485625567E+02  0.51100000000E-03 0.  1.
         12    1    3    3    0    0  0.10778535823E+01 -0.43396143954E+02 -0.43283065762E+01  0.43624778695E+02  0.00000000000E+00 0. -1.
</event>
<event>
 7    1  0.1756449E-015  0.9000773E+02  0.7816164E-02  0.1186339E+00
        -11   -1    0    0    0    0  0.00000000000E+00  0.00000000000E+00  0.45593999997E+02  0.45594000000E+02  0.51100000000E-03 0.  1.
         11   -1    0    0    0    0 -0.00000000000E+00 -0.00000000000E+00 -0.45593999997E+02  0.45594000000E+02  0.51100000000E-03 0. -1.
    9900012    2    1    2    0    0  0.38798834822E+00  0.11003096920E+01  0.17835980309E+00  0.90007733676E+02  0.89999994960E+02 0.  0.
        -12    1    1    2    0    0 -0.38798834822E+00 -0.11003096920E+01 -0.17835980309E+00  0.11802663242E+01  0.00000000000E+00 0.  1.
         11    1    3    3    0    0  0.29816585555E+01 -0.10190969984E+02 -0.74925210961E+01  0.12995538834E+02  0.51100000000E-03 0. -1.
        -11    1    3    3    0    0  0.33313249501E+02  0.14520499086E+02 -0.87776049046E+01  0.37385342504E+02  0.51100000000E-03 0.  1.
         12    1    3    3    0    0 -0.35906919708E+02 -0.32292194105E+01  0.16448485804E+02  0.39626852337E+02  0.00000000000E+00 0. -1.
</event>
<event>
 7    1  0.1756449E-015  0.9000761E+02  0.7816164E-02  0.1186339E+00
        -11   -1    0    0    0    0  0.00000000000E+00  0.00000000000E+00  0.45593999997E+02  0.45594000000E+02  0.51100000000E-03 0.  1.
         11   -1    0    0    0    0 -0.00000000000E+00 -0.00000000000E+00 -0.45593999997E+02  0.45594000000E+02  0.51100000000E-03 0. -1.
    9900012    2    1    2    0    0  0.53929439629E+00  0.14887511406E+00 -0.10393878543E+01  0.90007606270E+02  0.89999865873E+02 0.  0.
        -12    1    1    2    0    0 -0.53929439629E+00 -0.14887511406E+00  0.10393878543E+01  0.11803937297E+01  0.00000000000E+00 0.  1.
         11    1    3    3    0    0 -0.13576742551E+02 -0.13784030623E+02 -0.34945394141E+02  0.39943810665E+02  0.51100000000E-03 0. -1.
        -11    1    3    3    0    0  0.64251749203E+01 -0.54019849771E+01 -0.19403598393E+01  0.86156433896E+01  0.51100000000E-03 0.  1.
        -12    1    3    3    0    0  0.76908620268E+01  0.19334890715E+02  0.35846366126E+02  0.41448152216E+02  0.00000000000E+00 0.  1.
</event>
<event>
 7    1  0.1756449E-015  0.9000771E+02  0.7816164E-02  0.1186339E+00
        -11   -1    0    0    0    0  0.00000000000E+00  0.00000000000E+00  0.45593999997E+02  0.45594000000E+02  0.51100000000E-03 0. -1.
         11   -1    0    0    0    0 -0.00000000000E+00 -0.00000000000E+00 -0.45593999997E+02  0.45594000000E+02  0.51100000000E-03 0.  1.
    9900012    2    1    2    0    0 -0.11209599190E+01 -0.13426091742E+00  0.34425752210E+00  0.90007707504E+02  0.89999968443E+02 0.  0.
        -12    1    1    2    0    0  0.11209599190E+01  0.13426091742E+00 -0.34425752210E+00  0.11802924957E+01  0.00000000000E+00 0.  1.
         11    1    3    3    0    0 -0.40765970411E+02  0.10584071340E+02 -0.25142018037E+00  0.42118287264E+02  0.51100000000E-03 0. -1.
        -11    1    3    3    0    0  0.30757712199E+01 -0.16293704193E+01 -0.84485245453E+01  0.91374385806E+01  0.51100000000E-03 0.  1.
        -12    1    3    3    0    0  0.36569239272E+02 -0.90889618380E+01  0.90442022478E+01  0.38751981660E+02  0.00000000000E+00 0.  1.
</event>
<event>
 7    1  0.1756449E-015  0.9000775E+02  0.7816164E-02  0.1186339E+00
        -11   -1    0    0    0    0  0.00000000000E+00  0.00000000000E+00  0.45593999997E+02  0.45594000000E+02  0.51100000000E-03 0.  1.
         11   -1    0    0    0    0 -0.00000000000E+00 -0.00000000000E+00 -0.45593999997E+02  0.45594000000E+02  0.51100000000E-03 0. -1.
    9900012    2    1    2    0    0 -0.47070893077E+00 -0.22129694629E+00 -0.10594612461E+01  0.90007746905E+02  0.90000008364E+02 0.  0.
        -12    1    1    2    0    0  0.47070893077E+00  0.22129694629E+00  0.10594612461E+01  0.11802530949E+01  0.00000000000E+00 0.  1.
         11    1    3    3    0    0  0.41022349824E+01 -0.80253865638E+01 -0.62937653875E+01  0.10993027079E+02  0.51100000000E-03 0. -1.
        -11    1    3    3    0    0  0.29411309969E+02  0.62933645797E+01  0.25487815289E+02  0.39424108364E+02  0.51100000000E-03 0.  1.
         12    1    3    3    0    0 -0.33984253883E+02  0.15107250379E+01 -0.20253511148E+02  0.39590611462E+02  0.00000000000E+00 0. -1.
</event>
<event>
 7    1  0.1756449E-015  0.9000779E+02  0.7816164E-02  0.1186339E+00
        -11   -1    0    0    0    0  0.00000000000E+00  0.00000000000E+00  0.45593999997E+02  0.45594000000E+02  0.51100000000E-03 0.  1.
         11   -1    0    0    0    0 -0.00000000000E+00 -0.00000000000E+00 -0.45593999997E+02  0.45594000000E+02  0.51100000000E-03 0. -1.
    9900012    2    1    2    0    0  0.60959483122E+00 -0.80579174095E+00 -0.60991491707E+00  0.90007787140E+02  0.90000049131E+02 0.  0.
        -12    1    1    2    0    0 -0.60959483122E+00  0.80579174095E+00  0.60991491707E+00  0.11802128597E+01  0.00000000000E+00 0.  1.
         11    1    3    3    0    0  0.76540493566E+01 -0.44397248271E+01 -0.20851761241E+01  0.90908518755E+01  0.51100000000E-03 0. -1.
        -11    1    3    3    0    0  0.29680678165E+01  0.20270219167E+02  0.35934353837E+02  0.41363861009E+02  0.51100000000E-03 0.  1.
         12    1    3    3    0    0 -0.10012522342E+02 -0.16636286081E+02 -0.34459092630E+02  0.39553074256E+02  0.00000000000E+00 0. -1.
</event>
<event>
 7    1  0.1756449E-015  0.9000780E+02  0.7816164E-02  0.1186339E+00
        -11   -1    0    0    0    0  0.00000000000E+00  0.00000000000E+00  0.45593999997E+02  0.45594000000E+02  0.51100000000E-03 0. -1.
         11   -1    0    0    0    0 -0.00000000000E+00 -0.00000000000E+00 -0.45593999997E+02  0.45594000000E+02  0.51100000000E-03 0.  1.
    9900012    2    1    2    0    0  0.88774108866E+00  0.37301591776E+00  0.68238048190E+00  0.90007801611E+02  0.90000063792E+02 0.  0.
        -12    1    1    2    0    0 -0.88774108866E+00 -0.37301591776E+00 -0.68238048190E+00  0.11801983890E+01  0.00000000000E+00 0.  1.
         11    1    3    3    0    0  0.25918284621E+01 -0.95308463147E+01 -0.29305826802E+01  0.10302568678E+02  0.51100000000E-03 0. -1.
        -11    1    3    3    0    0 -0.18232286941E+02 -0.20499096844E+02 -0.23199375922E+02  0.35928266059E+02  0.51100000000E-03 0.  1.
         12    1    3    3    0    0  0.16528199568E+02  0.30402959077E+02  0.26812339084E+02  0.43776966875E+02  0.00000000000E+00 0. -1.
</event>
<event>
 7    1  0.1756449E-015  0.9000794E+02  0.7816164E-02  0.1186339E+00
        -11   -1    0    0    0    0  0.00000000000E+00  0.00000000000E+00  0.45593999997E+02  0.45594000000E+02  0.51100000000E-03 0.  1.
         11   -1    0    0    0    0 -0.00000000000E+00 -0.00000000000E+00 -0.45593999997E+02  0.45594000000E+02  0.51100000000E-03 0. -1.
    9900012    2    1    2    0    0 -0.47112939444E+00 -0.93981825947E+00 -0.53601300573E+00  0.90007944404E+02  0.90000208470E+02 0.  0.
        -12    1    1    2    0    0  0.47112939444E+00  0.93981825947E+00  0.53601300573E+00  0.11800555959E+01  0.00000000000E+00 0.  1.
         11    1    3    3    0    0 -0.51793572758E+01  0.14529932380E+02  0.25311003144E+02  0.29641045143E+02  0.51100000000E-03 0. -1.
        -11    1    3    3    0    0 -0.28085558002E+01  0.67242697647E+01  0.13055935984E+02  0.14951964896E+02  0.51100000000E-03 0.  1.
        -12    1    3    3    0    0  0.75167836816E+01 -0.22194020404E+02 -0.38902952135E+02  0.45414934365E+02  0.00000000000E+00 0.  1.
</event>
<event>
 7    1  0.1756449E-015  0.9000768E+02  0.7816164E-02  0.1186339E+00
        -11   -1    0    0    0    0  0.00000000000E+00  0.00000000000E+00  0.45593999997E+02  0.45594000000E+02  0.51100000000E-03 0. -1.
         11   -1    0    0    0    0 -0.00000000000E+00 -0.00000000000E+00 -0.45593999997E+02  0.45594000000E+02  0.51100000000E-03 0.  1.
    9900012    2    1    2    0    0  0.17940820484E+00  0.10672931532E+01  0.47101781143E+00  0.90007678113E+02  0.89999938664E+02 0.  0.
        -12    1    1    2    0    0 -0.17940820484E+00 -0.10672931532E+01 -0.47101781143E+00  0.11803218873E+01  0.00000000000E+00 0.  1.
         11    1    3    3    0    0  0.59326265865E+01  0.48020615522E+01  0.16077534099E+01  0.78000464521E+01  0.51100000000E-03 0. -1.
        -11    1    3    3    0    0  0.34062826192E+02  0.13828195413E+01 -0.18134036253E+02  0.38613878194E+02  0.51100000000E-03 0.  1.
         12    1    3    3    0    0 -0.39816044573E+02 -0.51175879403E+01  0.16997300655E+02  0.43593753467E+02  0.00000000000E+00 0. -1.
</event>
<event>
 7    1  0.1756449E-015  0.9000763E+02  0.7816164E-02  0.1186339E+00
        -11   -1    0    0    0    0  0.00000000000E+00  0.00000000000E+00  0.45593999997E+02  0.45594000000E+02  0.51100000000E-03 0.  1.
         11   -1    0    0    0    0 -0.00000000000E+00 -0.00000000000E+00 -0.45593999997E+02  0.45594000000E+02  0.51100000000E-03 0. -1.
    9900012    2    1    2    0    0  0.87679164963E+00  0.34932842137E+00 -0.70886084380E+00  0.90007628178E+02  0.89999888070E+02 0.  0.
        -12    1    1    2    0    0 -0.87679164963E+00 -0.34932842137E+00  0.70886084380E+00  0.11803718222E+01  0.00000000000E+00 0.  1.
         11    1    3    3    0    0  0.29449711872E+02  0.25554716646E+02  0.27753341383E+01  0.39090044155E+02  0.51100000000E-03 0. -1.
        -11    1    3    3    0    0  0.78651124746E+00  0.22472396327E+01 -0.99280279083E+01  0.10209526155E+02  0.51100000000E-03 0.  1.
        -12    1    3    3    0    0 -0.29359431470E+02 -0.27452627858E+02  0.64438329263E+01  0.40708057867E+02  0.00000000000E+00 0.  1.
</event>
<event>
 7    1  0.1756449E-015  0.9000783E+02  0.7816164E-02  0.1186339E+00
        -11   -1    0    0    0    0  0.00000000000E+00  0.00000000000E+00  0.45593999997E+02  0.45594000000E+02  0.51100000000E-03 0. -1.
         11   -1    0    0    0    0 -0.00000000000E+00 -0.00000000000E+00 -0.45593999997E+02  0.45594000000E+02  0.51100000000E-03 0.  1.
    9900012    2    1    2    0    0 -0.98367192611E-01 -0.11364243658E+01  0.30274293478E+00  0.90007834872E+02  0.90000097493E+02 0.  0.
        -12    1    1    2    0    0  0.98367192611E-01  0.11364243658E+01 -0.30274293478E+00  0.11801651275E+01  0.00000000000E+00 0.  1.
         11    1    3    3    0    0 -0.31514823104E+01 -0.91012538212E+01 -0.57592679942E+01  0.11222024325E+02  0.51100000000E-03 0. -1.
        -11    1    3    3    0    0  0.54203193180E+01 -0.34757807975E+02  0.75204276874E+01  0.35972794020E+02  0.51100000000E-03 0.  1.
         12    1    3    3    0    0 -0.23672042002E+01  0.42722637430E+02 -0.14584167583E+01  0.42813016527E+02  0.00000000000E+00 0. -1.
</event>
<event>
 7    1  0.1756449E-015  0.9000754E+02  0.7816164E-02  0.1186339E+00
        -11   -1    0    0    0    0  0.00000000000E+00  0.00000000000E+00  0.45593999997E+02  0.45594000000E+02  0.51100000000E-03 0. -1.
         11   -1    0    0    0    0 -0.00000000000E+00 -0.00000000000E+00 -0.45593999997E+02  0.45594000000E+02  0.51100000000E-03 0.  1.
    9900012    2    1    2    0    0  0.23866057025E+00 -0.96835310405E+00  0.63152497038E+00  0.90007538061E+02  0.89999796763E+02 0.  0.
        -12    1    1    2    0    0 -0.23866057025E+00  0.96835310405E+00 -0.63152497038E+00  0.11804619393E+01  0.00000000000E+00 0.  1.
         11    1    3    3    0    0 -0.45646921316E+01  0.37856753877E+02  0.17991892900E+02  0.42162524103E+02  0.51100000000E-03 0. -1.
        -11    1    3    3    0    0  0.84215608133E+01 -0.35919483296E+01 -0.39836046723E+01  0.99846825579E+01  0.51100000000E-03 0.  1.
        -12    1    3    3    0    0 -0.36182081115E+01 -0.35233158651E+02 -0.13376763258E+02  0.37860331400E+02  0.00000000000E+00 0.  1.
</event>
<event>
 7    1  0.1756449E-015  0.9000778E+02  0.7816164E-02  0.1186339E+00
        -11   -1    0    0    0    0  0.00000000000E+00  0.00000000000E+00  0.45593999997E+02  0.45594000000E+02  0.51100000000E-03 0. -1.
         11   -1    0    0    0    0 -0.00000000000E+00 -0.00000000000E+00 -0.45593999997E+02  0.45594000000E+02  0.51100000000E-03 0.  1.
    9900012    2    1    2    0    0 -0.93890472913E+00 -0.49150614011E+00  0.51942449480E+00  0.90007778757E+02  0.90000040637E+02 0.  0.
        -12    1    1    2    0    0  0.93890472913E+00  0.49150614011E+00 -0.51942449480E+00  0.11802212428E+01  0.00000000000E+00 0.  1.
         11    1    3    3    0    0  0.24192689313E+02  0.12876081512E+02  0.29301883383E+02  0.40120818303E+02  0.51100000000E-03 0. -1.
        -11    1    3    3    0    0  0.25348920391E+01  0.52883491196E+01 -0.10006518831E+02  0.11598393571E+02  0.51100000000E-03 0.  1.
        -12    1    3    3    0    0 -0.27666486081E+02 -0.18655936772E+02 -0.18775940057E+02  0.38288566883E+02  0.00000000000E+00 0.  1.
</event>
<event>
 7    1  0.1756449E-015  0.9000771E+02  0.7816164E-02  0.1186339E+00
        -11   -1    0    0    0    0  0.00000000000E+00  0.00000000000E+00  0.45593999997E+02  0.45594000000E+02  0.51100000000E-03 0.  1.
         11   -1    0    0    0    0 -0.00000000000E+00 -0.00000000000E+00 -0.45593999997E+02  0.45594000000E+02  0.51100000000E-03 0. -1.
    9900012    2    1    2    0    0 -0.48938608298E+00  0.84367390254E+00 -0.66468553329E+00  0.90007707134E+02  0.89999968068E+02 0.  0.
        -12    1    1    2    0    0  0.48938608298E+00 -0.84367390254E+00  0.66468553329E+00  0.11802928663E+01  0.00000000000E+00 0.  1.
         11    1    3    3    0    0  0.41018852992E+01  0.56817777687E+01 -0.87540698046E+01  0.11213465121E+02  0.51100000000E-03 0. -1.
        -11    1    3    3    0    0  0.35663375383E+02 -0.18132974431E+01 -0.56466371099E+01  0.36153131292E+02  0.51100000000E-03 0.  1.
         12    1    3    3    0    0 -0.40254646765E+02 -0.30248064231E+01  0.13736021381E+02  0.42641110720E+02  0.00000000000E+00 0. -1.
</event>
<event>
 7    1  0.1756449E-015  0.9000774E+02  0.7816164E-02  0.1186339E+00
        -11   -1    0    0    0    0  0.00000000000E+00  0.00000000000E+00  0.45593999997E+02  0.45594000000E+02  0.51100000000E-03 0.  1.
         11   -1    0    0    0    0 -0.00000000000E+00 -0.00000000000E+00 -0.45593999997E+02  0.45594000000E+02  0.51100000000E-03 0. -1.
    9900012    2    1    2    0    0  0.91748428453E+00 -0.73065231919E+00 -0.13185675853E+00  0.90007738830E+02  0.90000000183E+02 0.  0.
        -12    1    1    2    0    0 -0.91748428453E+00  0.73065231919E+00  0.13185675853E+00  0.11802611697E+01  0.00000000000E+00 0.  1.
         11    1    3    3    0    0  0.92522805926E+01  0.37575030849E+01 -0.23223626965E+01  0.10252653040E+02  0.51100000000E-03 0. -1.
        -11    1    3    3    0    0  0.32420936077E+02  0.65960292282E+01  0.13960144131E+02  0.35909752465E+02  0.51100000000E-03 0.  1.
         12    1    3    3    0    0 -0.40755732385E+02 -0.11084184632E+02 -0.11769638193E+02  0.43845333325E+02  0.00000000000E+00 0. -1.
</event>
<event>
 7    1  0.1756449E-015  0.9000777E+02  0.7816164E-02  0.1186339E+00
        -11   -1    0    0    0    0  0.00000000000E+00  0.00000000000E+00  0.45593999997E+02  0.45594000000E+02  0.51100000000E-03 0. -1.
         11   -1    0    0    0    0 -0.00000000000E+00 -0.00000000000E+00 -0.45593999997E+02  0.45594000000E+02  0.51100000000E-03 0.  1.
    9900012    2    1    2    0    0 -0.13008452457E+00  0.11653526565E+01 -0.13402853263E+00  0.90007774409E+02  0.90000036231E+02 0.  0.
        -12    1    1    2    0    0  0.13008452457E+00 -0.11653526565E+01  0.13402853263E+00  0.11802255908E+01  0.00000000000E+00 0.  1.
         11    1    3    3    0    0 -0.91106369274E+01  0.64664419934E+00  0.16532434766E+01  0.92819754470E+01  0.51100000000E-03 0. -1.
        -11    1    3    3    0    0 -0.13734857158E+02  0.34927705836E+02 -0.96503489313E+01  0.38752034409E+02  0.51100000000E-03 0.  1.
         12    1    3    3    0    0  0.22715409560E+02 -0.34408997379E+02  0.78630769220E+01  0.41973764553E+02  0.00000000000E+00 0. -1.
</event>
<event>
 7    1  0.1756449E-015  0.9000783E+02  0.7816164E-02  0.1186339E+00
        -11   -1    0    0    0    0  0.00000000000E+00  0.00000000000E+00  0.45593999997E+02  0.45594000000E+02  0.51100000000E-03 0.  1.
         11   -1    0    0    0    0 -0.00000000000E+00 -0.00000000000E+00 -0.45593999997E+02  0.45594000000E+02  0.51100000000E-03 0. -1.
    9900012    2    1    2    0    0 -0.78817873288E-01 -0.10327597438E+01 -0.56568961722E+00  0.90007826416E+02  0.90000088925E+02 0.  0.
        -12    1    1    2    0    0  0.78817873288E-01  0.10327597438E+01  0.56568961722E+00  0.11801735841E+01  0.00000000000E+00 0.  1.
         11    1    3    3    0    0  0.13973222338E+01  0.38984039418E+01  0.67903173582E+01  0.79535195231E+01  0.51100000000E-03 0. -1.
        -11    1    3    3    0    0 -0.85703445281E+01  0.15748382980E+01  0.36309470727E+02  0.37340441692E+02  0.51100000000E-03 0.  1.
         12    1    3    3    0    0  0.70942044210E+01 -0.65060019836E+01 -0.43665477703E+02  0.44713865201E+02  0.00000000000E+00 0. -1.
</event>
<event>
 7    1  0.1756449E-015  0.9000793E+02  0.7816164E-02  0.1186339E+00
        -11   -1    0    0    0    0  0.00000000000E+00  0.00000000000E+00  0.45593999997E+02  0.45594000000E+02  0.51100000000E-03 0. -1.
         11   -1    0    0    0    0 -0.00000000000E+00 -0.00000000000E+00 -0.45593999997E+02  0.45594000000E+02  0.51100000000E-03 0.  1.
    9900012    2    1    2    0    0 -0.10240186479E+00 -0.90372203574E+00  0.75191443598E+00  0.90007925859E+02  0.90000189680E+02 0.  0.
        -12    1    1    2    0    0  0.10240186479E+00  0.90372203574E+00 -0.75191443598E+00  0.11800741412E+01  0.00000000000E+00 0.  1.
         11    1    3    3    0    0  0.39732761259E+02 -0.45057388060E+01  0.19194807342E+02  0.44355773340E+02  0.51100000000E-03 0. -1.
        -11    1    3    3    0    0 -0.13008062693E+02 -0.41448423554E+00 -0.30029306813E+00  0.13018128452E+02  0.51100000000E-03 0.  1.
        -12    1    3    3    0    0 -0.26827100431E+02  0.40165010058E+01 -0.18142599838E+02  0.32634024066E+02  0.00000000000E+00 0.  1.
</event>
<event>
 7    1  0.1756449E-015  0.9000763E+02  0.7816164E-02  0.1186339E+00
        -11   -1    0    0    0    0  0.00000000000E+00  0.00000000000E+00  0.45593999997E+02  0.45594000000E+02  0.51100000000E-03 0. -1.
         11   -1    0    0    0    0 -0.00000000000E+00 -0.00000000000E+00 -0.45593999997E+02  0.45594000000E+02  0.51100000000E-03 0.  1.
    9900012    2    1    2    0    0 -0.49749426263E+00 -0.89641822658E+00  0.58498349917E+00  0.90007630620E+02  0.89999890544E+02 0.  0.
        -12    1    1    2    0    0  0.49749426263E+00  0.89641822658E+00 -0.58498349917E+00  0.11803693797E+01  0.00000000000E+00 0.  1.
         11    1    3    3    0    0 -0.23686019660E+02  0.15738097786E+02 -0.18629207900E+02  0.33996509181E+02  0.51100000000E-03 0. -1.
        -11    1    3    3    0    0  0.92412030901E+01  0.11816254439E+02 -0.53423898117E+01  0.15923719185E+02  0.51100000000E-03 0.  1.
        -12    1    3    3    0    0  0.13947322307E+02 -0.28450770451E+02  0.24556581210E+02  0.40087402255E+02  0.00000000000E+00 0.  1.
</event>
<event>
 7    1  0.1756449E-015  0.9000809E+02  0.7816164E-02  0.1186338E+00
        -11   -1    0    0    0    0  0.00000000000E+00  0.00000000000E+00  0.45593999997E+02  0.45594000000E+02  0.51100000000E-03 0.  1.
         11   -1    0    0    0    0 -0.00000000000E+00 -0.00000000000E+00 -0.45593999997E+02  0.45594000000E+02  0.51100000000E-03 0. -1.
    9900012    2    1    2    0    0  0.11071443396E+01 -0.53136180271E-01 -0.40446342830E+00  0.90008092077E+02  0.90000358091E+02 0.  0.
        -12    1    1    2    0    0 -0.11071443396E+01  0.53136180271E-01  0.40446342830E+00  0.11799079232E+01  0.00000000000E+00 0.  1.
         11    1    3    3    0    0  0.29306707028E+02  0.25129103989E+02  0.10489162511E+02  0.40004718154E+02  0.51100000000E-03 0. -1.
        -11    1    3    3    0    0  0.23791913488E+01  0.46457511080E+00 -0.97818547830E+01  0.10077750977E+02  0.51100000000E-03 0.  1.
        -12    1    3    3    0    0 -0.30578754038E+02 -0.25646815280E+02 -0.11117711564E+01  0.39925622946E+02  0.00000000000E+00 0.  1.
</event>
<event>
 7    1  0.1756449E-015  0.9000772E+02  0.7816164E-02  0.1186339E+00
        -11   -1    0    0    0    0  0.00000000000E+00  0.00000000000E+00  0.45593999997E+02  0.45594000000E+02  0.51100000000E-03 0.  1.
         11   -1    0    0    0    0 -0.00000000000E+00 -0.00000000000E+00 -0.45593999997E+02  0.45594000000E+02  0.51100000000E-03 0. -1.
    9900012    2    1    2    0    0  0.61212695366E+00  0.84379977014E+00 -0.55350566333E+00  0.90007717839E+02  0.89999978915E+02 0.  0.
        -12    1    1    2    0    0 -0.61212695366E+00 -0.84379977014E+00  0.55350566333E+00  0.11802821607E+01  0.00000000000E+00 0.  1.
         11    1    3    3    0    0 -0.82255638398E+01  0.72739278692E+01  0.16911179585E+02  0.20163281537E+02  0.51100000000E-03 0. -1.
        -11    1    3    3    0    0  0.29568182537E+02  0.13322045699E+02  0.58066735427E+01  0.32946498722E+02  0.51100000000E-03 0.  1.
         12    1    3    3    0    0 -0.20730491743E+02 -0.19752173798E+02 -0.23271358791E+02  0.36897937580E+02  0.00000000000E+00 0. -1.
</event>
<event>
 7    1  0.1756449E-015  0.9000784E+02  0.7816164E-02  0.1186339E+00
        -11   -1    0    0    0    0  0.00000000000E+00  0.00000000000E+00  0.45593999997E+02  0.45594000000E+02  0.51100000000E-03 0.  1.
         11   -1    0    0    0    0 -0.00000000000E+00 -0.00000000000E+00 -0.45593999997E+02  0.45594000000E+02  0.51100000000E-03 0. -1.
    9900012    2    1    2    0    0  0.50584999440E+00 -0.10646450915E+01 -0.58473759823E-01  0.90007842143E+02  0.90000104859E+02 0.  0.
        -12    1    1    2    0    0 -0.50584999440E+00  0.10646450915E+01  0.58473759823E-01  0.11801578574E+01  0.00000000000E+00 0.  1.
         11    1    3    3    0    0 -0.26658515042E+02  0.17041193123E+02  0.17433809137E+02  0.36125010569E+02  0.51100000000E-03 0. -1.
        -11    1    3    3    0    0 -0.50657642588E+01  0.79086569972E+01 -0.16410401398E+01  0.95342454356E+01  0.51100000000E-03 0.  1.
        -12    1    3    3    0    0  0.32230129295E+02 -0.26014495212E+02 -0.15851242757E+02  0.44348586138E+02  0.00000000000E+00 0.  1.
</event>
<event>
 7    1  0.1756449E-015  0.9000823E+02  0.7816164E-02  0.1186338E+00
        -11   -1    0    0    0    0  0.00000000000E+00  0.00000000000E+00  0.45593999997E+02  0.45594000000E+02  0.51100000000E-03 0. -1.
         11   -1    0    0    0    0 -0.00000000000E+00 -0.00000000000E+00 -0.45593999997E+02  0.45594000000E+02  0.51100000000E-03 0.  1.
    9900012    2    1    2    0    0  0.11291264166E+01 -0.34438732648E-01  0.34021072910E+00  0.90008230603E+02  0.90000498445E+02 0.  0.
        -12    1    1    2    0    0 -0.11291264166E+01  0.34438732648E-01 -0.34021072910E+00  0.11797693975E+01  0.00000000000E+00 0.  1.
         11    1    3    3    0    0  0.49189128868E+00 -0.12606404046E+02 -0.75058257947E+01  0.14679945542E+02  0.51100000000E-03 0. -1.
        -11    1    3    3    0    0  0.44004009776E+01  0.87918442444E+01 -0.32847178560E+02  0.34286982859E+02  0.51100000000E-03 0.  1.
         12    1    3    3    0    0 -0.37631658497E+01  0.37801210686E+01  0.40693215084E+02  0.41041302201E+02  0.00000000000E+00 0. -1.
</event>
<event>
 7    1  0.1756449E-015  0.9000777E+02  0.7816164E-02  0.1186339E+00
        -11   -1    0    0    0    0  0.00000000000E+00  0.00000000000E+00  0.45593999997E+02  0.45594000000E+02  0.51100000000E-03 0. -1.
         11   -1    0    0    0    0 -0.00000000000E+00 -0.00000000000E+00 -0.45593999997E+02  0.45594000000E+02  0.51100000000E-03 0.  1.
    9900012    2    1    2    0    0  0.61990764963E+00 -0.22383427835E+00  0.97906441356E+00  0.90007765106E+02  0.90000026806E+02 0.  0.
        -12    1    1    2    0    0 -0.61990764963E+00  0.22383427835E+00 -0.97906441356E+00  0.11802348936E+01  0.00000000000E+00 0.  1.
         11    1    3    3    0    0 -0.33743933147E+02 -0.10123409320E+01  0.95045501559E+01  0.35071560164E+02  0.51100000000E-03 0. -1.
        -11    1    3    3    0    0 -0.44399578311E+01 -0.12149028863E+02 -0.50475779426E+01  0.13884890033E+02  0.51100000000E-03 0.  1.
        -12    1    3    3    0    0  0.38803798628E+02  0.12937535517E+02 -0.34779077997E+01  0.41051314910E+02  0.00000000000E+00 0.  1.
</event>
<event>
 7    1  0.1756449E-015  0.9000751E+02  0.7816164E-02  0.1186340E+00
        -11   -1    0    0    0    0  0.00000000000E+00  0.00000000000E+00  0.45593999997E+02  0.45594000000E+02  0.51100000000E-03 0.  1.
         11   -1    0    0    0    0 -0.00000000000E+00 -0.00000000000E+00 -0.45593999997E+02  0.45594000000E+02  0.51100000000E-03 0. -1.
    9900012    2    1    2    0    0  0.74284692456E+00 -0.88708705923E+00  0.23411171635E+00  0.90007511415E+02  0.89999769765E+02 0.  0.
        -12    1    1    2    0    0 -0.74284692456E+00  0.88708705923E+00 -0.23411171635E+00  0.11804885852E+01  0.00000000000E+00 0.  1.
         11    1    3    3    0    0 -0.22148162200E+02  0.27141735912E+02 -0.76003693805E+01  0.35846625115E+02  0.51100000000E-03 0. -1.
        -11    1    3    3    0    0 -0.25287637011E+01  0.84447151075E+01  0.35285526042E+01  0.94951852454E+01  0.51100000000E-03 0.  1.
        -12    1    3    3    0    0  0.25419772826E+02 -0.36473538079E+02  0.43059284926E+01  0.44665701054E+02  0.00000000000E+00 0.  1.
</event>
<event>
 7    1  0.1756449E-015  0.9000773E+02  0.7816164E-02  0.1186339E+00
        -11   -1    0    0    0    0  0.00000000000E+00  0.00000000000E+00  0.45593999997E+02  0.45594000000E+02  0.51100000000E-03 0. -1.
         11   -1    0    0    0    0 -0.00000000000E+00 -0.00000000000E+00 -0.45593999997E+02  0.45594000000E+02  0.51100000000E-03 0.  1.
    9900012    2    1    2    0    0 -0.14994595678E+00 -0.36322615395E+00  0.11129312789E+01  0.90007731785E+02  0.89999993044E+02 0.  0.
        -12    1    1    2    0    0  0.14994595678E+00  0.36322615395E+00 -0.11129312789E+01  0.11802682154E+01  0.00000000000E+00 0.  1.
         11    1    3    3    0    0 -0.84379500693E+01 -0.50007903776E+01  0.32585806454E+01  0.10335630308E+02  0.51100000000E-03 0. -1.
        -11    1    3    3    0    0  0.50740981944E+01  0.34958816466E+02  0.21263691051E+02  0.41231176051E+02  0.51100000000E-03 0.  1.
         12    1    3    3    0    0  0.32139059181E+01 -0.30321252242E+02 -0.23409340418E+02  0.38440925426E+02  0.00000000000E+00 0. -1.
</event>
<event>
 7    1  0.1756449E-015  0.9000800E+02  0.7816164E-02  0.1186339E+00
        -11   -1    0    0    0    0  0.00000000000E+00  0.00000000000E+00  0.45593999997E+02  0.45594000000E+02  0.51100000000E-03 0.  1.
         11   -1    0    0    0    0 -0.00000000000E+00 -0.00000000000E+00 -0.45593999997E+02  0.45594000000E+02  0.51100000000E-03 0. -1.
    9900012    2    1    2    0    0  0.93207855169E+00 -0.53830110090E+00  0.48358279974E+00  0.90008003887E+02  0.90000268738E+02 0.  0.
        -12    1    1    2    0    0 -0.93207855169E+00  0.53830110090E+00 -0.48358279974E+00  0.11799961127E+01  0.00000000000E+00 0.  1.
         11    1    3    3    0    0  0.18259941124E+02  0.74362588690E+01 -0.82548729246E+01  0.21374431526E+02  0.51100000000E-03 0. -1.
        -11    1    3    3    0    0  0.98286490847E+01  0.22024774459E+02 -0.71577027914E+01  0.25158015469E+02  0.51100000000E-03 0.  1.
         12    1    3    3    0    0 -0.27156511657E+02 -0.29999334429E+02  0.15896158516E+02  0.43475556892E+02  0.00000000000E+00 0. -1.
</event>
<event>
 7    1  0.1756449E-015  0.9000775E+02  0.7816164E-02  0.1186339E+00
        -11   -1    0    0    0    0  0.00000000000E+00  0.00000000000E+00  0.45593999997E+02  0.45594000000E+02  0.51100000000E-03 0. -1.
         11   -1    0    0    0    0 -0.00000000000E+00 -0.00000000000E+00 -0.45593999997E+02  0.45594000000E+02  0.51100000000E-03 0.  1.
    9900012    2    1    2    0    0  0.55092815227E+00 -0.79875926532E+00  0.67190125936E+00  0.90007750240E+02  0.90000011743E+02 0.  0.
        -12    1    1    2    0    0 -0.55092815227E+00  0.79875926532E+00 -0.67190125936E+00  0.11802497597E+01  0.00000000000E+00 0.  1.
         11    1    3    3    0    0 -0.11454550679E+02 -0.28595930793E+02 -0.25676799643E+02  0.40102768350E+02  0.51100000000E-03 0. -1.
        -11    1    3    3    0    0 -0.98724221291E+01  0.86936614305E+01  0.61088642863E+01  0.14503885372E+02  0.51100000000E-03 0.  1.
        -12    1    3    3    0    0  0.21877900960E+02  0.19103510097E+02  0.20239836616E+02  0.35401096518E+02  0.00000000000E+00 0.  1.
</event>
<event>
 7    1  0.1756449E-015  0.9000768E+02  0.7816164E-02  0.1186339E+00
        -11   -1    0    0    0    0  0.00000000000E+00  0.00000000000E+00  0.45593999997E+02  0.45594000000E+02  0.51100000000E-03 0. -1.
         11   -1    0    0    0    0 -0.00000000000E+00 -0.00000000000E+00 -0.45593999997E+02  0.45594000000E+02  0.51100000000E-03 0.  1.
    9900012    2    1    2    0    0 -0.14056745736E-01 -0.11833343869E+00  0.11742854833E+01  0.90007683605E+02  0.89999944229E+02 0.  0.
        -12    1    1    2    0    0  0.14056745736E-01  0.11833343869E+00 -0.11742854833E+01  0.11803163945E+01  0.00000000000E+00 0.  1.
         11    1    3    3    0    0  0.25335736454E+01 -0.56916270948E+01  0.30969640098E+02  0.31590065250E+02  0.51100000000E-03 0. -1.
        -11    1    3    3    0    0  0.71205327581E+01  0.51496760118E+00  0.12686258923E+02  0.14557071962E+02  0.51100000000E-03 0.  1.
        -12    1    3    3    0    0 -0.96681631492E+01  0.50583260549E+01 -0.42481613538E+02  0.43860546394E+02  0.00000000000E+00 0.  1.
</event>
<event>
 7    1  0.1756449E-015  0.9000771E+02  0.7816164E-02  0.1186339E+00
        -11   -1    0    0    0    0  0.00000000000E+00  0.00000000000E+00  0.45593999997E+02  0.45594000000E+02  0.51100000000E-03 0.  1.
         11   -1    0    0    0    0 -0.00000000000E+00 -0.00000000000E+00 -0.45593999997E+02  0.45594000000E+02  0.51100000000E-03 0. -1.
    9900012    2    1    2    0    0  0.24297488457E+00  0.57934655696E+00  0.99919668051E+00  0.90007714766E+02  0.89999975801E+02 0.  0.
        -12    1    1    2    0    0 -0.24297488457E+00 -0.57934655696E+00 -0.99919668051E+00  0.11802852341E+01  0.00000000000E+00 0.  1.
         11    1    3    3    0    0 -0.14105035782E+01 -0.14277999801E+01  0.10963512758E+02  0.11145705244E+02  0.51100000000E-03 0. -1.
        -11    1    3    3    0    0 -0.96116928243E+01 -0.36632767098E+02 -0.69077585824E+01  0.38497550482E+02  0.51100000000E-03 0.  1.
         12    1    3    3    0    0  0.11265171287E+02  0.38639913635E+02 -0.30565574950E+01  0.40364459040E+02  0.00000000000E+00 0. -1.
</event>
<event>
 7    1  0.1756449E-015  0.9000783E+02  0.7816164E-02  0.1186339E+00
        -11   -1    0    0    0    0  0.00000000000E+00  0.00000000000E+00  0.45593999997E+02  0.45594000000E+02  0.51100000000E-03 0.  1.
         11   -1    0    0    0    0 -0.00000000000E+00 -0.00000000000E+00 -0.45593999997E+02  0.45594000000E+02  0.51100000000E-03 0. -1.
    9900012    2    1    2    0    0 -0.49833011221E+00 -0.41374947306E+00 -0.98654378970E+00  0.90007834683E+02  0.90000097300E+02 0.  0.
        -12    1    1    2    0    0  0.49833011221E+00  0.41374947306E+00  0.98654378970E+00  0.11801653173E+01  0.00000000000E+00 0.  1.
         11    1    3    3    0    0 -0.30959478045E+02 -0.12734568630E+02 -0.13650004420E+02  0.36152194124E+02  0.51100000000E-03 0. -1.
        -11    1    3    3    0    0 -0.41746836926E+01 -0.17471005544E+01 -0.94099027243E+01  0.10441581002E+02  0.51100000000E-03 0.  1.
        -12    1    3    3    0    0  0.34635831626E+02  0.14067919711E+02  0.22073363355E+02  0.43414059557E+02  0.00000000000E+00 0.  1.
</event>
<event>
 7    1  0.1756449E-015  0.9000773E+02  0.7816164E-02  0.1186339E+00
        -11   -1    0    0    0    0  0.00000000000E+00  0.00000000000E+00  0.45593999997E+02  0.45594000000E+02  0.51100000000E-03 0. -1.
         11   -1    0    0    0    0 -0.00000000000E+00 -0.00000000000E+00 -0.45593999997E+02  0.45594000000E+02  0.51100000000E-03 0.  1.
    9900012    2    1    2    0    0  0.95301044545E+00 -0.42443646917E+00  0.55197122901E+00  0.90007725683E+02  0.89999986862E+02 0.  0.
        -12    1    1    2    0    0 -0.95301044545E+00  0.42443646917E+00 -0.55197122901E+00  0.11802743169E+01  0.00000000000E+00 0.  1.
         11    1    3    3    0    0 -0.19342710861E+02 -0.29259536532E+02  0.19687304882E+02  0.40222517516E+02  0.51100000000E-03 0. -1.
        -11    1    3    3    0    0  0.17390253986E+02  0.54201308408E+00 -0.90222548678E+01  0.19598872290E+02  0.51100000000E-03 0.  1.
        -12    1    3    3    0    0  0.29054673211E+01  0.28293086979E+02 -0.10113078786E+02  0.30186335877E+02  0.00000000000E+00 0.  1.
</event>
<event>
 7    1  0.1756449E-015  0.9000770E+02  0.7816164E-02  0.1186339E+00
        -11   -1    0    0    0    0  0.00000000000E+00  0.00000000000E+00  0.45593999997E+02  0.45594000000E+02  0.51100000000E-03 0.  1.
         11   -1    0    0    0    0 -0.00000000000E+00 -0.00000000000E+00 -0.45593999997E+02  0.45594000000E+02  0.51100000000E-03 0. -1.
    9900012    2    1    2    0    0  0.73778987484E+00 -0.52552322498E+00  0.75670522790E+00  0.90007698614E+02  0.89999959436E+02 0.  0.
        -12    1    1    2    0    0 -0.73778987484E+00  0.52552322498E+00 -0.75670522790E+00  0.11803013858E+01  0.00000000000E+00 0.  1.
         11    1    3    3    0    0  0.17977191722E+02  0.22508251119E+02 -0.15715467729E+01  0.28849099643E+02  0.51100000000E-03 0. -1.
        -11    1    3    3    0    0  0.10662859635E+02 -0.64601759786E+01  0.20478199997E+02  0.23974718447E+02  0.51100000000E-03 0.  1.
         12    1    3    3    0    0 -0.27902261482E+02 -0.16573598366E+02 -0.18149947996E+02  0.37183880524E+02  0.00000000000E+00 0. -1.
</event>
<event>
 7    1  0.1756449E-015  0.9000775E+02  0.7816164E-02  0.1186339E+00
        -11   -1    0    0    0    0  0.00000000000E+00  0.00000000000E+00  0.45593999997E+02  0.45594000000E+02  0.51100000000E-03 0.  1.
         11   -1    0    0    0    0 -0.00000000000E+00 -0.00000000000E+00 -0.45593999997E+02  0.45594000000E+02  0.51100000000E-03 0. -1.
    9900012    2    1    2    0    0 -0.21638030188E+00 -0.41165503900E+00 -0.10847613906E+01  0.90007751051E+02  0.90000012565E+02 0.  0.
        -12    1    1    2    0    0  0.21638030188E+00  0.41165503900E+00  0.10847613906E+01  0.11802489486E+01  0.00000000000E+00 0.  1.
         11    1    3    3    0    0  0.13921620078E+02 -0.27870608610E+00 -0.38273532418E+02  0.40727784947E+02  0.51100000000E-03 0. -1.
        -11    1    3    3    0    0  0.72324861823E+01  0.53831475917E+01  0.51753894600E+01  0.10395758303E+02  0.51100000000E-03 0.  1.
        -12    1    3    3    0    0 -0.21370486563E+02 -0.55160965446E+01  0.32013381567E+02  0.38884207802E+02  0.00000000000E+00 0.  1.
</event>
<event>
 7    1  0.1756449E-015  0.9000778E+02  0.7816164E-02  0.1186339E+00
        -11   -1    0    0    0    0  0.00000000000E+00  0.00000000000E+00  0.45593999997E+02  0.45594000000E+02  0.51100000000E-03 0.  1.
         11   -1    0    0    0    0 -0.00000000000E+00 -0.00000000000E+00 -0.45593999997E+02  0.45594000000E+02  0.51100000000E-03 0. -1.
    9900012    2    1    2    0    0 -0.75326079140E+00  0.90822306789E+00 -0.25540800252E-01  0.90007778286E+02  0.90000040160E+02 0.  0.
        -12    1    1    2    0    0  0.75326079140E+00 -0.90822306789E+00  0.25540800252E-01  0.11802217137E+01  0.00000000000E+00 0.  1.
         11    1    3    3    0    0  0.20972550192E+02  0.26125825292E+02 -0.12214767973E+02  0.35659601311E+02  0.51100000000E-03 0. -1.
        -11    1    3    3    0    0  0.10172965690E+02 -0.38449533495E+01 -0.53675207752E+01  0.12127785318E+02  0.51100000000E-03 0.  1.
        -12    1    3    3    0    0 -0.31898776673E+02 -0.21372648875E+02  0.17556747948E+02  0.42220391657E+02  0.00000000000E+00 0.  1.
</event>
<event>
 7    1  0.1756449E-015  0.9000778E+02  0.7816164E-02  0.1186339E+00
        -11   -1    0    0    0    0  0.00000000000E+00  0.00000000000E+00  0.45593999997E+02  0.45594000000E+02  0.51100000000E-03 0. -1.
         11   -1    0    0    0    0 -0.00000000000E+00 -0.00000000000E+00 -0.45593999997E+02  0.45594000000E+02  0.51100000000E-03 0.  1.
    9900012    2    1    2    0    0  0.25533825699E+00  0.45787162464E+00  0.10573937937E+01  0.90007777273E+02  0.90000039133E+02 0.  0.
        -12    1    1    2    0    0 -0.25533825699E+00 -0.45787162464E+00 -0.10573937937E+01  0.11802227269E+01  0.00000000000E+00 0.  1.
         11    1    3    3    0    0  0.73334646728E+00  0.46141011882E+00 -0.74679491648E+01  0.75180423867E+01  0.51100000000E-03 0. -1.
        -11    1    3    3    0    0  0.15387733846E+02  0.34830484876E+02 -0.10842416379E+02  0.39591703965E+02  0.51100000000E-03 0.  1.
         12    1    3    3    0    0 -0.15865742057E+02 -0.34834023371E+02  0.19367759337E+02  0.42898030922E+02  0.00000000000E+00 0. -1.
</event>
<event>
 7    1  0.1756449E-015  0.9000776E+02  0.7816164E-02  0.1186339E+00
        -11   -1    0    0    0    0  0.00000000000E+00  0.00000000000E+00  0.45593999997E+02  0.45594000000E+02  0.51100000000E-03 0. -1.
         11   -1    0    0    0    0 -0.00000000000E+00 -0.00000000000E+00 -0.45593999997E+02  0.45594000000E+02  0.51100000000E-03 0.  1.
    9900012    2    1    2    0    0 -0.19040671398E+00  0.75485426130E+00  0.88707763561E+00  0.90007760023E+02  0.90000021655E+02 0.  0.
        -12    1    1    2    0    0  0.19040671398E+00 -0.75485426130E+00 -0.88707763561E+00  0.11802399774E+01  0.00000000000E+00 0.  1.
         11    1    3    3    0    0 -0.15728690690E+02  0.20123276795E+01  0.36651753575E+01  0.16274971096E+02  0.51100000000E-03 0. -1.
        -11    1    3    3    0    0 -0.21940393418E+02  0.16528222867E+02 -0.13895974723E+02  0.30784105123E+02  0.51100000000E-03 0.  1.
         12    1    3    3    0    0  0.37478677393E+02 -0.17785696285E+02  0.11117877001E+02  0.42948683804E+02  0.00000000000E+00 0. -1.
</event>
<event>
 7    1  0.1756449E-015  0.9000772E+02  0.7816164E-02  0.1186339E+00
        -11   -1    0    0    0    0  0.00000000000E+00  0.00000000000E+00  0.45593999997E+02  0.45594000000E+02  0.51100000000E-03 0. -1.
         11   -1    0    0    0    0 -0.00000000000E+00 -0.00000000000E+00 -0.45593999997E+02  0.45594000000E+02  0.51100000000E-03 0.  1.
    9900012    2    1    2    0    0 -0.39563328422E+00 -0.90609879290E+00  0.64460430807E+00  0.90007722307E+02  0.89999983442E+02 0.  0.
        -12    1    1    2    0    0  0.39563328422E+00  0.90609879290E+00 -0.64460430807E+00  0.11802776928E+01  0.00000000000E+00 0.  1.
         11    1    3    3    0    0  0.21031577448E+02 -0.10627070182E+02  0.29788266622E+02  0.37981610013E+02  0.51100000000E-03 0. -1.
        -11    1    3    3    0    0  0.84579856061E+00 -0.11505353394E+02 -0.37434444793E+01  0.12128557571E+02  0.51100000000E-03 0.  1.
        -12    1    3    3    0    0 -0.22273009293E+02  0.21226324784E+02 -0.25400217835E+02  0.39897554722E+02  0.00000000000E+00 0.  1.
</event>
<event>
 7    1  0.1756449E-015  0.9000774E+02  0.7816164E-02  0.1186339E+00
        -11   -1    0    0    0    0  0.00000000000E+00  0.00000000000E+00  0.45593999997E+02  0.45594000000E+02  0.51100000000E-03 0.  1.
         11   -1    0    0    0    0 -0.00000000000E+00 -0.00000000000E+00 -0.45593999997E+02  0.45594000000E+02  0.51100000000E-03 0. -1.
    9900012    2    1    2    0    0 -0.88006560482E+00 -0.69097233225E+00  0.37558137217E+00  0.90007737487E+02  0.89999998822E+02 0.  0.
        -12    1    1    2    0    0  0.88006560482E+00  0.69097233225E+00 -0.37558137217E+00  0.11802625131E+01  0.00000000000E+00 0.  1.
         11    1    3    3    0    0 -0.14859241479E+02  0.24232871884E+02  0.23513553621E+02  0.36890599632E+02  0.51100000000E-03 0. -1.
        -11    1    3    3    0    0 -0.15214845674E+01 -0.31874259223E+01  0.99752781975E+01  0.10582096894E+02  0.51100000000E-03 0.  1.
        -12    1    3    3    0    0  0.15500660441E+02 -0.21736418294E+02 -0.33113250446E+02  0.42535040960E+02  0.00000000000E+00 0.  1.
</event>
<event>
 7    1  0.1756449E-015  0.9000776E+02  0.7816164E-02  0.1186339E+00
        -11   -1    0    0    0    0  0.00000000000E+00  0.00000000000E+00  0.45593999997E+02  0.45594000000E+02  0.51100000000E-03 0.  1.
         11   -1    0    0    0    0 -0.00000000000E+00 -0.00000000000E+00 -0.45593999997E+02  0.45594000000E+02  0.51100000000E-03 0. -1.
    9900012    2    1    2    0    0  0.66708214604E+00 -0.87060772775E+00  0.43590663377E+00  0.90007758076E+02  0.90000019683E+02 0.  0.
        -12    1    1    2    0    0 -0.66708214604E+00  0.87060772775E+00 -0.43590663377E+00  0.11802419237E+01  0.00000000000E+00 0.  1.
         11    1    3    3    0    0 -0.16746286835E+02 -0.31527517597E+02 -0.20624917968E+02  0.41228748830E+02  0.51100000000E-03 0. -1.
        -11    1    3    3    0    0 -0.68050773860E+01  0.36699155779E+01  0.40080007458E+01  0.87086984571E+01  0.51100000000E-03 0.  1.
        -12    1    3    3    0    0  0.24218446367E+02  0.26986994292E+02  0.17052823856E+02  0.40070310790E+02  0.00000000000E+00 0.  1.
</event>
<event>
 7    1  0.1756449E-015  0.9000774E+02  0.7816164E-02  0.1186339E+00
        -11   -1    0    0    0    0  0.00000000000E+00  0.00000000000E+00  0.45593999997E+02  0.45594000000E+02  0.51100000000E-03 0.  1.
         11   -1    0    0    0    0 -0.00000000000E+00 -0.00000000000E+00 -0.45593999997E+02  0.45594000000E+02  0.51100000000E-03 0. -1.
    9900012    2    1    2    0    0  0.14816818168E+00  0.10559851114E+01 -0.50591870327E+00  0.90007740664E+02  0.90000002041E+02 0.  0.
        -12    1    1    2    0    0 -0.14816818168E+00 -0.10559851114E+01  0.50591870327E+00  0.11802593358E+01  0.00000000000E+00 0.  1.
         11    1    3    3    0    0  0.90268289301E+00  0.77458697027E+01  0.56525527657E+01  0.96314426171E+01  0.51100000000E-03 0. -1.
        -11    1    3    3    0    0  0.18425379140E+01  0.14821278558E+02  0.32664035682E+02  0.35916632238E+02  0.51100000000E-03 0.  1.
         12    1    3    3    0    0 -0.25970526253E+01 -0.21511163149E+02 -0.38822507151E+02  0.44459665809E+02  0.00000000000E+00 0. -1.
</event>
<event>
 7    1  0.2201506E-015  0.9000776E+02  0.7816164E-02  0.1186339E+00
        -11   -1    0    0    0    0  0.00000000000E+00  0.00000000000E+00  0.45593999997E+02  0.45594000000E+02  0.51100000000E-03 0.  1.
         11   -1    0    0    0    0 -0.00000000000E+00 -0.00000000000E+00 -0.45593999997E+02  0.45594000000E+02  0.51100000000E-03 0. -1.
    9900012    2    1    2    0    0  0.90751086562E+00 -0.63091748115E+00  0.41392300034E+00  0.90007760580E+02  0.90000022219E+02 0.  0.
        -12    1    1    2    0    0 -0.90751086562E+00  0.63091748115E+00 -0.41392300034E+00  0.11802394204E+01  0.00000000000E+00 0.  1.
         11    1    3    3    0    0 -0.13201330333E+01  0.14189708094E+01 -0.92852032989E+01  0.94853165443E+01  0.51100000000E-03 0. -1.
        -11    1    3    3    0    0  0.17670329437E+02  0.29094866133E+02 -0.15682720866E+02  0.37479321121E+02  0.51100000000E-03 0.  1.
         12    1    3    3    0    0 -0.15442685538E+02 -0.31144754423E+02  0.25381847165E+02  0.43043122914E+02  0.00000000000E+00 0. -1.
</event>
<event>
 7    1  0.1756449E-015  0.9000772E+02  0.7816164E-02  0.1186339E+00
        -11   -1    0    0    0    0  0.00000000000E+00  0.00000000000E+00  0.45593999997E+02  0.45594000000E+02  0.51100000000E-03 0.  1.
         11   -1    0    0    0    0 -0.00000000000E+00 -0.00000000000E+00 -0.45593999997E+02  0.45594000000E+02  0.51100000000E-03 0. -1.
    9900012    2    1    2    0    0  0.74230263389E-01  0.71785168655E-01 -0.11757511136E+01  0.90007722946E+02  0.89999984089E+02 0.  0.
        -12    1    1    2    0    0 -0.74230263389E-01 -0.71785168655E-01  0.11757511136E+01  0.11802770537E+01  0.00000000000E+00 0.  1.
         11    1    3    3    0    0 -0.37196531774E+01 -0.37056032242E+02  0.78765175999E+01  0.38066059358E+02  0.51100000000E-03 0. -1.
        -11    1    3    3    0    0  0.12108538352E+02 -0.74593795639E+00 -0.43225628771E+01  0.12878574243E+02  0.51100000000E-03 0.  1.
        -12    1    3    3    0    0 -0.83146549113E+01  0.37873755367E+02 -0.47297058363E+01  0.39063089345E+02  0.00000000000E+00 0.  1.
</event>
<event>
 7    1  0.1756449E-015  0.9000779E+02  0.7816164E-02  0.1186339E+00
        -11   -1    0    0    0    0  0.00000000000E+00  0.00000000000E+00  0.45593999997E+02  0.45594000000E+02  0.51100000000E-03 0.  1.
         11   -1    0    0    0    0 -0.00000000000E+00 -0.00000000000E+00 -0.45593999997E+02  0.45594000000E+02  0.51100000000E-03 0. -1.
    9900012    2    1    2    0    0  0.60011639239E+00  0.10052199302E+01  0.14926267416E+00  0.90007794027E+02  0.90000056108E+02 0.  0.
        -12    1    1    2    0    0 -0.60011639239E+00 -0.10052199302E+01 -0.14926267416E+00  0.11802059729E+01  0.00000000000E+00 0.  1.
         11    1    3    3    0    0 -0.26937327609E+02  0.23466365846E+02  0.10978938588E+02  0.37374149321E+02  0.51100000000E-03 0. -1.
        -11    1    3    3    0    0 -0.62808476576E+01  0.21303462882E+01 -0.84635877201E+01  0.10752661994E+02  0.51100000000E-03 0.  1.
        -12    1    3    3    0    0  0.33818291659E+02 -0.24591492204E+02 -0.23660881940E+01  0.41880982711E+02  0.00000000000E+00 0.  1.
</event>
<event>
 7    1  0.1756449E-015  0.9000780E+02  0.7816164E-02  0.1186339E+00
        -11   -1    0    0    0    0  0.00000000000E+00  0.00000000000E+00  0.45593999997E+02  0.45594000000E+02  0.51100000000E-03 0.  1.
         11   -1    0    0    0    0 -0.00000000000E+00 -0.00000000000E+00 -0.45593999997E+02  0.45594000000E+02  0.51100000000E-03 0. -1.
    9900012    2    1    2    0    0  0.26279690828E-01 -0.34013890650E+00 -0.11298200538E+01  0.90007797284E+02  0.90000059408E+02 0.  0.
        -12    1    1    2    0    0 -0.26279690828E-01  0.34013890650E+00  0.11298200538E+01  0.11802027164E+01  0.00000000000E+00 0.  1.
         11    1    3    3    0    0  0.27297233796E+02  0.74147460908E+01 -0.24830179039E+02  0.37638480626E+02  0.51100000000E-03 0. -1.
        -11    1    3    3    0    0  0.43660935685E+01  0.67525369348E+01 -0.29163129537E+01  0.85536196788E+01  0.51100000000E-03 0.  1.
        -12    1    3    3    0    0 -0.31637047674E+02 -0.14507421932E+02  0.26616671939E+02  0.43815696978E+02  0.00000000000E+00 0.  1.
</event>
<event>
 7    1  0.1756449E-015  0.9000789E+02  0.7816164E-02  0.1186339E+00
        -11   -1    0    0    0    0  0.00000000000E+00  0.00000000000E+00  0.45593999997E+02  0.45594000000E+02  0.51100000000E-03 0.  1.
         11   -1    0    0    0    0 -0.00000000000E+00 -0.00000000000E+00 -0.45593999997E+02  0.45594000000E+02  0.51100000000E-03 0. -1.
    9900012    2    1    2    0    0  0.18261006265E+00 -0.23900785015E+00 -0.11411310080E+01  0.90007893579E+02  0.90000156974E+02 0.  0.
        -12    1    1    2    0    0 -0.18261006265E+00  0.23900785015E+00  0.11411310080E+01  0.11801064210E+01  0.00000000000E+00 0.  1.
         11    1    3    3    0    0 -0.30077206630E+02  0.14191543741E+02 -0.17967003847E+02  0.37800152115E+02  0.51100000000E-03 0. -1.
        -11    1    3    3    0    0 -0.34907960252E+01  0.81148445870E+01  0.29755567086E+01  0.93214965295E+01  0.51100000000E-03 0.  1.
        -12    1    3    3    0    0  0.33750612718E+02 -0.22545396178E+02  0.13850316130E+02  0.42886244935E+02  0.00000000000E+00 0.  1.
</event>
<event>
 7    1  0.1756449E-015  0.9000769E+02  0.7816164E-02  0.1186339E+00
        -11   -1    0    0    0    0  0.00000000000E+00  0.00000000000E+00  0.45593999997E+02  0.45594000000E+02  0.51100000000E-03 0. -1.
         11   -1    0    0    0    0 -0.00000000000E+00 -0.00000000000E+00 -0.45593999997E+02  0.45594000000E+02  0.51100000000E-03 0.  1.
    9900012    2    1    2    0    0  0.77628313549E+00 -0.87599011097E+00  0.15214619307E+00  0.90007693834E+02  0.89999954593E+02 0.  0.
        -12    1    1    2    0    0 -0.77628313549E+00  0.87599011097E+00 -0.15214619307E+00  0.11803061658E+01  0.00000000000E+00 0.  1.
         11    1    3    3    0    0 -0.32277291347E+02 -0.41763937398E+01  0.18532895684E+02  0.37453090982E+02  0.51100000000E-03 0. -1.
        -11    1    3    3    0    0 -0.70636126626E+01  0.48987992095E+01 -0.61992681136E+01  0.10598291511E+02  0.51100000000E-03 0.  1.
        -12    1    3    3    0    0  0.40117187145E+02 -0.15983955807E+01 -0.12181481378E+02  0.41956311342E+02  0.00000000000E+00 0.  1.
</event>
<event>
 7    1  0.1756449E-015  0.9000776E+02  0.7816164E-02  0.1186339E+00
        -11   -1    0    0    0    0  0.00000000000E+00  0.00000000000E+00  0.45593999997E+02  0.45594000000E+02  0.51100000000E-03 0.  1.
         11   -1    0    0    0    0 -0.00000000000E+00 -0.00000000000E+00 -0.45593999997E+02  0.45594000000E+02  0.51100000000E-03 0. -1.
    9900012    2    1    2    0    0 -0.62682019879E+00 -0.68306287387E+00 -0.73040583494E+00  0.90007758018E+02  0.90000019624E+02 0.  0.
        -12    1    1    2    0    0  0.62682019879E+00  0.68306287387E+00  0.73040583494E+00  0.11802419815E+01  0.00000000000E+00 0.  1.
         11    1    3    3    0    0 -0.24481756557E+01  0.36097904847E+02  0.80199317263E+01  0.37059028637E+02  0.51100000000E-03 0. -1.
        -11    1    3    3    0    0  0.39035660205E+01  0.33565565769E+01  0.79125987665E+01  0.94399957220E+01  0.51100000000E-03 0.  1.
        -12    1    3    3    0    0 -0.20822105635E+01 -0.40137524298E+02 -0.16662936328E+02  0.43508733659E+02  0.00000000000E+00 0.  1.
</event>
<event>
 7    1  0.1756449E-015  0.9000782E+02  0.7816164E-02  0.1186339E+00
        -11   -1    0    0    0    0  0.00000000000E+00  0.00000000000E+00  0.45593999997E+02  0.45594000000E+02  0.51100000000E-03 0.  1.
         11   -1    0    0    0    0 -0.00000000000E+00 -0.00000000000E+00 -0.45593999997E+02  0.45594000000E+02  0.51100000000E-03 0. -1.
    9900012    2    1    2    0    0 -0.56767047964E-01 -0.11678060230E+01  0.16072936134E+00  0.90007818941E+02  0.90000081351E+02 0.  0.
        -12    1    1    2    0    0  0.56767047964E-01  0.11678060230E+01 -0.16072936134E+00  0.11801810592E+01  0.00000000000E+00 0.  1.
         11    1    3    3    0    0  0.26638581011E+02 -0.14316990430E+02 -0.22310654902E+02  0.37581318972E+02  0.51100000000E-03 0. -1.
        -11    1    3    3    0    0  0.74020634192E+01 -0.46729847100E+01  0.57660773456E+01  0.10482126558E+02  0.51100000000E-03 0.  1.
        -12    1    3    3    0    0 -0.34097411479E+02  0.17822169117E+02  0.16705306918E+02  0.41944373410E+02  0.00000000000E+00 0.  1.
</event>
<event>
 7    1  0.1756449E-015  0.9000764E+02  0.7816164E-02  0.1186339E+00
        -11   -1    0    0    0    0  0.00000000000E+00  0.00000000000E+00  0.45593999997E+02  0.45594000000E+02  0.51100000000E-03 0. -1.
         11   -1    0    0    0    0 -0.00000000000E+00 -0.00000000000E+00 -0.45593999997E+02  0.45594000000E+02  0.51100000000E-03 0.  1.
    9900012    2    1    2    0    0 -0.41741579000E+00  0.10332294815E+01  0.38916224463E+00  0.90007641429E+02  0.89999901496E+02 0.  0.
        -12    1    1    2    0    0  0.41741579000E+00 -0.10332294815E+01 -0.38916224463E+00  0.11803585709E+01  0.00000000000E+00 0.  1.
         11    1    3    3    0    0  0.29339169511E+02  0.10927211016E+02 -0.17814895231E+02  0.36021678202E+02  0.51100000000E-03 0. -1.
        -11    1    3    3    0    0  0.31738123243E+01  0.24900855372E+01 -0.87700566787E+01  0.96533675503E+01  0.51100000000E-03 0.  1.
        -12    1    3    3    0    0 -0.32930397625E+02 -0.12384067072E+02  0.26974114154E+02  0.44332595676E+02  0.00000000000E+00 0.  1.
</event>
<event>
 7    1  0.1756449E-015  0.9000771E+02  0.7816164E-02  0.1186339E+00
        -11   -1    0    0    0    0  0.00000000000E+00  0.00000000000E+00  0.45593999997E+02  0.45594000000E+02  0.51100000000E-03 0.  1.
         11   -1    0    0    0    0 -0.00000000000E+00 -0.00000000000E+00 -0.45593999997E+02  0.45594000000E+02  0.51100000000E-03 0. -1.
    9900012    2    1    2    0    0 -0.25669469192E+00  0.47813755646E+00 -0.10481310986E+01  0.90007709151E+02  0.89999970112E+02 0.  0.
        -12    1    1    2    0    0  0.25669469192E+00 -0.47813755646E+00  0.10481310986E+01  0.11802908488E+01  0.00000000000E+00 0.  1.
         11    1    3    3    0    0  0.29315828177E+01 -0.80508817596E+01  0.82147644731E+01  0.11869845430E+02  0.51100000000E-03 0. -1.
        -11    1    3    3    0    0 -0.37509642778E+02 -0.46983279483E+01  0.60717730421E+01  0.38287256561E+02  0.51100000000E-03 0.  1.
         12    1    3    3    0    0  0.34321365268E+02  0.13227347264E+02 -0.15334668614E+02  0.39850607160E+02  0.00000000000E+00 0. -1.
</event>
<event>
 7    1  0.1756449E-015  0.9000794E+02  0.7816164E-02  0.1186339E+00
        -11   -1    0    0    0    0  0.00000000000E+00  0.00000000000E+00  0.45593999997E+02  0.45594000000E+02  0.51100000000E-03 0.  1.
         11   -1    0    0    0    0 -0.00000000000E+00 -0.00000000000E+00 -0.45593999997E+02  0.45594000000E+02  0.51100000000E-03 0. -1.
    9900012    2    1    2    0    0  0.99087504695E+00  0.41213588543E+00 -0.49077088000E+00  0.90007938390E+02  0.90000202377E+02 0.  0.
        -12    1    1    2    0    0 -0.99087504695E+00 -0.41213588543E+00  0.49077088000E+00  0.11800616100E+01  0.00000000000E+00 0.  1.
         11    1    3    3    0    0 -0.68498235588E+01  0.53376421386E+01 -0.67582504826E+01  0.11003838250E+02  0.51100000000E-03 0. -1.
        -11    1    3    3    0    0  0.16654757556E+02 -0.35644595284E+02 -0.13300177410E+02  0.41530866132E+02  0.51100000000E-03 0.  1.
         12    1    3    3    0    0 -0.88140589503E+01  0.30719089031E+02  0.19567657012E+02  0.37473234008E+02  0.00000000000E+00 0. -1.
</event>
<event>
 7    1  0.1756449E-015  0.9000772E+02  0.7816164E-02  0.1186339E+00
        -11   -1    0    0    0    0  0.00000000000E+00  0.00000000000E+00  0.45593999997E+02  0.45594000000E+02  0.51100000000E-03 0.  1.
         11   -1    0    0    0    0 -0.00000000000E+00 -0.00000000000E+00 -0.45593999997E+02  0.45594000000E+02  0.51100000000E-03 0. -1.
    9900012    2    1    2    0    0  0.95656071774E+00  0.68728198847E+00  0.75398855400E-01  0.90007724640E+02  0.89999985805E+02 0.  0.
        -12    1    1    2    0    0 -0.95656071774E+00 -0.68728198847E+00 -0.75398855400E-01  0.11802753602E+01  0.00000000000E+00 0.  1.
         11    1    3    3    0    0  0.55886299721E+01 -0.53895505956E+01 -0.18268377435E-01  0.77640437004E+01  0.51100000000E-03 0. -1.
        -11    1    3    3    0    0  0.30532679648E+02 -0.90749527890E+01  0.21448662363E+02  0.38401099100E+02  0.51100000000E-03 0.  1.
         12    1    3    3    0    0 -0.35164748903E+02  0.15151785373E+02 -0.21354995130E+02  0.43842581840E+02  0.00000000000E+00 0. -1.
</event>
<event>
 7    1  0.1756449E-015  0.9000769E+02  0.7816164E-02  0.1186339E+00
        -11   -1    0    0    0    0  0.00000000000E+00  0.00000000000E+00  0.45593999997E+02  0.45594000000E+02  0.51100000000E-03 0. -1.
         11   -1    0    0    0    0 -0.00000000000E+00 -0.00000000000E+00 -0.45593999997E+02  0.45594000000E+02  0.51100000000E-03 0.  1.
    9900012    2    1    2    0    0 -0.13574672526E+00 -0.92226176901E+00  0.72396858478E+00  0.90007693067E+02  0.89999953816E+02 0.  0.
        -12    1    1    2    0    0  0.13574672526E+00  0.92226176901E+00 -0.72396858478E+00  0.11803069329E+01  0.00000000000E+00 0.  1.
         11    1    3    3    0    0 -0.26642761713E+01  0.80111946061E+01 -0.34706140450E+01  0.91281306216E+01  0.51100000000E-03 0. -1.
        -11    1    3    3    0    0  0.11645591794E+02 -0.36522253169E+02 -0.19846636071E+02  0.43166928873E+02  0.51100000000E-03 0.  1.
         12    1    3    3    0    0 -0.91170623476E+01  0.27588796793E+02  0.24041218701E+02  0.37712633573E+02  0.00000000000E+00 0. -1.
</event>
<event>
 7    1  0.1756449E-015  0.9000775E+02  0.7816164E-02  0.1186339E+00
        -11   -1    0    0    0    0  0.00000000000E+00  0.00000000000E+00  0.45593999997E+02  0.45594000000E+02  0.51100000000E-03 0. -1.
         11   -1    0    0    0    0 -0.00000000000E+00 -0.00000000000E+00 -0.45593999997E+02  0.45594000000E+02  0.51100000000E-03 0.  1.
    9900012    2    1    2    0    0  0.10587369583E+01  0.66862887164E-01  0.51729327282E+00  0.90007751330E+02  0.90000012848E+02 0.  0.
        -12    1    1    2    0    0 -0.10587369583E+01 -0.66862887164E-01 -0.51729327282E+00  0.11802486698E+01  0.00000000000E+00 0.  1.
         11    1    3    3    0    0 -0.75512179893E+01 -0.63951531594E+01  0.10833152843E+01  0.99545190401E+01  0.51100000000E-03 0. -1.
        -11    1    3    3    0    0  0.35528630866E+02 -0.21265046543E+02 -0.18674129375E+00  0.41406771043E+02  0.51100000000E-03 0.  1.
         12    1    3    3    0    0 -0.26918675918E+02  0.27727062590E+02 -0.37928071775E+00  0.38646461247E+02  0.00000000000E+00 0. -1.
</event>
<event>
 7    1  0.1756449E-015  0.9000771E+02  0.7816164E-02  0.1186339E+00
        -11   -1    0    0    0    0  0.00000000000E+00  0.00000000000E+00  0.45593999997E+02  0.45594000000E+02  0.51100000000E-03 0. -1.
         11   -1    0    0    0    0 -0.00000000000E+00 -0.00000000000E+00 -0.45593999997E+02  0.45594000000E+02  0.51100000000E-03 0.  1.
    9900012    2    1    2    0    0  0.92613600589E-01 -0.10848691318E+01 -0.45559824774E+00  0.90007708479E+02  0.89999969431E+02 0.  0.
        -12    1    1    2    0    0 -0.92613600589E-01  0.10848691318E+01  0.45559824774E+00  0.11802915214E+01  0.00000000000E+00 0.  1.
         11    1    3    3    0    0  0.50182489121E+00 -0.78141409287E+01 -0.11154623019E+01  0.79092909343E+01  0.51100000000E-03 0. -1.
        -11    1    3    3    0    0 -0.11783017394E+02 -0.15610026420E+02 -0.34059246140E+02  0.39275242477E+02  0.51100000000E-03 0.  1.
         12    1    3    3    0    0  0.11373806104E+02  0.22339298217E+02  0.34719110194E+02  0.42823175067E+02  0.00000000000E+00 0. -1.
</event>
<event>
 7    1  0.1756449E-015  0.9000764E+02  0.7816164E-02  0.1186339E+00
        -11   -1    0    0    0    0  0.00000000000E+00  0.00000000000E+00  0.45593999997E+02  0.45594000000E+02  0.51100000000E-03 0.  1.
         11   -1    0    0    0    0 -0.00000000000E+00 -0.00000000000E+00 -0.45593999997E+02  0.45594000000E+02  0.51100000000E-03 0. -1.
    9900012    2    1    2    0    0  0.12332410094E+00  0.96571198999E+00 -0.66741972386E+00  0.90007636679E+02  0.89999896683E+02 0.  0.
        -12    1    1    2    0    0 -0.12332410094E+00 -0.96571198999E+00  0.66741972386E+00  0.11803633209E+01  0.00000000000E+00 0.  1.
         11    1    3    3    0    0  0.54036811400E+01 -0.20199251401E+02 -0.31604993134E+02  0.37895713719E+02  0.51100000000E-03 0. -1.
        -11    1    3    3    0    0  0.18279557505E+01  0.57524344159E+00 -0.76035709285E+01  0.78413403426E+01  0.51100000000E-03 0.  1.
        -12    1    3    3    0    0 -0.71083127896E+01  0.20589719949E+02  0.38541144339E+02  0.44270582617E+02  0.00000000000E+00 0.  1.
</event>
<event>
 7    1  0.1756449E-015  0.9000775E+02  0.7816164E-02  0.1186339E+00
        -11   -1    0    0    0    0  0.00000000000E+00  0.00000000000E+00  0.45593999997E+02  0.45594000000E+02  0.51100000000E-03 0.  1.
         11   -1    0    0    0    0 -0.00000000000E+00 -0.00000000000E+00 -0.45593999997E+02  0.45594000000E+02  0.51100000000E-03 0. -1.
    9900012    2    1    2    0    0  0.99804032631E-01  0.86151967769E+00 -0.80050338951E+00  0.90007753129E+02  0.90000014670E+02 0.  0.
        -12    1    1    2    0    0 -0.99804032631E-01 -0.86151967769E+00  0.80050338951E+00  0.11802468710E+01  0.00000000000E+00 0.  1.
         11    1    3    3    0    0  0.48352057485E+01 -0.80360780562E+01 -0.86664296823E+00  0.94185367999E+01  0.51100000000E-03 0. -1.
        -11    1    3    3    0    0  0.18132316987E+02 -0.93263716558E+01  0.31585218197E+02  0.37595054680E+02  0.51100000000E-03 0.  1.
         12    1    3    3    0    0 -0.22867718702E+02  0.18223969390E+02 -0.31519078618E+02  0.42994161649E+02  0.00000000000E+00 0. -1.
</event>
<event>
 7    1  0.2049479E-015  0.9000767E+02  0.7816164E-02  0.1186339E+00
        -11   -1    0    0    0    0  0.00000000000E+00  0.00000000000E+00  0.45593999997E+02  0.45594000000E+02  0.51100000000E-03 0.  1.
         11   -1    0    0    0    0 -0.00000000000E+00 -0.00000000000E+00 -0.45593999997E+02  0.45594000000E+02  0.51100000000E-03 0. -1.
    9900012    2    1    2    0    0 -0.67740140731E+00 -0.37455782778E+00 -0.89107500149E+00  0.90007669160E+02  0.89999929593E+02 0.  0.
        -12    1    1    2    0    0  0.67740140731E+00  0.37455782778E+00  0.89107500149E+00  0.11803308397E+01  0.00000000000E+00 0.  1.
         11    1    3    3    0    0 -0.23317355152E+02  0.13462443836E+02 -0.25892621364E+02  0.37354575178E+02  0.51100000000E-03 0. -1.
        -11    1    3    3    0    0  0.13192857758E+01  0.46919019359E+01 -0.79043481365E+01  0.92861821250E+01  0.51100000000E-03 0.  1.
        -12    1    3    3    0    0  0.21320667969E+02 -0.18528903600E+02  0.32905894499E+02  0.43366911857E+02  0.00000000000E+00 0.  1.
</event>
<event>
 7    1  0.1756449E-015  0.9000778E+02  0.7816164E-02  0.1186339E+00
        -11   -1    0    0    0    0  0.00000000000E+00  0.00000000000E+00  0.45593999997E+02  0.45594000000E+02  0.51100000000E-03 0.  1.
         11   -1    0    0    0    0 -0.00000000000E+00 -0.00000000000E+00 -0.45593999997E+02  0.45594000000E+02  0.51100000000E-03 0. -1.
    9900012    2    1    2    0    0 -0.31151593602E+00  0.11289232366E+01  0.14632959027E+00  0.90007778749E+02  0.90000040628E+02 0.  0.
        -12    1    1    2    0    0  0.31151593602E+00 -0.11289232366E+01 -0.14632959027E+00  0.11802212511E+01  0.00000000000E+00 0.  1.
         11    1    3    3    0    0  0.18450291108E+02  0.33885367521E+02  0.41914493146E+00  0.38585062612E+02  0.51100000000E-03 0. -1.
        -11    1    3    3    0    0  0.91117333522E+01 -0.27732357770E+01 -0.39685778333E+01  0.10318145746E+02  0.51100000000E-03 0.  1.
        -12    1    3    3    0    0 -0.27873540397E+02 -0.29983208507E+02  0.36957624921E+01  0.41104570391E+02  0.00000000000E+00 0.  1.
</event>
<event>
 7    1  0.1756449E-015  0.9000771E+02  0.7816164E-02  0.1186339E+00
        -11   -1    0    0    0    0  0.00000000000E+00  0.00000000000E+00  0.45593999997E+02  0.45594000000E+02  0.51100000000E-03 0. -1.
         11   -1    0    0    0    0 -0.00000000000E+00 -0.00000000000E+00 -0.45593999997E+02  0.45594000000E+02  0.51100000000E-03 0.  1.
    9900012    2    1    2    0    0 -0.95347634076E+00  0.52828169855E+00  0.45264512874E+00  0.90007709232E+02  0.89999970193E+02 0.  0.
        -12    1    1    2    0    0  0.95347634076E+00 -0.52828169855E+00 -0.45264512874E+00  0.11802907684E+01  0.00000000000E+00 0.  1.
         11    1    3    3    0    0 -0.21318538052E+01 -0.92795342715E+01  0.54970469717E+01  0.10994184036E+02  0.51100000000E-03 0. -1.
        -11    1    3    3    0    0 -0.35763291094E+02 -0.84662357803E+01  0.35158134949E+01  0.36919521705E+02  0.51100000000E-03 0.  1.
         12    1    3    3    0    0  0.36941668558E+02  0.18274051750E+02 -0.85602153378E+01  0.42094003491E+02  0.00000000000E+00 0. -1.
</event>
<event>
 7    1  0.1756449E-015  0.9000771E+02  0.7816164E-02  0.1186339E+00
        -11   -1    0    0    0    0  0.00000000000E+00  0.00000000000E+00  0.45593999997E+02  0.45594000000E+02  0.51100000000E-03 0.  1.
         11   -1    0    0    0    0 -0.00000000000E+00 -0.00000000000E+00 -0.45593999997E+02  0.45594000000E+02  0.51100000000E-03 0. -1.
    9900012    2    1    2    0    0 -0.99800413972E+00 -0.51260393869E+00 -0.36647930195E+00  0.90007710993E+02  0.89999971978E+02 0.  0.
        -12    1    1    2    0    0  0.99800413972E+00  0.51260393869E+00  0.36647930195E+00  0.11802890068E+01  0.00000000000E+00 0.  1.
         11    1    3    3    0    0  0.27727524556E+02 -0.14840047128E+02 -0.26515487893E+02  0.41135309835E+02  0.51100000000E-03 0. -1.
        -11    1    3    3    0    0  0.21244393210E+01 -0.30385915621E+01  0.85881034003E+01  0.93542397545E+01  0.51100000000E-03 0.  1.
        -12    1    3    3    0    0 -0.30849968016E+02  0.17366034752E+02  0.17560905191E+02  0.39518161404E+02  0.00000000000E+00 0.  1.
</event>
<event>
 7    1  0.1756449E-015  0.9000773E+02  0.7816164E-02  0.1186339E+00
        -11   -1    0    0    0    0  0.00000000000E+00  0.00000000000E+00  0.45593999997E+02  0.45594000000E+02  0.51100000000E-03 0. -1.
         11   -1    0    0    0    0 -0.00000000000E+00 -0.00000000000E+00 -0.45593999997E+02  0.45594000000E+02  0.51100000000E-03 0.  1.
    9900012    2    1    2    0    0  0.14055530086E+00 -0.49772726095E+00  0.10609187145E+01  0.90007730227E+02  0.89999991466E+02 0.  0.
        -12    1    1    2    0    0 -0.14055530086E+00  0.49772726095E+00 -0.10609187145E+01  0.11802697733E+01  0.00000000000E+00 0.  1.
         11    1    3    3    0    0 -0.17275343916E+02  0.21001726930E+00  0.37880840963E+02  0.41634597717E+02  0.51100000000E-03 0. -1.
        -11    1    3    3    0    0 -0.10494345728E+01 -0.85105228014E+01 -0.30494918178E+01  0.91010830061E+01  0.51100000000E-03 0.  1.
        -12    1    3    3    0    0  0.18465333790E+02  0.78027782711E+01 -0.33770430431E+02  0.39272049504E+02  0.00000000000E+00 0.  1.
</event>
<event>
 7    1  0.1756449E-015  0.9000770E+02  0.7816164E-02  0.1186339E+00
        -11   -1    0    0    0    0  0.00000000000E+00  0.00000000000E+00  0.45593999997E+02  0.45594000000E+02  0.51100000000E-03 0. -1.
         11   -1    0    0    0    0 -0.00000000000E+00 -0.00000000000E+00 -0.45593999997E+02  0.45594000000E+02  0.51100000000E-03 0.  1.
    9900012    2    1    2    0    0 -0.48409624686E+00  0.82124230574E+00 -0.69593020721E+00  0.90007700481E+02  0.89999961327E+02 0.  0.
        -12    1    1    2    0    0  0.48409624686E+00 -0.82124230574E+00  0.69593020721E+00  0.11802995189E+01  0.00000000000E+00 0.  1.
         11    1    3    3    0    0 -0.51167876595E+00 -0.39738062205E+02 -0.66745869033E+01  0.40297959173E+02  0.51100000000E-03 0. -1.
        -11    1    3    3    0    0 -0.79436500887E+01  0.13431342129E+00 -0.67155473476E+00  0.79731175114E+01  0.51100000000E-03 0.  1.
        -12    1    3    3    0    0  0.79712326078E+01  0.40424991089E+02  0.66502114309E+01  0.41736623796E+02  0.00000000000E+00 0.  1.
</event>
<event>
 7    1  0.1756449E-015  0.9000766E+02  0.7816164E-02  0.1186339E+00
        -11   -1    0    0    0    0  0.00000000000E+00  0.00000000000E+00  0.45593999997E+02  0.45594000000E+02  0.51100000000E-03 0.  1.
         11   -1    0    0    0    0 -0.00000000000E+00 -0.00000000000E+00 -0.45593999997E+02  0.45594000000E+02  0.51100000000E-03 0. -1.
    9900012    2    1    2    0    0 -0.10751786031E+01  0.36485413457E-01 -0.48564824572E+00  0.90007663424E+02  0.89999923781E+02 0.  0.
        -12    1    1    2    0    0  0.10751786031E+01 -0.36485413457E-01  0.48564824572E+00  0.11803365759E+01  0.00000000000E+00 0.  1.
         11    1    3    3    0    0 -0.21507107525E+02 -0.23971126986E+02 -0.13545758144E+02  0.34937918757E+02  0.51100000000E-03 0. -1.
        -11    1    3    3    0    0 -0.10122925640E+02 -0.50007789328E+01  0.39710496035E+01  0.11968736302E+02  0.51100000000E-03 0.  1.
        -12    1    3    3    0    0  0.30554854563E+02  0.29008391333E+02  0.90890602946E+01  0.43101008365E+02  0.00000000000E+00 0.  1.
</event>
<event>
 7    1  0.1756449E-015  0.9000782E+02  0.7816164E-02  0.1186339E+00
        -11   -1    0    0    0    0  0.00000000000E+00  0.00000000000E+00  0.45593999997E+02  0.45594000000E+02  0.51100000000E-03 0. -1.
         11   -1    0    0    0    0 -0.00000000000E+00 -0.00000000000E+00 -0.45593999997E+02  0.45594000000E+02  0.51100000000E-03 0.  1.
    9900012    2    1    2    0    0  0.66345900572E+00 -0.66951958892E+00  0.71021266935E+00  0.90007815113E+02  0.90000077472E+02 0.  0.
        -12    1    1    2    0    0 -0.66345900572E+00  0.66951958892E+00 -0.71021266935E+00  0.11801848872E+01  0.00000000000E+00 0.  1.
         11    1    3    3    0    0  0.29875944209E+02  0.19416076152E+02  0.10408327557E+02  0.37119931820E+02  0.51100000000E-03 0. -1.
        -11    1    3    3    0    0  0.32303145623E+01 -0.90739046432E+00  0.98689013266E+01  0.10423699117E+02  0.51100000000E-03 0.  1.
        -12    1    3    3    0    0 -0.32442799765E+02 -0.19178205276E+02 -0.19567016214E+02  0.42464184176E+02  0.00000000000E+00 0.  1.
</event>
<event>
 7    1  0.1756449E-015  0.9000776E+02  0.7816164E-02  0.1186339E+00
        -11   -1    0    0    0    0  0.00000000000E+00  0.00000000000E+00  0.45593999997E+02  0.45594000000E+02  0.51100000000E-03 0. -1.
         11   -1    0    0    0    0 -0.00000000000E+00 -0.00000000000E+00 -0.45593999997E+02  0.45594000000E+02  0.51100000000E-03 0.  1.
    9900012    2    1    2    0    0  0.93554132860E+00 -0.23344036502E+00  0.68060847614E+00  0.90007762787E+02  0.90000024456E+02 0.  0.
        -12    1    1    2    0    0 -0.93554132860E+00  0.23344036502E+00 -0.68060847614E+00  0.11802372132E+01  0.00000000000E+00 0.  1.
         11    1    3    3    0    0  0.15721253708E+02 -0.21488216719E+02  0.26595240177E+02  0.37632540125E+02  0.51100000000E-03 0. -1.
        -11    1    3    3    0    0 -0.35323795154E+01  0.33691620443E+01  0.97595223732E+01  0.10912251607E+02  0.51100000000E-03 0.  1.
        -12    1    3    3    0    0 -0.11253332864E+02  0.17885614310E+02 -0.35674154074E+02  0.41462971055E+02  0.00000000000E+00 0.  1.
</event>
<event>
 7    1  0.1756449E-015  0.9000883E+02  0.7816164E-02  0.1186337E+00
        -11   -1    0    0    0    0  0.00000000000E+00  0.00000000000E+00  0.45593999997E+02  0.45594000000E+02  0.51100000000E-03 0.  1.
         11   -1    0    0    0    0 -0.00000000000E+00 -0.00000000000E+00 -0.45593999997E+02  0.45594000000E+02  0.51100000000E-03 0. -1.
    9900012    2    1    2    0    0 -0.11097247902E+01  0.50390731451E-02  0.39864390257E+00  0.90008834421E+02  0.90001110228E+02 0.  0.
        -12    1    1    2    0    0  0.11097247902E+01 -0.50390731451E-02 -0.39864390257E+00  0.11791655792E+01  0.00000000000E+00 0.  1.
         11    1    3    3    0    0  0.83437212749E+01  0.18703524923E+02 -0.45226006478E+01  0.20973636932E+02  0.51100000000E-03 0. -1.
        -11    1    3    3    0    0 -0.27893786694E+02 -0.88024022008E+01 -0.20788387508E+02  0.35884574347E+02  0.51100000000E-03 0.  1.
         12    1    3    3    0    0  0.18440340629E+02 -0.98960836490E+01  0.25709632059E+02  0.33150623142E+02  0.00000000000E+00 0. -1.
</event>
<event>
 7    1  0.1756449E-015  0.9000813E+02  0.7816164E-02  0.1186338E+00
        -11   -1    0    0    0    0  0.00000000000E+00  0.00000000000E+00  0.45593999997E+02  0.45594000000E+02  0.51100000000E-03 0.  1.
         11   -1    0    0    0    0 -0.00000000000E+00 -0.00000000000E+00 -0.45593999997E+02  0.45594000000E+02  0.51100000000E-03 0. -1.
    9900012    2    1    2    0    0  0.11718048233E+01 -0.13704625245E+00 -0.13935102615E-01  0.90008126106E+02  0.90000392570E+02 0.  0.
        -12    1    1    2    0    0 -0.11718048233E+01  0.13704625245E+00  0.13935102615E-01  0.11798738942E+01  0.00000000000E+00 0.  1.
         11    1    3    3    0    0  0.40650510808E+02  0.65640350026E+01 -0.94542074858E+01  0.42248462977E+02  0.51100000000E-03 0. -1.
        -11    1    3    3    0    0 -0.50835511895E+01  0.78642908844E+01  0.31614910571E+01  0.98835514759E+01  0.51100000000E-03 0.  1.
        -12    1    3    3    0    0 -0.34395154796E+02 -0.14565372139E+02  0.62787813261E+01  0.37876111653E+02  0.00000000000E+00 0.  1.
</event>
<event>
 7    1  0.1756449E-015  0.9000769E+02  0.7816164E-02  0.1186339E+00
        -11   -1    0    0    0    0  0.00000000000E+00  0.00000000000E+00  0.45593999997E+02  0.45594000000E+02  0.51100000000E-03 0.  1.
         11   -1    0    0    0    0 -0.00000000000E+00 -0.00000000000E+00 -0.45593999997E+02  0.45594000000E+02  0.51100000000E-03 0. -1.
    9900012    2    1    2    0    0  0.82446779429E+00  0.25927078038E+00 -0.80384103684E+00  0.90007691187E+02  0.89999951911E+02 0.  0.
        -12    1    1    2    0    0 -0.82446779429E+00 -0.25927078038E+00  0.80384103684E+00  0.11803088129E+01  0.00000000000E+00 0.  1.
         11    1    3    3    0    0  0.27355079875E+02  0.20391705864E+02 -0.28578713375E+02  0.44506908693E+02  0.51100000000E-03 0. -1.
        -11    1    3    3    0    0 -0.70563176584E+01 -0.31025688097E+01  0.22943959538E+00  0.77116920908E+01  0.51100000000E-03 0.  1.
        -12    1    3    3    0    0 -0.19474294422E+02 -0.17029866274E+02  0.27545432742E+02  0.37789090403E+02  0.00000000000E+00 0.  1.
</event>
<event>
 7    1  0.1756449E-015  0.9000773E+02  0.7816164E-02  0.1186339E+00
        -11   -1    0    0    0    0  0.00000000000E+00  0.00000000000E+00  0.45593999997E+02  0.45594000000E+02  0.51100000000E-03 0.  1.
         11   -1    0    0    0    0 -0.00000000000E+00 -0.00000000000E+00 -0.45593999997E+02  0.45594000000E+02  0.51100000000E-03 0. -1.
    9900012    2    1    2    0    0  0.27393603258E+00  0.11406408702E+01  0.13015813500E+00  0.90007727284E+02  0.89999988484E+02 0.  0.
        -12    1    1    2    0    0 -0.27393603258E+00 -0.11406408702E+01 -0.13015813500E+00  0.11802727163E+01  0.00000000000E+00 0.  1.
         11    1    3    3    0    0  0.42271225383E+01 -0.35164920160E+02 -0.54511629184E+01  0.35835113398E+02  0.51100000000E-03 0. -1.
        -11    1    3    3    0    0  0.87141826678E+00 -0.79418033595E+01  0.54348160213E+01  0.96627550856E+01  0.51100000000E-03 0.  1.
        -12    1    3    3    0    0 -0.48246047725E+01  0.44247364390E+02  0.14650503209E+00  0.44509858800E+02  0.00000000000E+00 0.  1.
</event>
<event>
 7    1  0.1756449E-015  0.9000765E+02  0.7816164E-02  0.1186339E+00
        -11   -1    0    0    0    0  0.00000000000E+00  0.00000000000E+00  0.45593999997E+02  0.45594000000E+02  0.51100000000E-03 0. -1.
         11   -1    0    0    0    0 -0.00000000000E+00 -0.00000000000E+00 -0.45593999997E+02  0.45594000000E+02  0.51100000000E-03 0.  1.
    9900012    2    1    2    0    0  0.94295720855E+00  0.41640184494E+00  0.57504167526E+00  0.90007647628E+02  0.89999907777E+02 0.  0.
        -12    1    1    2    0    0 -0.94295720855E+00 -0.41640184494E+00 -0.57504167526E+00  0.11803523719E+01  0.00000000000E+00 0.  1.
         11    1    3    3    0    0  0.52266124047E+01 -0.74338711195E+01  0.65418326491E+00  0.91108656589E+01  0.51100000000E-03 0. -1.
        -11    1    3    3    0    0 -0.71529834632E+00 -0.28219904206E+00 -0.39996269514E+02  0.40003660624E+02  0.51100000000E-03 0.  1.
         12    1    3    3    0    0 -0.35683568498E+01  0.81324720065E+01  0.39917127925E+02  0.40893121345E+02  0.00000000000E+00 0. -1.
</event>
<event>
 7    1  0.1756449E-015  0.9000771E+02  0.7816164E-02  0.1186339E+00
        -11   -1    0    0    0    0  0.00000000000E+00  0.00000000000E+00  0.45593999997E+02  0.45594000000E+02  0.51100000000E-03 0.  1.
         11   -1    0    0    0    0 -0.00000000000E+00 -0.00000000000E+00 -0.45593999997E+02  0.45594000000E+02  0.51100000000E-03 0. -1.
    9900012    2    1    2    0    0 -0.18654021440E+00 -0.11053627973E+01  0.36939327521E+00  0.90007713782E+02  0.89999974804E+02 0.  0.
        -12    1    1    2    0    0  0.18654021440E+00  0.11053627973E+01 -0.36939327521E+00  0.11802862182E+01  0.00000000000E+00 0.  1.
         11    1    3    3    0    0 -0.25144367147E+02 -0.16902747204E+02 -0.18855062947E+02  0.35685507720E+02  0.51100000000E-03 0. -1.
        -11    1    3    3    0    0  0.14678823019E+01 -0.49063322021E+01 -0.10162670417E+02  0.11380098611E+02  0.51100000000E-03 0.  1.
        -12    1    3    3    0    0  0.23489944631E+02  0.20703716608E+02  0.29387126639E+02  0.42942107450E+02  0.00000000000E+00 0.  1.
</event>
<event>
 7    1  0.1756449E-015  0.9000782E+02  0.7816164E-02  0.1186339E+00
        -11   -1    0    0    0    0  0.00000000000E+00  0.00000000000E+00  0.45593999997E+02  0.45594000000E+02  0.51100000000E-03 0.  1.
         11   -1    0    0    0    0 -0.00000000000E+00 -0.00000000000E+00 -0.45593999997E+02  0.45594000000E+02  0.51100000000E-03 0. -1.
    9900012    2    1    2    0    0  0.19753665947E+00 -0.83104935584E+00 -0.81434820130E+00  0.90007819185E+02  0.90000081598E+02 0.  0.
        -12    1    1    2    0    0 -0.19753665947E+00  0.83104935584E+00  0.81434820130E+00  0.11801808152E+01  0.00000000000E+00 0.  1.
         11    1    3    3    0    0  0.27015893225E+02 -0.19354452696E+02  0.13330716826E+02  0.35807280506E+02  0.51100000000E-03 0. -1.
        -11    1    3    3    0    0  0.62637944995E+01 -0.78257837715E+01 -0.24094010111E+01  0.10309375668E+02  0.51100000000E-03 0.  1.
        -12    1    3    3    0    0 -0.33082151065E+02  0.26349187112E+02 -0.11735664016E+02  0.43891163011E+02  0.00000000000E+00 0.  1.
</event>
<event>
 7    1  0.1756449E-015  0.9000759E+02  0.7816164E-02  0.1186339E+00
        -11   -1    0    0    0    0  0.00000000000E+00  0.00000000000E+00  0.45593999997E+02  0.45594000000E+02  0.51100000000E-03 0.  1.
         11   -1    0    0    0    0 -0.00000000000E+00 -0.00000000000E+00 -0.45593999997E+02  0.45594000000E+02  0.51100000000E-03 0. -1.
    9900012    2    1    2    0    0 -0.91778988230E+00 -0.67175899990E+00 -0.31587650124E+00  0.90007586350E+02  0.89999845689E+02 0.  0.
        -12    1    1    2    0    0  0.91778988230E+00  0.67175899990E+00  0.31587650124E+00  0.11804136504E+01  0.00000000000E+00 0.  1.
         11    1    3    3    0    0  0.18856233128E+02 -0.30108412064E+02  0.40204418578E+01  0.35752453871E+02  0.51100000000E-03 0. -1.
        -11    1    3    3    0    0  0.96802606062E+01 -0.25695122737E+01  0.22436364848E+01  0.10263710034E+02  0.51100000000E-03 0.  1.
        -12    1    3    3    0    0 -0.29454283617E+02  0.32006165338E+02 -0.65799548438E+01  0.43991422445E+02  0.00000000000E+00 0.  1.
</event>
<event>
 7    1  0.1756449E-015  0.9000777E+02  0.7816164E-02  0.1186339E+00
        -11   -1    0    0    0    0  0.00000000000E+00  0.00000000000E+00  0.45593999997E+02  0.45594000000E+02  0.51100000000E-03 0.  1.
         11   -1    0    0    0    0 -0.00000000000E+00 -0.00000000000E+00 -0.45593999997E+02  0.45594000000E+02  0.51100000000E-03 0. -1.
    9900012    2    1    2    0    0 -0.63307443146E-01  0.12858934385E+00 -0.11714933268E+01  0.90007771350E+02  0.90000033132E+02 0.  0.
        -12    1    1    2    0    0  0.63307443146E-01 -0.12858934385E+00  0.11714933268E+01  0.11802286501E+01  0.00000000000E+00 0.  1.
         11    1    3    3    0    0  0.14272171842E+02  0.27959596000E+02 -0.21717458782E+02  0.38171742346E+02  0.51100000000E-03 0. -1.
        -11    1    3    3    0    0 -0.18128492840E+01  0.72973268124E+01 -0.25854193863E+01  0.79512134167E+01  0.51100000000E-03 0.  1.
        -12    1    3    3    0    0 -0.12522630001E+02 -0.35128333468E+02  0.23131384842E+02  0.43884815587E+02  0.00000000000E+00 0.  1.
</event>
<event>
 7    1  0.1756449E-015  0.9000780E+02  0.7816164E-02  0.1186339E+00
        -11   -1    0    0    0    0  0.00000000000E+00  0.00000000000E+00  0.45593999997E+02  0.45594000000E+02  0.51100000000E-03 0. -1.
         11   -1    0    0    0    0 -0.00000000000E+00 -0.00000000000E+00 -0.45593999997E+02  0.45594000000E+02  0.51100000000E-03 0.  1.
    9900012    2    1    2    0    0  0.76611465415E+00 -0.39442308755E+00  0.80646019127E+00  0.90007796935E+02  0.90000059054E+02 0.  0.
        -12    1    1    2    0    0 -0.76611465415E+00  0.39442308755E+00 -0.80646019127E+00  0.11802030653E+01  0.00000000000E+00 0.  1.
         11    1    3    3    0    0  0.17826658262E+02  0.11943836345E+02  0.31804391125E+01  0.21692398776E+02  0.51100000000E-03 0. -1.
        -11    1    3    3    0    0 -0.55062168069E+01 -0.71787879277E+01 -0.33508101646E+02  0.34708014864E+02  0.51100000000E-03 0.  1.
        -12    1    3    3    0    0 -0.11554326801E+02 -0.51594715052E+01  0.31134122725E+02  0.33607383294E+02  0.00000000000E+00 0.  1.
</event>
<event>
 7    1  0.1756449E-015  0.9000781E+02  0.7816164E-02  0.1186339E+00
        -11   -1    0    0    0    0  0.00000000000E+00  0.00000000000E+00  0.45593999997E+02  0.45594000000E+02  0.51100000000E-03 0.  1.
         11   -1    0    0    0    0 -0.00000000000E+00 -0.00000000000E+00 -0.45593999997E+02  0.45594000000E+02  0.51100000000E-03 0. -1.
    9900012    2    1    2    0    0  0.81619116704E+00  0.79435845773E+00 -0.30931941611E+00  0.90007808540E+02  0.90000070813E+02 0.  0.
        -12    1    1    2    0    0 -0.81619116704E+00 -0.79435845773E+00  0.30931941611E+00  0.11801914598E+01  0.00000000000E+00 0.  1.
         11    1    3    3    0    0  0.40269317646E-02 -0.57362117892E+01  0.10529744073E+02  0.11990815335E+02  0.51100000000E-03 0. -1.
        -11    1    3    3    0    0  0.65304525421E+01  0.24405420288E+02  0.26260846103E+02  0.36440408726E+02  0.51100000000E-03 0.  1.
         12    1    3    3    0    0 -0.57182883068E+01 -0.17874850041E+02 -0.37099909592E+02  0.41576584478E+02  0.00000000000E+00 0. -1.
</event>
<event>
 7    1  0.1756449E-015  0.9000769E+02  0.7816164E-02  0.1186339E+00
        -11   -1    0    0    0    0  0.00000000000E+00  0.00000000000E+00  0.45593999997E+02  0.45594000000E+02  0.51100000000E-03 0. -1.
         11   -1    0    0    0    0 -0.00000000000E+00 -0.00000000000E+00 -0.45593999997E+02  0.45594000000E+02  0.51100000000E-03 0.  1.
    9900012    2    1    2    0    0  0.83520609272E-01  0.92720688387E+00  0.72556656389E+00  0.90007688543E+02  0.89999949231E+02 0.  0.
        -12    1    1    2    0    0 -0.83520609272E-01 -0.92720688387E+00 -0.72556656389E+00  0.11803114573E+01  0.00000000000E+00 0.  1.
         11    1    3    3    0    0 -0.98169067589E+01 -0.46551342474E+01 -0.17300156731E+01  0.11001585689E+02  0.51100000000E-03 0. -1.
        -11    1    3    3    0    0 -0.22759932826E+02 -0.23362091001E+02  0.11224756107E+02  0.34493433985E+02  0.51100000000E-03 0.  1.
         12    1    3    3    0    0  0.32660360194E+02  0.28944432133E+02 -0.87691738702E+01  0.44512668869E+02  0.00000000000E+00 0. -1.
</event>
<event>
 7    1  0.1756449E-015  0.9000779E+02  0.7816164E-02  0.1186339E+00
        -11   -1    0    0    0    0  0.00000000000E+00  0.00000000000E+00  0.45593999997E+02  0.45594000000E+02  0.51100000000E-03 0.  1.
         11   -1    0    0    0    0 -0.00000000000E+00 -0.00000000000E+00 -0.45593999997E+02  0.45594000000E+02  0.51100000000E-03 0. -1.
    9900012    2    1    2    0    0  0.79181575314E+00  0.21010976533E+00 -0.84956814325E+00  0.90007794793E+02  0.90000056884E+02 0.  0.
        -12    1    1    2    0    0 -0.79181575314E+00 -0.21010976533E+00  0.84956814325E+00  0.11802052069E+01  0.00000000000E+00 0.  1.
         11    1    3    3    0    0  0.29871875264E+01  0.38409501190E+01  0.98784499890E+01  0.11011810096E+02  0.51100000000E-03 0. -1.
        -11    1    3    3    0    0 -0.18758979320E+02 -0.89250298510E+01  0.28974599599E+02  0.35652249370E+02  0.51100000000E-03 0.  1.
         12    1    3    3    0    0  0.16563607547E+02  0.52941894973E+01 -0.39702617731E+02  0.43343735327E+02  0.00000000000E+00 0. -1.
</event>
<event>
 7    1  0.1756449E-015  0.9000774E+02  0.7816164E-02  0.1186339E+00
        -11   -1    0    0    0    0  0.00000000000E+00  0.00000000000E+00  0.45593999997E+02  0.45594000000E+02  0.51100000000E-03 0.  1.
         11   -1    0    0    0    0 -0.00000000000E+00 -0.00000000000E+00 -0.45593999997E+02  0.45594000000E+02  0.51100000000E-03 0. -1.
    9900012    2    1    2    0    0 -0.90339677756E+00 -0.75792978207E+00  0.49391741548E-01  0.90007736116E+02  0.89999997433E+02 0.  0.
        -12    1    1    2    0    0  0.90339677756E+00  0.75792978207E+00 -0.49391741548E-01  0.11802638842E+01  0.00000000000E+00 0.  1.
         11    1    3    3    0    0  0.26644366411E+02 -0.21996729244E+02  0.20884422367E+01  0.34614158232E+02  0.51100000000E-03 0. -1.
        -11    1    3    3    0    0  0.45310779822E+01 -0.82390448867E+01  0.59134449607E+01  0.11107716232E+02  0.51100000000E-03 0.  1.
        -12    1    3    3    0    0 -0.32078841170E+02  0.29477844349E+02 -0.79524954559E+01  0.44285861652E+02  0.00000000000E+00 0.  1.
</event>
<event>
 7    1  0.1762806E-015  0.9000775E+02  0.7816164E-02  0.1186339E+00
        -11   -1    0    0    0    0  0.00000000000E+00  0.00000000000E+00  0.45593999997E+02  0.45594000000E+02  0.51100000000E-03 0. -1.
         11   -1    0    0    0    0 -0.00000000000E+00 -0.00000000000E+00 -0.45593999997E+02  0.45594000000E+02  0.51100000000E-03 0.  1.
    9900012    2    1    2    0    0 -0.15374680475E+00  0.62570444565E+00  0.98885870735E+00  0.90007751858E+02  0.90000013383E+02 0.  0.
        -12    1    1    2    0    0  0.15374680475E+00 -0.62570444565E+00 -0.98885870735E+00  0.11802481419E+01  0.00000000000E+00 0.  1.
         11    1    3    3    0    0 -0.48912745261E+01  0.80866466056E+01  0.11134176877E+01  0.95162029729E+01  0.51100000000E-03 0. -1.
        -11    1    3    3    0    0 -0.27703487514E+02 -0.29687363389E+02  0.46796307679E+01  0.40874462808E+02  0.51100000000E-03 0.  1.
         12    1    3    3    0    0  0.32441015236E+02  0.22226421229E+02 -0.48041897483E+01  0.39617086078E+02  0.00000000000E+00 0. -1.
</event>
<event>
 7    1  0.1899390E-015  0.9000761E+02  0.7816164E-02  0.1186339E+00
        -11   -1    0    0    0    0  0.00000000000E+00  0.00000000000E+00  0.45593999997E+02  0.45594000000E+02  0.51100000000E-03 0. -1.
         11   -1    0    0    0    0 -0.00000000000E+00 -0.00000000000E+00 -0.45593999997E+02  0.45594000000E+02  0.51100000000E-03 0.  1.
    9900012    2    1    2    0    0 -0.79086074141E+00 -0.60545555146E+00  0.63347131691E+00  0.90007608943E+02  0.89999868581E+02 0.  0.
        -12    1    1    2    0    0  0.79086074141E+00  0.60545555146E+00 -0.63347131691E+00  0.11803910566E+01  0.00000000000E+00 0.  1.
         11    1    3    3    0    0  0.88957521052E+01  0.29295103350E+01  0.26764755986E+01  0.97406343845E+01  0.51100000000E-03 0. -1.
        -11    1    3    3    0    0  0.98701205474E+00 -0.29109961068E+02 -0.29358065090E+02  0.41355290015E+02  0.51100000000E-03 0.  1.
         12    1    3    3    0    0 -0.10673624901E+02  0.25574995182E+02  0.27315060808E+02  0.38911684544E+02  0.00000000000E+00 0. -1.
</event>
<event>
 7    1  0.1756449E-015  0.9000769E+02  0.7816164E-02  0.1186339E+00
        -11   -1    0    0    0    0  0.00000000000E+00  0.00000000000E+00  0.45593999997E+02  0.45594000000E+02  0.51100000000E-03 0.  1.
         11   -1    0    0    0    0 -0.00000000000E+00 -0.00000000000E+00 -0.45593999997E+02  0.45594000000E+02  0.51100000000E-03 0. -1.
    9900012    2    1    2    0    0 -0.27287679704E+00  0.50217275908E+00 -0.10327165776E+01  0.90007685315E+02  0.89999945961E+02 0.  0.
        -12    1    1    2    0    0  0.27287679704E+00 -0.50217275908E+00  0.10327165776E+01  0.11803146852E+01  0.00000000000E+00 0.  1.
         11    1    3    3    0    0 -0.54734544938E+01  0.13154378769E+01  0.65962011462E+01  0.86717328560E+01  0.51100000000E-03 0. -1.
        -11    1    3    3    0    0  0.32184270109E+02  0.22310586264E+02  0.11715079520E+02  0.40875819139E+02  0.51100000000E-03 0.  1.
         12    1    3    3    0    0 -0.26983692412E+02 -0.23123851382E+02 -0.19343997243E+02  0.40460133320E+02  0.00000000000E+00 0. -1.
</event>
<event>
 7    1  0.1756449E-015  0.9000774E+02  0.7816164E-02  0.1186339E+00
        -11   -1    0    0    0    0  0.00000000000E+00  0.00000000000E+00  0.45593999997E+02  0.45594000000E+02  0.51100000000E-03 0.  1.
         11   -1    0    0    0    0 -0.00000000000E+00 -0.00000000000E+00 -0.45593999997E+02  0.45594000000E+02  0.51100000000E-03 0. -1.
    9900012    2    1    2    0    0  0.62128897095E+00 -0.92157635879E+00 -0.39713478654E+00  0.90007737737E+02  0.89999999075E+02 0.  0.
        -12    1    1    2    0    0 -0.62128897095E+00  0.92157635879E+00  0.39713478654E+00  0.11802622629E+01  0.00000000000E+00 0.  1.
         11    1    3    3    0    0  0.52217406520E+01  0.11971494722E+02  0.84530116874E+01  0.15557527701E+02  0.51100000000E-03 0. -1.
        -11    1    3    3    0    0 -0.30156687127E+02  0.60085106496E+01  0.15475038740E+02  0.34423898718E+02  0.51100000000E-03 0.  1.
         12    1    3    3    0    0  0.25556235446E+02 -0.18901581730E+02 -0.24325185214E+02  0.40026311318E+02  0.00000000000E+00 0. -1.
</event>
<event>
 7    1  0.1756449E-015  0.9000767E+02  0.7816164E-02  0.1186339E+00
        -11   -1    0    0    0    0  0.00000000000E+00  0.00000000000E+00  0.45593999997E+02  0.45594000000E+02  0.51100000000E-03 0.  1.
         11   -1    0    0    0    0 -0.00000000000E+00 -0.00000000000E+00 -0.45593999997E+02  0.45594000000E+02  0.51100000000E-03 0. -1.
    9900012    2    1    2    0    0  0.11792000315E+01  0.49683172470E-01 -0.13996777206E-01  0.90007670791E+02  0.89999931245E+02 0.  0.
        -12    1    1    2    0    0 -0.11792000315E+01 -0.49683172470E-01  0.13996777206E-01  0.11803292090E+01  0.00000000000E+00 0.  1.
         11    1    3    3    0    0 -0.18895577503E+02  0.86478013872E+00 -0.32383248358E+02  0.37502872801E+02  0.51100000000E-03 0. -1.
        -11    1    3    3    0    0 -0.20140397209E+01 -0.90643519560E+01 -0.32074693535E+01  0.98237819751E+01  0.51100000000E-03 0.  1.
        -12    1    3    3    0    0  0.22088817256E+02  0.82492549898E+01  0.35576720934E+02  0.42681016015E+02  0.00000000000E+00 0.  1.
</event>
<event>
 7    1  0.1756449E-015  0.9000783E+02  0.7816164E-02  0.1186339E+00
        -11   -1    0    0    0    0  0.00000000000E+00  0.00000000000E+00  0.45593999997E+02  0.45594000000E+02  0.51100000000E-03 0. -1.
         11   -1    0    0    0    0 -0.00000000000E+00 -0.00000000000E+00 -0.45593999997E+02  0.45594000000E+02  0.51100000000E-03 0.  1.
    9900012    2    1    2    0    0 -0.42207797218E+00 -0.15600902523E+00  0.10910131978E+01  0.90007831187E+02  0.90000093758E+02 0.  0.
        -12    1    1    2    0    0  0.42207797218E+00  0.15600902523E+00 -0.10910131978E+01  0.11801688135E+01  0.00000000000E+00 0.  1.
         11    1    3    3    0    0 -0.28715624855E+01  0.86717966515E+00 -0.10154368009E+02  0.10588156667E+02  0.51100000000E-03 0. -1.
        -11    1    3    3    0    0  0.12846725713E+02  0.17033940568E+02 -0.27871066373E+02  0.35099712732E+02  0.51100000000E-03 0.  1.
         12    1    3    3    0    0 -0.10397241199E+02 -0.18057129258E+02  0.39116447580E+02  0.44319961788E+02  0.00000000000E+00 0. -1.
</event>
<event>
 7    1  0.1756449E-015  0.9000774E+02  0.7816164E-02  0.1186339E+00
        -11   -1    0    0    0    0  0.00000000000E+00  0.00000000000E+00  0.45593999997E+02  0.45594000000E+02  0.51100000000E-03 0.  1.
         11   -1    0    0    0    0 -0.00000000000E+00 -0.00000000000E+00 -0.45593999997E+02  0.45594000000E+02  0.51100000000E-03 0. -1.
    9900012    2    1    2    0    0 -0.27346547647E+00 -0.10994629886E+01 -0.33077167599E+00  0.90007740651E+02  0.90000002027E+02 0.  0.
        -12    1    1    2    0    0  0.27346547647E+00  0.10994629886E+01  0.33077167599E+00  0.11802593494E+01  0.00000000000E+00 0.  1.
         11    1    3    3    0    0  0.14444742191E+01  0.96399057818E+01 -0.85740804212E+01  0.12981877545E+02  0.51100000000E-03 0. -1.
        -11    1    3    3    0    0 -0.37079961126E+02 -0.13255127527E+02  0.12513078419E+02  0.41318265388E+02  0.51100000000E-03 0.  1.
         12    1    3    3    0    0  0.35362021430E+02  0.25157587564E+01 -0.42697696742E+01  0.35707597718E+02  0.00000000000E+00 0. -1.
</event>
<event>
 7    1  0.1756449E-015  0.9000773E+02  0.7816164E-02  0.1186339E+00
        -11   -1    0    0    0    0  0.00000000000E+00  0.00000000000E+00  0.45593999997E+02  0.45594000000E+02  0.51100000000E-03 0.  1.
         11   -1    0    0    0    0 -0.00000000000E+00 -0.00000000000E+00 -0.45593999997E+02  0.45594000000E+02  0.51100000000E-03 0. -1.
    9900012    2    1    2    0    0  0.66560464140E-01  0.67030053732E+00 -0.96917416313E+00  0.90007732376E+02  0.89999993643E+02 0.  0.
        -12    1    1    2    0    0 -0.66560464140E-01 -0.67030053732E+00  0.96917416313E+00  0.11802676240E+01  0.00000000000E+00 0.  1.
         11    1    3    3    0    0  0.41503877663E+01  0.23879618674E+01  0.74064456785E+01  0.88194964902E+01  0.51100000000E-03 0. -1.
        -11    1    3    3    0    0  0.12646139000E+02  0.35467380133E+02  0.56335119941E+01  0.38073564881E+02  0.51100000000E-03 0.  1.
         12    1    3    3    0    0 -0.16729966302E+02 -0.37185041463E+02 -0.14009131836E+02  0.43114671005E+02  0.00000000000E+00 0. -1.
</event>
<event>
 7    1  0.1756449E-015  0.9000772E+02  0.7816164E-02  0.1186339E+00
        -11   -1    0    0    0    0  0.00000000000E+00  0.00000000000E+00  0.45593999997E+02  0.45594000000E+02  0.51100000000E-03 0.  1.
         11   -1    0    0    0    0 -0.00000000000E+00 -0.00000000000E+00 -0.45593999997E+02  0.45594000000E+02  0.51100000000E-03 0. -1.
    9900012    2    1    2    0    0 -0.66442485716E+00  0.18687789899E-01 -0.97532044208E+00  0.90007720546E+02  0.89999981657E+02 0.  0.
        -12    1    1    2    0    0  0.66442485716E+00 -0.18687789899E-01  0.97532044208E+00  0.11802794538E+01  0.00000000000E+00 0.  1.
         11    1    3    3    0    0 -0.34933337118E+02 -0.69062239462E+01  0.22424853561E+02  0.42082158083E+02  0.51100000000E-03 0. -1.
        -11    1    3    3    0    0  0.61427191272E+01 -0.70809773353E+01 -0.11933706061E+01  0.94497286714E+01  0.51100000000E-03 0.  1.
        -12    1    3    3    0    0  0.28126193134E+02  0.14005889071E+02 -0.22206803397E+02  0.38475833792E+02  0.00000000000E+00 0.  1.
</event>
<event>
 7    1  0.1756449E-015  0.9000732E+02  0.7816164E-02  0.1186340E+00
        -11   -1    0    0    0    0  0.00000000000E+00  0.00000000000E+00  0.45593999997E+02  0.45594000000E+02  0.51100000000E-03 0.  1.
         11   -1    0    0    0    0 -0.00000000000E+00 -0.00000000000E+00 -0.45593999997E+02  0.45594000000E+02  0.51100000000E-03 0. -1.
    9900012    2    1    2    0    0 -0.70212406546E+00 -0.94899109551E+00  0.20811367015E-01  0.90007324170E+02  0.89999580048E+02 0.  0.
        -12    1    1    2    0    0  0.70212406546E+00  0.94899109551E+00 -0.20811367015E-01  0.11806758300E+01  0.00000000000E+00 0.  1.
         11    1    3    3    0    0 -0.16610137351E+02  0.33390291166E+02 -0.16998989475E+02  0.40985044228E+02  0.51100000000E-03 0. -1.
        -11    1    3    3    0    0 -0.72915001760E+01 -0.70176056636E+01  0.33170597952E+01  0.10649678400E+02  0.51100000000E-03 0.  1.
        -12    1    3    3    0    0  0.23199513462E+02 -0.27321676598E+02  0.13702741046E+02  0.38372601543E+02  0.00000000000E+00 0.  1.
</event>
<event>
 7    1  0.1756449E-015  0.9000763E+02  0.7816164E-02  0.1186339E+00
        -11   -1    0    0    0    0  0.00000000000E+00  0.00000000000E+00  0.45593999997E+02  0.45594000000E+02  0.51100000000E-03 0.  1.
         11   -1    0    0    0    0 -0.00000000000E+00 -0.00000000000E+00 -0.45593999997E+02  0.45594000000E+02  0.51100000000E-03 0. -1.
    9900012    2    1    2    0    0 -0.18812687211E+00 -0.87251076302E+00 -0.77239773793E+00  0.90007633524E+02  0.89999893487E+02 0.  0.
        -12    1    1    2    0    0  0.18812687211E+00  0.87251076302E+00  0.77239773793E+00  0.11803664758E+01  0.00000000000E+00 0.  1.
         11    1    3    3    0    0 -0.34777258748E+02 -0.18467573834E+02 -0.41395658798E+01  0.39593497134E+02  0.51100000000E-03 0. -1.
        -11    1    3    3    0    0  0.29342781705E+01 -0.85095269967E+01  0.26289069019E+01  0.93772698506E+01  0.51100000000E-03 0.  1.
        -12    1    3    3    0    0  0.31654853706E+02  0.26104590068E+02  0.73826123998E+00  0.41036866540E+02  0.00000000000E+00 0.  1.
</event>
<event>
 7    1  0.1756449E-015  0.9000784E+02  0.7816164E-02  0.1186339E+00
        -11   -1    0    0    0    0  0.00000000000E+00  0.00000000000E+00  0.45593999997E+02  0.45594000000E+02  0.51100000000E-03 0.  1.
         11   -1    0    0    0    0 -0.00000000000E+00 -0.00000000000E+00 -0.45593999997E+02  0.45594000000E+02  0.51100000000E-03 0. -1.
    9900012    2    1    2    0    0 -0.62920508159E+00 -0.84684306074E+00 -0.52889807438E+00  0.90007840953E+02  0.90000103653E+02 0.  0.
        -12    1    1    2    0    0  0.62920508159E+00  0.84684306074E+00  0.52889807438E+00  0.11801590475E+01  0.00000000000E+00 0.  1.
         11    1    3    3    0    0 -0.22453841280E+01  0.39525242142E+01  0.61348667033E+01  0.76354952214E+01  0.51100000000E-03 0. -1.
        -11    1    3    3    0    0 -0.10967128417E+02 -0.13225955134E+02  0.34483413240E+02  0.38526738557E+02  0.51100000000E-03 0.  1.
         12    1    3    3    0    0  0.12583307463E+02  0.84265878589E+01 -0.41147178018E+02  0.43845607174E+02  0.00000000000E+00 0. -1.
</event>
<event>
 7    1  0.1756449E-015  0.9000764E+02  0.7816164E-02  0.1186339E+00
        -11   -1    0    0    0    0  0.00000000000E+00  0.00000000000E+00  0.45593999997E+02  0.45594000000E+02  0.51100000000E-03 0.  1.
         11   -1    0    0    0    0 -0.00000000000E+00 -0.00000000000E+00 -0.45593999997E+02  0.45594000000E+02  0.51100000000E-03 0. -1.
    9900012    2    1    2    0    0  0.89260777636E+00  0.67751716980E+00 -0.37078578356E+00  0.90007635541E+02  0.89999895531E+02 0.  0.
        -12    1    1    2    0    0 -0.89260777636E+00 -0.67751716980E+00  0.37078578356E+00  0.11803644586E+01  0.00000000000E+00 0.  1.
         11    1    3    3    0    0  0.84896780081E+01  0.34164605329E+01  0.10661125062E+02  0.14050139612E+02  0.51100000000E-03 0. -1.
        -11    1    3    3    0    0  0.29323589886E+02 -0.10611760859E+02  0.99932160341E+01  0.32746706083E+02  0.51100000000E-03 0.  1.
         12    1    3    3    0    0 -0.36920660118E+02  0.78728174961E+01 -0.21025126880E+02  0.43210789847E+02  0.00000000000E+00 0. -1.
</event>
<event>
 7    1  0.1756449E-015  0.9000764E+02  0.7816164E-02  0.1186339E+00
        -11   -1    0    0    0    0  0.00000000000E+00  0.00000000000E+00  0.45593999997E+02  0.45594000000E+02  0.51100000000E-03 0.  1.
         11   -1    0    0    0    0 -0.00000000000E+00 -0.00000000000E+00 -0.45593999997E+02  0.45594000000E+02  0.51100000000E-03 0. -1.
    9900012    2    1    2    0    0  0.83586867467E+00 -0.81894855430E+00  0.15459211448E+00  0.90007639082E+02  0.89999899117E+02 0.  0.
        -12    1    1    2    0    0 -0.83586867467E+00  0.81894855430E+00 -0.15459211448E+00  0.11803609184E+01  0.00000000000E+00 0.  1.
         11    1    3    3    0    0 -0.14427736662E+02 -0.89335055054E+01 -0.29232592997E+02  0.33801059146E+02  0.51100000000E-03 0. -1.
        -11    1    3    3    0    0  0.96099796878E+01  0.42992019366E+01 -0.11012518125E+02  0.15235169924E+02  0.51100000000E-03 0.  1.
        -12    1    3    3    0    0  0.56536256486E+01  0.38153550145E+01  0.40399703236E+02  0.40971410012E+02  0.00000000000E+00 0.  1.
</event>
<event>
 7    1  0.1756449E-015  0.9000775E+02  0.7816164E-02  0.1186339E+00
        -11   -1    0    0    0    0  0.00000000000E+00  0.00000000000E+00  0.45593999997E+02  0.45594000000E+02  0.51100000000E-03 0. -1.
         11   -1    0    0    0    0 -0.00000000000E+00 -0.00000000000E+00 -0.45593999997E+02  0.45594000000E+02  0.51100000000E-03 0.  1.
    9900012    2    1    2    0    0 -0.67103302303E+00  0.14261448268E+00  0.96040214913E+00  0.90007747274E+02  0.90000008738E+02 0.  0.
        -12    1    1    2    0    0  0.67103302303E+00 -0.14261448268E+00 -0.96040214913E+00  0.11802527258E+01  0.00000000000E+00 0.  1.
         11    1    3    3    0    0  0.28630785193E+02 -0.70313222746E+01  0.30580758247E+02  0.42477572070E+02  0.51100000000E-03 0. -1.
        -11    1    3    3    0    0 -0.69012452344E+01  0.31388917469E+01  0.26578910291E+01  0.80339412599E+01  0.51100000000E-03 0.  1.
        -12    1    3    3    0    0 -0.22400572982E+02  0.40350450104E+01 -0.32278247127E+02  0.39496233944E+02  0.00000000000E+00 0.  1.
</event>
<event>
 7    1  0.1756449E-015  0.9000774E+02  0.7816164E-02  0.1186339E+00
        -11   -1    0    0    0    0  0.00000000000E+00  0.00000000000E+00  0.45593999997E+02  0.45594000000E+02  0.51100000000E-03 0. -1.
         11   -1    0    0    0    0 -0.00000000000E+00 -0.00000000000E+00 -0.45593999997E+02  0.45594000000E+02  0.51100000000E-03 0.  1.
    9900012    2    1    2    0    0  0.33595430875E+00 -0.33164567490E-01  0.11309535060E+01  0.90007736886E+02  0.89999998213E+02 0.  0.
        -12    1    1    2    0    0 -0.33595430875E+00  0.33164567490E-01 -0.11309535060E+01  0.11802631142E+01  0.00000000000E+00 0.  1.
         11    1    3    3    0    0 -0.16901342148E+01  0.84607349972E+01 -0.55383973179E+01  0.10252533125E+02  0.51100000000E-03 0. -1.
        -11    1    3    3    0    0 -0.94768836242E+01  0.34071405073E+02  0.38307146216E+01  0.35571707039E+02  0.51100000000E-03 0.  1.
         12    1    3    3    0    0  0.11502972148E+02 -0.42565304638E+02  0.28386362023E+01  0.44183496722E+02  0.00000000000E+00 0. -1.
</event>
<event>
 7    1  0.1756449E-015  0.9000769E+02  0.7816164E-02  0.1186339E+00
        -11   -1    0    0    0    0  0.00000000000E+00  0.00000000000E+00  0.45593999997E+02  0.45594000000E+02  0.51100000000E-03 0. -1.
         11   -1    0    0    0    0 -0.00000000000E+00 -0.00000000000E+00 -0.45593999997E+02  0.45594000000E+02  0.51100000000E-03 0.  1.
    9900012    2    1    2    0    0 -0.32983435837E+00 -0.11306574457E+01 -0.77117516842E-01  0.90007693228E+02  0.89999953979E+02 0.  0.
        -12    1    1    2    0    0  0.32983435837E+00  0.11306574457E+01  0.77117516842E-01  0.11803067715E+01  0.00000000000E+00 0.  1.
         11    1    3    3    0    0 -0.80115030007E+01 -0.27755788956E+01  0.56370986923E+01  0.10181596165E+02  0.51100000000E-03 0. -1.
        -11    1    3    3    0    0  0.13116443900E+02 -0.15089066981E+01 -0.41470706826E+02  0.43521689132E+02  0.51100000000E-03 0.  1.
         12    1    3    3    0    0 -0.54347752574E+01  0.31538281480E+01  0.35756490616E+02  0.36304407932E+02  0.00000000000E+00 0. -1.
</event>
<event>
 7    1  0.1756449E-015  0.9000773E+02  0.7816164E-02  0.1186339E+00
        -11   -1    0    0    0    0  0.00000000000E+00  0.00000000000E+00  0.45593999997E+02  0.45594000000E+02  0.51100000000E-03 0. -1.
         11   -1    0    0    0    0 -0.00000000000E+00 -0.00000000000E+00 -0.45593999997E+02  0.45594000000E+02  0.51100000000E-03 0.  1.
    9900012    2    1    2    0    0  0.82882664000E+00  0.41085016541E+00  0.73300214497E+00  0.90007727319E+02  0.89999988519E+02 0.  0.
        -12    1    1    2    0    0 -0.82882664000E+00 -0.41085016541E+00 -0.73300214497E+00  0.11802726813E+01  0.00000000000E+00 0.  1.
         11    1    3    3    0    0 -0.73494861966E+01  0.58159149370E+01 -0.86125383578E+01  0.12728536095E+02  0.51100000000E-03 0. -1.
        -11    1    3    3    0    0  0.17092849920E+02 -0.24052211445E+02 -0.24008456172E+02  0.38040509484E+02  0.51100000000E-03 0.  1.
         12    1    3    3    0    0 -0.89145370831E+01  0.18647146673E+02  0.33353996675E+02  0.39238681739E+02  0.00000000000E+00 0. -1.
</event>
<event>
 7    1  0.1756449E-015  0.9000778E+02  0.7816164E-02  0.1186339E+00
        -11   -1    0    0    0    0  0.00000000000E+00  0.00000000000E+00  0.45593999997E+02  0.45594000000E+02  0.51100000000E-03 0.  1.
         11   -1    0    0    0    0 -0.00000000000E+00 -0.00000000000E+00 -0.45593999997E+02  0.45594000000E+02  0.51100000000E-03 0. -1.
    9900012    2    1    2    0    0 -0.10965392064E+00 -0.95028706881E+00 -0.69127451598E+00  0.90007775465E+02  0.90000037302E+02 0.  0.
        -12    1    1    2    0    0  0.10965392064E+00  0.95028706881E+00  0.69127451598E+00  0.11802245345E+01  0.00000000000E+00 0.  1.
         11    1    3    3    0    0  0.84424950097E+01 -0.31919491913E+00 -0.69650471160E+01  0.10949405873E+02  0.51100000000E-03 0. -1.
        -11    1    3    3    0    0 -0.25107707014E+02  0.30968174515E+02  0.14545957222E+02  0.42438304114E+02  0.51100000000E-03 0.  1.
         12    1    3    3    0    0  0.16555558084E+02 -0.31599266665E+02 -0.82721846223E+01  0.36620065478E+02  0.00000000000E+00 0. -1.
</event>
<event>
 7    1  0.1756449E-015  0.9000759E+02  0.7816164E-02  0.1186339E+00
        -11   -1    0    0    0    0  0.00000000000E+00  0.00000000000E+00  0.45593999997E+02  0.45594000000E+02  0.51100000000E-03 0.  1.
         11   -1    0    0    0    0 -0.00000000000E+00 -0.00000000000E+00 -0.45593999997E+02  0.45594000000E+02  0.51100000000E-03 0. -1.
    9900012    2    1    2    0    0 -0.55112460168E+00  0.10886041181E+00 -0.10381570148E+01  0.90007593755E+02  0.89999853192E+02 0.  0.
        -12    1    1    2    0    0  0.55112460168E+00 -0.10886041181E+00  0.10381570148E+01  0.11804062450E+01  0.00000000000E+00 0.  1.
         11    1    3    3    0    0  0.10426581148E+01 -0.81556384109E+01  0.30048347962E+01  0.87538909204E+01  0.51100000000E-03 0. -1.
        -11    1    3    3    0    0  0.29625385389E+02  0.65777280474E+01  0.24436381576E+02  0.38962375575E+02  0.51100000000E-03 0.  1.
         12    1    3    3    0    0 -0.31219168105E+02  0.16867707753E+01 -0.28479373387E+02  0.42291327259E+02  0.00000000000E+00 0. -1.
</event>
<event>
 7    1  0.1756449E-015  0.9000781E+02  0.7816164E-02  0.1186339E+00
        -11   -1    0    0    0    0  0.00000000000E+00  0.00000000000E+00  0.45593999997E+02  0.45594000000E+02  0.51100000000E-03 0. -1.
         11   -1    0    0    0    0 -0.00000000000E+00 -0.00000000000E+00 -0.45593999997E+02  0.45594000000E+02  0.51100000000E-03 0.  1.
    9900012    2    1    2    0    0  0.11594439037E+01  0.80734143990E-01  0.20499426144E+00  0.90007808992E+02  0.90000071271E+02 0.  0.
        -12    1    1    2    0    0 -0.11594439037E+01 -0.80734143990E-01 -0.20499426144E+00  0.11801910078E+01  0.00000000000E+00 0.  1.
         11    1    3    3    0    0 -0.32764689376E+02 -0.14647018273E+01  0.15825214115E+02  0.36415760645E+02  0.51100000000E-03 0. -1.
        -11    1    3    3    0    0 -0.84448334063E+01 -0.19806398038E+01 -0.37556911376E+01  0.94521617355E+01  0.51100000000E-03 0.  1.
        -12    1    3    3    0    0  0.42368966686E+02  0.35260757751E+01 -0.11864528715E+02  0.44139886611E+02  0.00000000000E+00 0.  1.
</event>
<event>
 7    1  0.1756449E-015  0.9000753E+02  0.7816164E-02  0.1186339E+00
        -11   -1    0    0    0    0  0.00000000000E+00  0.00000000000E+00  0.45593999997E+02  0.45594000000E+02  0.51100000000E-03 0. -1.
         11   -1    0    0    0    0 -0.00000000000E+00 -0.00000000000E+00 -0.45593999997E+02  0.45594000000E+02  0.51100000000E-03 0.  1.
    9900012    2    1    2    0    0  0.67282592870E+00  0.92921198734E+00 -0.27819007927E+00  0.90007525787E+02  0.89999784327E+02 0.  0.
        -12    1    1    2    0    0 -0.67282592870E+00 -0.92921198734E+00  0.27819007927E+00  0.11804742132E+01  0.00000000000E+00 0.  1.
         11    1    3    3    0    0 -0.78295602009E+01 -0.37735845976E+02 -0.71761201591E+01  0.39201948743E+02  0.51100000000E-03 0. -1.
        -11    1    3    3    0    0  0.14200857250E+01  0.23011983053E+02 -0.11387840047E+02  0.25714799410E+02  0.51100000000E-03 0.  1.
        -12    1    3    3    0    0  0.70823004046E+01  0.15653074910E+02  0.18285770127E+02  0.25090777634E+02  0.00000000000E+00 0.  1.
</event>
<event>
 7    1  0.1756449E-015  0.9000768E+02  0.7816164E-02  0.1186339E+00
        -11   -1    0    0    0    0  0.00000000000E+00  0.00000000000E+00  0.45593999997E+02  0.45594000000E+02  0.51100000000E-03 0. -1.
         11   -1    0    0    0    0 -0.00000000000E+00 -0.00000000000E+00 -0.45593999997E+02  0.45594000000E+02  0.51100000000E-03 0.  1.
    9900012    2    1    2    0    0 -0.22329336722E-01  0.11242192816E+01 -0.35885642876E+00  0.90007684140E+02  0.89999944771E+02 0.  0.
        -12    1    1    2    0    0  0.22329336722E-01 -0.11242192816E+01  0.35885642876E+00  0.11803158598E+01  0.00000000000E+00 0.  1.
         11    1    3    3    0    0  0.90621511601E+01  0.41922970574E+02  0.82976245338E+01  0.43686480959E+02  0.51100000000E-03 0. -1.
        -11    1    3    3    0    0  0.53815275023E+01 -0.82016574177E+01 -0.25940499550E+01  0.10146778705E+02  0.51100000000E-03 0.  1.
        -12    1    3    3    0    0 -0.14466007999E+02 -0.32597093875E+02 -0.60624310075E+01  0.36174424477E+02  0.00000000000E+00 0.  1.
</event>
<event>
 7    1  0.1756449E-015  0.9000748E+02  0.7816164E-02  0.1186340E+00
        -11   -1    0    0    0    0  0.00000000000E+00  0.00000000000E+00  0.45593999997E+02  0.45594000000E+02  0.51100000000E-03 0.  1.
         11   -1    0    0    0    0 -0.00000000000E+00 -0.00000000000E+00 -0.45593999997E+02  0.45594000000E+02  0.51100000000E-03 0. -1.
    9900012    2    1    2    0    0  0.10236136097E+01  0.16275556120E+00  0.56511403800E+00  0.90007479746E+02  0.89999737678E+02 0.  0.
        -12    1    1    2    0    0 -0.10236136097E+01 -0.16275556120E+00 -0.56511403800E+00  0.11805202542E+01  0.00000000000E+00 0.  1.
         11    1    3    3    0    0  0.64500872903E-01 -0.82582818125E+01  0.41413385199E+01  0.92387263113E+01  0.51100000000E-03 0. -1.
        -11    1    3    3    0    0 -0.37279888464E+02  0.73582252008E+01  0.11423839220E+02  0.39679184276E+02  0.51100000000E-03 0.  1.
         12    1    3    3    0    0  0.38239001201E+02  0.10628121728E+01 -0.15000063701E+02  0.41089569159E+02  0.00000000000E+00 0. -1.
</event>
<event>
 7    1  0.1756449E-015  0.9000774E+02  0.7816164E-02  0.1186339E+00
        -11   -1    0    0    0    0  0.00000000000E+00  0.00000000000E+00  0.45593999997E+02  0.45594000000E+02  0.51100000000E-03 0.  1.
         11   -1    0    0    0    0 -0.00000000000E+00 -0.00000000000E+00 -0.45593999997E+02  0.45594000000E+02  0.51100000000E-03 0. -1.
    9900012    2    1    2    0    0  0.89300672290E+00  0.64194911035E+00 -0.42831359707E+00  0.90007740620E+02  0.90000001996E+02 0.  0.
        -12    1    1    2    0    0 -0.89300672290E+00 -0.64194911035E+00  0.42831359707E+00  0.11802593803E+01  0.00000000000E+00 0.  1.
         11    1    3    3    0    0  0.27641459610E+02  0.39112948783E+01 -0.29707903649E+02  0.40766506552E+02  0.51100000000E-03 0. -1.
        -11    1    3    3    0    0  0.37391973215E+01  0.65634936147E+01  0.58062960940E+01  0.95275453099E+01  0.51100000000E-03 0.  1.
        -12    1    3    3    0    0 -0.30487650208E+02 -0.98328393827E+01  0.23473293958E+02  0.39713688758E+02  0.00000000000E+00 0.  1.
</event>
<event>
 7    1  0.1756449E-015  0.9000781E+02  0.7816164E-02  0.1186339E+00
        -11   -1    0    0    0    0  0.00000000000E+00  0.00000000000E+00  0.45593999997E+02  0.45594000000E+02  0.51100000000E-03 0. -1.
         11   -1    0    0    0    0 -0.00000000000E+00 -0.00000000000E+00 -0.45593999997E+02  0.45594000000E+02  0.51100000000E-03 0.  1.
    9900012    2    1    2    0    0  0.97700054390E+00  0.22199629216E+00  0.62373221985E+00  0.90007807516E+02  0.90000069775E+02 0.  0.
        -12    1    1    2    0    0 -0.97700054390E+00 -0.22199629216E+00 -0.62373221985E+00  0.11801924837E+01  0.00000000000E+00 0.  1.
         11    1    3    3    0    0  0.73539496538E+01  0.36108400480E+02  0.11011306585E+02  0.38459667624E+02  0.51100000000E-03 0. -1.
        -11    1    3    3    0    0 -0.26770834517E+01  0.46978225703E+01 -0.93280103798E+01  0.10781840781E+02  0.51100000000E-03 0.  1.
        -12    1    3    3    0    0 -0.36998656583E+01 -0.40584226758E+02 -0.10595639851E+01  0.40766299112E+02  0.00000000000E+00 0.  1.
</event>
<event>
 7    1  0.1756449E-015  0.9000781E+02  0.7816164E-02  0.1186339E+00
        -11   -1    0    0    0    0  0.00000000000E+00  0.00000000000E+00  0.45593999997E+02  0.45594000000E+02  0.51100000000E-03 0. -1.
         11   -1    0    0    0    0 -0.00000000000E+00 -0.00000000000E+00 -0.45593999997E+02  0.45594000000E+02  0.51100000000E-03 0.  1.
    9900012    2    1    2    0    0  0.40502548512E+00  0.10338728637E+01 -0.39987382989E+00  0.90007814497E+02  0.90000076848E+02 0.  0.
        -12    1    1    2    0    0 -0.40502548512E+00 -0.10338728637E+01  0.39987382989E+00  0.11801855031E+01  0.00000000000E+00 0.  1.
         11    1    3    3    0    0 -0.23461266393E+02  0.29840035235E+02  0.12092819471E+02  0.39838360993E+02  0.51100000000E-03 0. -1.
        -11    1    3    3    0    0  0.78660978426E+01  0.62033431929E+01 -0.37491784606E+01  0.10696415354E+02  0.51100000000E-03 0.  1.
        -12    1    3    3    0    0  0.16000194035E+02 -0.35009505564E+02 -0.87435148401E+01  0.39473038150E+02  0.00000000000E+00 0.  1.
</event>
<event>
 7    1  0.1756449E-015  0.9000775E+02  0.7816164E-02  0.1186339E+00
        -11   -1    0    0    0    0  0.00000000000E+00  0.00000000000E+00  0.45593999997E+02  0.45594000000E+02  0.51100000000E-03 0. -1.
         11   -1    0    0    0    0 -0.00000000000E+00 -0.00000000000E+00 -0.45593999997E+02  0.45594000000E+02  0.51100000000E-03 0.  1.
    9900012    2    1    2    0    0 -0.34884408219E+00  0.76255165029E+00  0.83054684958E+00  0.90007752025E+02  0.90000013552E+02 0.  0.
        -12    1    1    2    0    0  0.34884408219E+00 -0.76255165029E+00 -0.83054684958E+00  0.11802479750E+01  0.00000000000E+00 0.  1.
         11    1    3    3    0    0 -0.33863516245E+02 -0.16443800688E+02 -0.43717322177E+01  0.37897867438E+02  0.51100000000E-03 0. -1.
        -11    1    3    3    0    0  0.96549386772E+00 -0.84339667649E+01 -0.44218750885E+01  0.95716745327E+01  0.51100000000E-03 0.  1.
        -12    1    3    3    0    0  0.32549178295E+02  0.25640319103E+02  0.96241541558E+01  0.42538210054E+02  0.00000000000E+00 0.  1.
</event>
<event>
 7    1  0.1756449E-015  0.9000774E+02  0.7816164E-02  0.1186339E+00
        -11   -1    0    0    0    0  0.00000000000E+00  0.00000000000E+00  0.45593999997E+02  0.45594000000E+02  0.51100000000E-03 0.  1.
         11   -1    0    0    0    0 -0.00000000000E+00 -0.00000000000E+00 -0.45593999997E+02  0.45594000000E+02  0.51100000000E-03 0. -1.
    9900012    2    1    2    0    0 -0.32505370126E+00  0.10128516132E+01 -0.51134887422E+00  0.90007743261E+02  0.90000004672E+02 0.  0.
        -12    1    1    2    0    0  0.32505370126E+00 -0.10128516132E+01  0.51134887422E+00  0.11802567391E+01  0.00000000000E+00 0.  1.
         11    1    3    3    0    0  0.21501004364E+02 -0.90986460774E+01 -0.27571907116E+02  0.36128778161E+02  0.51100000000E-03 0. -1.
        -11    1    3    3    0    0  0.33540181650E+01  0.53946938562E+01 -0.81512025780E+01  0.10334130993E+02  0.51100000000E-03 0.  1.
        -12    1    3    3    0    0 -0.25180076230E+02  0.47168038345E+01  0.35211760820E+02  0.43544834107E+02  0.00000000000E+00 0.  1.
</event>
<event>
 7    1  0.1756449E-015  0.9000780E+02  0.7816164E-02  0.1186339E+00
        -11   -1    0    0    0    0  0.00000000000E+00  0.00000000000E+00  0.45593999997E+02  0.45594000000E+02  0.51100000000E-03 0. -1.
         11   -1    0    0    0    0 -0.00000000000E+00 -0.00000000000E+00 -0.45593999997E+02  0.45594000000E+02  0.51100000000E-03 0.  1.
    9900012    2    1    2    0    0  0.52853223811E+00  0.97402923866E+00  0.40594592463E+00  0.90007800280E+02  0.90000062444E+02 0.  0.
        -12    1    1    2    0    0 -0.52853223811E+00 -0.97402923866E+00 -0.40594592463E+00  0.11801997196E+01  0.00000000000E+00 0.  1.
         11    1    3    3    0    0 -0.68378896335E+01  0.11097731694E+01  0.70525807973E+01  0.98857082341E+01  0.51100000000E-03 0. -1.
        -11    1    3    3    0    0  0.10291481868E+02 -0.37065323683E+02  0.96364489383E+01  0.39656197084E+02  0.51100000000E-03 0.  1.
         12    1    3    3    0    0 -0.29250599960E+01  0.36929579753E+02 -0.16283083811E+02  0.40465894962E+02  0.00000000000E+00 0. -1.
</event>
<event>
 7    1  0.1756449E-015  0.9000829E+02  0.7816164E-02  0.1186338E+00
        -11   -1    0    0    0    0  0.00000000000E+00  0.00000000000E+00  0.45593999997E+02  0.45594000000E+02  0.51100000000E-03 0.  1.
         11   -1    0    0    0    0 -0.00000000000E+00 -0.00000000000E+00 -0.45593999997E+02  0.45594000000E+02  0.51100000000E-03 0. -1.
    9900012    2    1    2    0    0  0.48277889730E+00 -0.69210003465E+00 -0.82439853266E+00  0.90008292044E+02  0.90000560697E+02 0.  0.
        -12    1    1    2    0    0 -0.48277889730E+00  0.69210003465E+00  0.82439853266E+00  0.11797079564E+01  0.00000000000E+00 0.  1.
         11    1    3    3    0    0 -0.24266719575E+02 -0.10847365892E+02 -0.21142141118E+02  0.33963644637E+02  0.51100000000E-03 0. -1.
        -11    1    3    3    0    0  0.60030926665E-01 -0.94566962917E+01 -0.89523088787E+01  0.13022155850E+02  0.51100000000E-03 0.  1.
        -12    1    3    3    0    0  0.24689467546E+02  0.19611962149E+02  0.29270051464E+02  0.43022491556E+02  0.00000000000E+00 0.  1.
</event>
<event>
 7    1  0.1756449E-015  0.9000780E+02  0.7816164E-02  0.1186339E+00
        -11   -1    0    0    0    0  0.00000000000E+00  0.00000000000E+00  0.45593999997E+02  0.45594000000E+02  0.51100000000E-03 0.  1.
         11   -1    0    0    0    0 -0.00000000000E+00 -0.00000000000E+00 -0.45593999997E+02  0.45594000000E+02  0.51100000000E-03 0. -1.
    9900012    2    1    2    0    0 -0.10624591134E+01 -0.27480761820E+00 -0.43420019361E+00  0.90007801541E+02  0.90000063721E+02 0.  0.
        -12    1    1    2    0    0  0.10624591134E+01  0.27480761820E+00  0.43420019361E+00  0.11801984591E+01  0.00000000000E+00 0.  1.
         11    1    3    3    0    0  0.19765814559E+02 -0.19006911899E+02 -0.21446934759E+02  0.34812657697E+02  0.51100000000E-03 0. -1.
        -11    1    3    3    0    0  0.56889809300E+01 -0.90984958641E+01 -0.12006166096E+01  0.10797620641E+02  0.51100000000E-03 0.  1.
        -12    1    3    3    0    0 -0.26517254602E+02  0.27830600145E+02  0.22213351175E+02  0.44397523202E+02  0.00000000000E+00 0.  1.
</event>
<event>
 7    1  0.1756449E-015  0.9000773E+02  0.7816164E-02  0.1186339E+00
        -11   -1    0    0    0    0  0.00000000000E+00  0.00000000000E+00  0.45593999997E+02  0.45594000000E+02  0.51100000000E-03 0.  1.
         11   -1    0    0    0    0 -0.00000000000E+00 -0.00000000000E+00 -0.45593999997E+02  0.45594000000E+02  0.51100000000E-03 0. -1.
    9900012    2    1    2    0    0 -0.25199377563E+00 -0.11521033087E+01 -0.46799639747E-01  0.90007731766E+02  0.89999993026E+02 0.  0.
        -12    1    1    2    0    0  0.25199377563E+00  0.11521033087E+01  0.46799639747E-01  0.11802682335E+01  0.00000000000E+00 0.  1.
         11    1    3    3    0    0  0.52443216538E+00  0.42132502603E+01  0.82872611486E+01  0.93115629438E+01  0.51100000000E-03 0. -1.
        -11    1    3    3    0    0  0.15469445887E+02  0.26861662418E+02  0.18159722280E+02  0.35925313881E+02  0.51100000000E-03 0.  1.
         12    1    3    3    0    0 -0.16245871828E+02 -0.32227015987E+02 -0.26493783068E+02  0.44770854941E+02  0.00000000000E+00 0. -1.
</event>
<event>
 7    1  0.1756449E-015  0.9000786E+02  0.7816164E-02  0.1186339E+00
        -11   -1    0    0    0    0  0.00000000000E+00  0.00000000000E+00  0.45593999997E+02  0.45594000000E+02  0.51100000000E-03 0.  1.
         11   -1    0    0    0    0 -0.00000000000E+00 -0.00000000000E+00 -0.45593999997E+02  0.45594000000E+02  0.51100000000E-03 0. -1.
    9900012    2    1    2    0    0 -0.64692594541E+00  0.22317985270E+00 -0.96146065013E+00  0.90007860598E+02  0.90000123558E+02 0.  0.
        -12    1    1    2    0    0  0.64692594541E+00 -0.22317985270E+00  0.96146065013E+00  0.11801394016E+01  0.00000000000E+00 0.  1.
         11    1    3    3    0    0  0.79134194395E+01  0.31361186724E+01 -0.66340450661E+01  0.10792034180E+02  0.51100000000E-03 0. -1.
        -11    1    3    3    0    0  0.16722567830E+02  0.31096758420E+02 -0.46117663091E+01  0.35607879013E+02  0.51100000000E-03 0.  1.
         12    1    3    3    0    0 -0.25282913215E+02 -0.34009697240E+02  0.10284350725E+02  0.43607947404E+02  0.00000000000E+00 0. -1.
</event>
<event>
 7    1  0.1756449E-015  0.9000756E+02  0.7816164E-02  0.1186339E+00
        -11   -1    0    0    0    0  0.00000000000E+00  0.00000000000E+00  0.45593999997E+02  0.45594000000E+02  0.51100000000E-03 0.  1.
         11   -1    0    0    0    0 -0.00000000000E+00 -0.00000000000E+00 -0.45593999997E+02  0.45594000000E+02  0.51100000000E-03 0. -1.
    9900012    2    1    2    0    0  0.35953921575E+00  0.88064486444E+00 -0.69901712187E+00  0.90007564165E+02  0.89999823211E+02 0.  0.
        -12    1    1    2    0    0 -0.35953921575E+00 -0.88064486444E+00  0.69901712187E+00  0.11804358354E+01  0.00000000000E+00 0.  1.
         11    1    3    3    0    0  0.23285240057E+02 -0.15657937092E+02  0.96203758554E+01  0.29663530308E+02  0.51100000000E-03 0. -1.
        -11    1    3    3    0    0 -0.38841455897E+00 -0.11939228294E+02  0.12629552145E+02  0.17383947359E+02  0.51100000000E-03 0.  1.
        -12    1    3    3    0    0 -0.22537286282E+02  0.28477810250E+02 -0.22948945122E+02  0.42960086497E+02  0.00000000000E+00 0.  1.
</event>
<event>
 7    1  0.1756449E-015  0.9000779E+02  0.7816164E-02  0.1186339E+00
        -11   -1    0    0    0    0  0.00000000000E+00  0.00000000000E+00  0.45593999997E+02  0.45594000000E+02  0.51100000000E-03 0. -1.
         11   -1    0    0    0    0 -0.00000000000E+00 -0.00000000000E+00 -0.45593999997E+02  0.45594000000E+02  0.51100000000E-03 0.  1.
    9900012    2    1    2    0    0  0.49641618782E+00  0.10684193899E+01  0.70267097777E-01  0.90007793879E+02  0.90000055958E+02 0.  0.
        -12    1    1    2    0    0 -0.49641618782E+00 -0.10684193899E+01 -0.70267097777E-01  0.11802061215E+01  0.00000000000E+00 0.  1.
         11    1    3    3    0    0  0.45707337262E+01  0.18897506341E+02  0.15297247757E+01  0.19502497554E+02  0.51100000000E-03 0. -1.
        -11    1    3    3    0    0  0.43745591294E+01  0.20303444559E+02 -0.18573604647E+02  0.27862975763E+02  0.51100000000E-03 0.  1.
         12    1    3    3    0    0 -0.84488766679E+01 -0.38132531511E+02  0.17114146969E+02  0.42642320561E+02  0.00000000000E+00 0. -1.
</event>
<event>
 7    1  0.1756449E-015  0.9000758E+02  0.7816164E-02  0.1186339E+00
        -11   -1    0    0    0    0  0.00000000000E+00  0.00000000000E+00  0.45593999997E+02  0.45594000000E+02  0.51100000000E-03 0.  1.
         11   -1    0    0    0    0 -0.00000000000E+00 -0.00000000000E+00 -0.45593999997E+02  0.45594000000E+02  0.51100000000E-03 0. -1.
    9900012    2    1    2    0    0  0.75802631795E+00 -0.81812305267E+00 -0.38660245193E+00  0.90007580293E+02  0.89999839553E+02 0.  0.
        -12    1    1    2    0    0 -0.75802631795E+00  0.81812305267E+00  0.38660245193E+00  0.11804197067E+01  0.00000000000E+00 0.  1.
         11    1    3    3    0    0 -0.20976583344E+02 -0.23514947606E+02  0.19737215254E+02  0.37182354363E+02  0.51100000000E-03 0. -1.
        -11    1    3    3    0    0 -0.94825536876E+01 -0.11534647505E+01 -0.42066704334E+01  0.10437690442E+02  0.51100000000E-03 0.  1.
        -12    1    3    3    0    0  0.31217163350E+02  0.23850289304E+02 -0.15917147272E+02  0.42387535488E+02  0.00000000000E+00 0.  1.
</event>
<event>
 7    1  0.1756449E-015  0.9000775E+02  0.7816164E-02  0.1186339E+00
        -11   -1    0    0    0    0  0.00000000000E+00  0.00000000000E+00  0.45593999997E+02  0.45594000000E+02  0.51100000000E-03 0.  1.
         11   -1    0    0    0    0 -0.00000000000E+00 -0.00000000000E+00 -0.45593999997E+02  0.45594000000E+02  0.51100000000E-03 0. -1.
    9900012    2    1    2    0    0  0.32105866167E+00  0.85904812505E+00 -0.74293857665E+00  0.90007745759E+02  0.90000007203E+02 0.  0.
        -12    1    1    2    0    0 -0.32105866167E+00 -0.85904812505E+00  0.74293857665E+00  0.11802542413E+01  0.00000000000E+00 0.  1.
         11    1    3    3    0    0  0.28268789085E+02 -0.24963186054E+02 -0.19044733312E+02  0.42249106044E+02  0.51100000000E-03 0. -1.
        -11    1    3    3    0    0 -0.92799268909E+01 -0.29697841659E+01  0.30707929174E+01  0.10215988963E+02  0.51100000000E-03 0.  1.
        -12    1    3    3    0    0 -0.18667803532E+02  0.28792018345E+02  0.15231001818E+02  0.37542650752E+02  0.00000000000E+00 0.  1.
</event>
<event>
 7    1  0.1756449E-015  0.9000775E+02  0.7816164E-02  0.1186339E+00
        -11   -1    0    0    0    0  0.00000000000E+00  0.00000000000E+00  0.45593999997E+02  0.45594000000E+02  0.51100000000E-03 0.  1.
         11   -1    0    0    0    0 -0.00000000000E+00 -0.00000000000E+00 -0.45593999997E+02  0.45594000000E+02  0.51100000000E-03 0. -1.
    9900012    2    1    2    0    0  0.89880106506E+00  0.73951640231E+00  0.19558834400E+00  0.90007753134E+02  0.90000014676E+02 0.  0.
        -12    1    1    2    0    0 -0.89880106506E+00 -0.73951640231E+00 -0.19558834400E+00  0.11802468658E+01  0.00000000000E+00 0.  1.
         11    1    3    3    0    0 -0.24544527278E+00 -0.66587017477E+01  0.67046582594E+01  0.94525655239E+01  0.51100000000E-03 0. -1.
        -11    1    3    3    0    0  0.25679050509E+02  0.33297841692E+02  0.65660617035E+01  0.42559053831E+02  0.51100000000E-03 0.  1.
         12    1    3    3    0    0 -0.24534804172E+02 -0.25899623542E+02 -0.13075131619E+02  0.37996133780E+02  0.00000000000E+00 0. -1.
</event>
<event>
 7    1  0.1756449E-015  0.9000780E+02  0.7816164E-02  0.1186339E+00
        -11   -1    0    0    0    0  0.00000000000E+00  0.00000000000E+00  0.45593999997E+02  0.45594000000E+02  0.51100000000E-03 0.  1.
         11   -1    0    0    0    0 -0.00000000000E+00 -0.00000000000E+00 -0.45593999997E+02  0.45594000000E+02  0.51100000000E-03 0. -1.
    9900012    2    1    2    0    0  0.69051824592E+00 -0.68098428068E+00 -0.67255274726E+00  0.90007795680E+02  0.90000057783E+02 0.  0.
        -12    1    1    2    0    0 -0.69051824592E+00  0.68098428068E+00  0.67255274726E+00  0.11802043197E+01  0.00000000000E+00 0.  1.
         11    1    3    3    0    0  0.74513234633E+01  0.37221098623E+02 -0.12053718333E+02  0.39827434388E+02  0.51100000000E-03 0. -1.
        -11    1    3    3    0    0 -0.25807738029E+01  0.37116742947E+01  0.67188292514E+01  0.80981223911E+01  0.51100000000E-03 0.  1.
        -12    1    3    3    0    0 -0.41800314145E+01 -0.41613757198E+02  0.46623363340E+01  0.42082238901E+02  0.00000000000E+00 0.  1.
</event>
<event>
 7    1  0.1756449E-015  0.9000777E+02  0.7816164E-02  0.1186339E+00
        -11   -1    0    0    0    0  0.00000000000E+00  0.00000000000E+00  0.45593999997E+02  0.45594000000E+02  0.51100000000E-03 0. -1.
         11   -1    0    0    0    0 -0.00000000000E+00 -0.00000000000E+00 -0.45593999997E+02  0.45594000000E+02  0.51100000000E-03 0.  1.
    9900012    2    1    2    0    0 -0.44949269803E+00  0.84164625723E+00  0.69464970241E+00  0.90007766838E+02  0.90000028560E+02 0.  0.
        -12    1    1    2    0    0  0.44949269803E+00 -0.84164625723E+00 -0.69464970241E+00  0.11802331621E+01  0.00000000000E+00 0.  1.
         11    1    3    3    0    0 -0.37564727368E+02  0.14918790013E+02  0.17755676167E+02  0.44146835380E+02  0.51100000000E-03 0. -1.
        -11    1    3    3    0    0  0.82373848643E+01  0.30581231312E+01 -0.17651875178E+01  0.89622828411E+01  0.51100000000E-03 0.  1.
        -12    1    3    3    0    0  0.28877849806E+02 -0.17135266887E+02 -0.15295838946E+02  0.36898648617E+02  0.00000000000E+00 0.  1.
</event>
<event>
 7    1  0.1756449E-015  0.9000771E+02  0.7816164E-02  0.1186339E+00
        -11   -1    0    0    0    0  0.00000000000E+00  0.00000000000E+00  0.45593999997E+02  0.45594000000E+02  0.51100000000E-03 0.  1.
         11   -1    0    0    0    0 -0.00000000000E+00 -0.00000000000E+00 -0.45593999997E+02  0.45594000000E+02  0.51100000000E-03 0. -1.
    9900012    2    1    2    0    0  0.95341018217E+00 -0.11946843694E+00  0.68543549621E+00  0.90007709569E+02  0.89999970535E+02 0.  0.
        -12    1    1    2    0    0 -0.95341018217E+00  0.11946843694E+00 -0.68543549621E+00  0.11802904314E+01  0.00000000000E+00 0.  1.
         11    1    3    3    0    0 -0.21126388262E+01  0.62028947375E+01  0.59477139515E+01  0.88495450417E+01  0.51100000000E-03 0. -1.
        -11    1    3    3    0    0 -0.19775266610E+02 -0.84306991523E+01  0.31314722351E+02  0.37983545041E+02  0.51100000000E-03 0.  1.
         12    1    3    3    0    0  0.22841315619E+02  0.21083359778E+01 -0.36577000806E+02  0.43174619486E+02  0.00000000000E+00 0. -1.
</event>
<event>
 7    1  0.1756449E-015  0.9000747E+02  0.7816164E-02  0.1186340E+00
        -11   -1    0    0    0    0  0.00000000000E+00  0.00000000000E+00  0.45593999997E+02  0.45594000000E+02  0.51100000000E-03 0.  1.
         11   -1    0    0    0    0 -0.00000000000E+00 -0.00000000000E+00 -0.45593999997E+02  0.45594000000E+02  0.51100000000E-03 0. -1.
    9900012    2    1    2    0    0  0.78385986536E+00 -0.82111136897E+00  0.32401285625E+00  0.90007472787E+02  0.89999730628E+02 0.  0.
        -12    1    1    2    0    0 -0.78385986536E+00  0.82111136897E+00 -0.32401285625E+00  0.11805272126E+01  0.00000000000E+00 0.  1.
         11    1    3    3    0    0 -0.27291185777E+02 -0.87064328571E+01 -0.24544509185E+02  0.37723251790E+02  0.51100000000E-03 0. -1.
        -11    1    3    3    0    0  0.59964736755E+01 -0.77998631778E+01 -0.57588066365E+01  0.11399974398E+02  0.51100000000E-03 0.  1.
        -12    1    3    3    0    0  0.22078571967E+02  0.15685184666E+02  0.30627328678E+02  0.40884246600E+02  0.00000000000E+00 0.  1.
</event>
<event>
 7    1  0.1756449E-015  0.9000786E+02  0.7816164E-02  0.1186339E+00
        -11   -1    0    0    0    0  0.00000000000E+00  0.00000000000E+00  0.45593999997E+02  0.45594000000E+02  0.51100000000E-03 0. -1.
         11   -1    0    0    0    0 -0.00000000000E+00 -0.00000000000E+00 -0.45593999997E+02  0.45594000000E+02  0.51100000000E-03 0.  1.
    9900012    2    1    2    0    0 -0.10828855549E+01  0.46246303003E+00  0.78825834901E-01  0.90007861580E+02  0.90000124552E+02 0.  0.
        -12    1    1    2    0    0  0.10828855549E+01 -0.46246303003E+00 -0.78825834901E-01  0.11801384204E+01  0.00000000000E+00 0.  1.
         11    1    3    3    0    0 -0.13006798230E+02  0.17326342953E+02  0.80017604669E+01  0.23095608482E+02  0.51100000000E-03 0. -1.
        -11    1    3    3    0    0 -0.15235108459E+01 -0.11400852091E+02  0.26861712569E+02  0.29220748042E+02  0.51100000000E-03 0.  1.
        -12    1    3    3    0    0  0.13447423521E+02 -0.54630278316E+01 -0.34784647201E+02  0.37691505056E+02  0.00000000000E+00 0.  1.
</event>
<event>
 7    1  0.1756449E-015  0.9000777E+02  0.7816164E-02  0.1186339E+00
        -11   -1    0    0    0    0  0.00000000000E+00  0.00000000000E+00  0.45593999997E+02  0.45594000000E+02  0.51100000000E-03 0.  1.
         11   -1    0    0    0    0 -0.00000000000E+00 -0.00000000000E+00 -0.45593999997E+02  0.45594000000E+02  0.51100000000E-03 0. -1.
    9900012    2    1    2    0    0 -0.11209125199E+01  0.26363522531E+00 -0.25882512533E+00  0.90007771694E+02  0.90000033480E+02 0.  0.
        -12    1    1    2    0    0  0.11209125199E+01 -0.26363522531E+00  0.25882512533E+00  0.11802283062E+01  0.00000000000E+00 0.  1.
         11    1    3    3    0    0  0.23456838136E+02 -0.12923047070E+01 -0.34221277867E+02  0.41508904658E+02  0.51100000000E-03 0. -1.
        -11    1    3    3    0    0  0.33547300776E+01 -0.19473071267E+00 -0.11908137840E+01  0.35651327708E+01  0.51100000000E-03 0.  1.
        -12    1    3    3    0    0 -0.27932480733E+02  0.17506706449E+01  0.35153266525E+02  0.44933734265E+02  0.00000000000E+00 0.  1.
</event>
<event>
 7    1  0.1756449E-015  0.9000774E+02  0.7816164E-02  0.1186339E+00
        -11   -1    0    0    0    0  0.00000000000E+00  0.00000000000E+00  0.45593999997E+02  0.45594000000E+02  0.51100000000E-03 0.  1.
         11   -1    0    0    0    0 -0.00000000000E+00 -0.00000000000E+00 -0.45593999997E+02  0.45594000000E+02  0.51100000000E-03 0. -1.
    9900012    2    1    2    0    0 -0.11039740454E+01  0.38326144027E+00 -0.16539607839E+00  0.90007744143E+02  0.90000005566E+02 0.  0.
        -12    1    1    2    0    0  0.11039740454E+01 -0.38326144027E+00  0.16539607839E+00  0.11802558567E+01  0.00000000000E+00 0.  1.
         11    1    3    3    0    0 -0.98879283262E+01  0.22048449574E+02 -0.21811746990E+02  0.32552381821E+02  0.51100000000E-03 0. -1.
        -11    1    3    3    0    0  0.38867132230E+01  0.24792746638E+01 -0.13652291275E+02  0.14409663420E+02  0.51100000000E-03 0.  1.
        -12    1    3    3    0    0  0.48972410578E+01 -0.24144462798E+02  0.35298642187E+02  0.43045698903E+02  0.00000000000E+00 0.  1.
</event>
<event>
 7    1  0.1756449E-015  0.9000785E+02  0.7816164E-02  0.1186339E+00
        -11   -1    0    0    0    0  0.00000000000E+00  0.00000000000E+00  0.45593999997E+02  0.45594000000E+02  0.51100000000E-03 0.  1.
         11   -1    0    0    0    0 -0.00000000000E+00 -0.00000000000E+00 -0.45593999997E+02  0.45594000000E+02  0.51100000000E-03 0. -1.
    9900012    2    1    2    0    0 -0.35541339705E+00  0.96036914481E+00 -0.58661375236E+00  0.90007854555E+02  0.90000117435E+02 0.  0.
        -12    1    1    2    0    0  0.35541339705E+00 -0.96036914481E+00  0.58661375236E+00  0.11801454451E+01  0.00000000000E+00 0.  1.
         11    1    3    3    0    0  0.40938102061E+02  0.86064093007E+01 -0.71761519359E+01  0.42444029477E+02  0.51100000000E-03 0. -1.
        -11    1    3    3    0    0 -0.67779526315E+01  0.58828534057E+01 -0.26491345541E+01  0.93576984464E+01  0.51100000000E-03 0.  1.
        -12    1    3    3    0    0 -0.34515562826E+02 -0.13528893562E+02  0.92386727376E+01  0.38206126631E+02  0.00000000000E+00 0.  1.
</event>
<event>
 7    1  0.1756449E-015  0.9000774E+02  0.7816164E-02  0.1186339E+00
        -11   -1    0    0    0    0  0.00000000000E+00  0.00000000000E+00  0.45593999997E+02  0.45594000000E+02  0.51100000000E-03 0.  1.
         11   -1    0    0    0    0 -0.00000000000E+00 -0.00000000000E+00 -0.45593999997E+02  0.45594000000E+02  0.51100000000E-03 0. -1.
    9900012    2    1    2    0    0 -0.10435043576E+01 -0.96082290266E-01 -0.54303075940E+00  0.90007739200E+02  0.90000000557E+02 0.  0.
        -12    1    1    2    0    0  0.10435043576E+01  0.96082290266E-01  0.54303075940E+00  0.11802608002E+01  0.00000000000E+00 0.  1.
         11    1    3    3    0    0 -0.75838397197E+01  0.10394567086E+02 -0.25575196104E+01  0.13118786401E+02  0.51100000000E-03 0. -1.
        -11    1    3    3    0    0 -0.31849373394E+02  0.96174467069E+01  0.39818496127E+01  0.33507208080E+02  0.51100000000E-03 0.  1.
         12    1    3    3    0    0  0.38389708756E+02 -0.20108096084E+02 -0.19673607618E+01  0.43381744719E+02  0.00000000000E+00 0. -1.
</event>
<event>
 7    1  0.1756449E-015  0.9000773E+02  0.7816164E-02  0.1186339E+00
        -11   -1    0    0    0    0  0.00000000000E+00  0.00000000000E+00  0.45593999997E+02  0.45594000000E+02  0.51100000000E-03 0.  1.
         11   -1    0    0    0    0 -0.00000000000E+00 -0.00000000000E+00 -0.45593999997E+02  0.45594000000E+02  0.51100000000E-03 0. -1.
    9900012    2    1    2    0    0 -0.31133953202E+00  0.10175456176E+01 -0.51059603090E+00  0.90007728974E+02  0.89999990196E+02 0.  0.
        -12    1    1    2    0    0  0.31133953202E+00 -0.10175456176E+01  0.51059603090E+00  0.11802710260E+01  0.00000000000E+00 0.  1.
         11    1    3    3    0    0 -0.18081294830E+01  0.36869209249E+01 -0.41638209794E+02  0.41840210722E+02  0.51100000000E-03 0. -1.
        -11    1    3    3    0    0  0.48063513554E+01  0.18201242832E+01 -0.13592271798E+01  0.53161418854E+01  0.51100000000E-03 0.  1.
        -12    1    3    3    0    0 -0.33095614044E+01 -0.44894995906E+01  0.42486840943E+02  0.42851376367E+02  0.00000000000E+00 0.  1.
</event>
<event>
 7    1  0.1756449E-015  0.9000761E+02  0.7816164E-02  0.1186339E+00
        -11   -1    0    0    0    0  0.00000000000E+00  0.00000000000E+00  0.45593999997E+02  0.45594000000E+02  0.51100000000E-03 0. -1.
         11   -1    0    0    0    0 -0.00000000000E+00 -0.00000000000E+00 -0.45593999997E+02  0.45594000000E+02  0.51100000000E-03 0.  1.
    9900012    2    1    2    0    0 -0.49220888568E+00 -0.30964179956E+00 -0.10272156875E+01  0.90007610361E+02  0.89999870018E+02 0.  0.
        -12    1    1    2    0    0  0.49220888568E+00  0.30964179956E+00  0.10272156875E+01  0.11803896390E+01  0.00000000000E+00 0.  1.
         11    1    3    3    0    0 -0.80109933000E+01 -0.11146861813E+01  0.58829618345E+01  0.10001388861E+02  0.51100000000E-03 0. -1.
        -11    1    3    3    0    0  0.73367236923E+01 -0.37959124807E+02  0.60507664077E+01  0.39132268590E+02  0.51100000000E-03 0.  1.
         12    1    3    3    0    0  0.18206072202E+00  0.38764169188E+02 -0.12960943930E+02  0.40873952910E+02  0.00000000000E+00 0. -1.
</event>
<event>
 7    1  0.1756449E-015  0.9000760E+02  0.7816164E-02  0.1186339E+00
        -11   -1    0    0    0    0  0.00000000000E+00  0.00000000000E+00  0.45593999997E+02  0.45594000000E+02  0.51100000000E-03 0. -1.
         11   -1    0    0    0    0 -0.00000000000E+00 -0.00000000000E+00 -0.45593999997E+02  0.45594000000E+02  0.51100000000E-03 0.  1.
    9900012    2    1    2    0    0 -0.57885484423E+00 -0.84087316364E+00 -0.59262911358E+00  0.90007597580E+02  0.89999857067E+02 0.  0.
        -12    1    1    2    0    0  0.57885484423E+00  0.84087316364E+00  0.59262911358E+00  0.11804024205E+01  0.00000000000E+00 0.  1.
         11    1    3    3    0    0 -0.17188938570E+02 -0.12547774543E+02  0.30732020567E+02  0.37381323459E+02  0.51100000000E-03 0. -1.
        -11    1    3    3    0    0 -0.46755248374E+01  0.51982315234E+01  0.59704791509E+01  0.91939526336E+01  0.51100000000E-03 0.  1.
        -12    1    3    3    0    0  0.21285608563E+02  0.65086698561E+01 -0.37295128831E+02  0.43432321487E+02  0.00000000000E+00 0.  1.
</event>
<event>
 7    1  0.1756449E-015  0.9000774E+02  0.7816164E-02  0.1186339E+00
        -11   -1    0    0    0    0  0.00000000000E+00  0.00000000000E+00  0.45593999997E+02  0.45594000000E+02  0.51100000000E-03 0. -1.
         11   -1    0    0    0    0 -0.00000000000E+00 -0.00000000000E+00 -0.45593999997E+02  0.45594000000E+02  0.51100000000E-03 0.  1.
    9900012    2    1    2    0    0  0.92843807443E+00  0.14000179079E+00  0.71512837567E+00  0.90007743099E+02  0.90000004508E+02 0.  0.
        -12    1    1    2    0    0 -0.92843807443E+00 -0.14000179079E+00 -0.71512837567E+00  0.11802569013E+01  0.00000000000E+00 0.  1.
         11    1    3    3    0    0  0.17413148595E+01  0.17478857576E+01  0.37655336174E+02  0.37736078554E+02  0.51100000000E-03 0. -1.
        -11    1    3    3    0    0 -0.13247869683E+02  0.56336172153E+00 -0.27110843578E-01  0.13259870392E+02  0.51100000000E-03 0.  1.
        -12    1    3    3    0    0  0.12434992898E+02 -0.21712456883E+01 -0.36913096954E+02  0.39011794152E+02  0.00000000000E+00 0.  1.
</event>
<event>
 7    1  0.1756449E-015  0.9000770E+02  0.7816164E-02  0.1186339E+00
        -11   -1    0    0    0    0  0.00000000000E+00  0.00000000000E+00  0.45593999997E+02  0.45594000000E+02  0.51100000000E-03 0. -1.
         11   -1    0    0    0    0 -0.00000000000E+00 -0.00000000000E+00 -0.45593999997E+02  0.45594000000E+02  0.51100000000E-03 0.  1.
    9900012    2    1    2    0    0 -0.10155499097E+01 -0.29672434282E-01  0.60074231194E+00  0.90007697752E+02  0.89999958562E+02 0.  0.
        -12    1    1    2    0    0  0.10155499097E+01  0.29672434282E-01 -0.60074231194E+00  0.11803022485E+01  0.00000000000E+00 0.  1.
         11    1    3    3    0    0  0.12641855000E+02 -0.35770345986E+02  0.70074912075E+01  0.38580293974E+02  0.51100000000E-03 0. -1.
        -11    1    3    3    0    0  0.25251990818E+01  0.27340371393E+01  0.10371592952E+02  0.11019143801E+02  0.51100000000E-03 0.  1.
        -12    1    3    3    0    0 -0.16182603991E+02  0.33006636413E+02 -0.16778341847E+02  0.40408259977E+02  0.00000000000E+00 0.  1.
</event>
<event>
 7    1  0.1756449E-015  0.9000769E+02  0.7816164E-02  0.1186339E+00
        -11   -1    0    0    0    0  0.00000000000E+00  0.00000000000E+00  0.45593999997E+02  0.45594000000E+02  0.51100000000E-03 0. -1.
         11   -1    0    0    0    0 -0.00000000000E+00 -0.00000000000E+00 -0.45593999997E+02  0.45594000000E+02  0.51100000000E-03 0.  1.
    9900012    2    1    2    0    0 -0.11359685237E+01  0.27987730047E+00  0.15611314810E+00  0.90007691945E+02  0.89999952678E+02 0.  0.
        -12    1    1    2    0    0  0.11359685237E+01 -0.27987730047E+00 -0.15611314810E+00  0.11803080552E+01  0.00000000000E+00 0.  1.
         11    1    3    3    0    0 -0.41716062990E+02 -0.21194124733E+01 -0.47266402075E+01  0.42036447859E+02  0.51100000000E-03 0. -1.
        -11    1    3    3    0    0  0.63855725650E+01 -0.43787874150E+01  0.10096641507E+02  0.12723658522E+02  0.51100000000E-03 0.  1.
        -12    1    3    3    0    0  0.34194521902E+02  0.67780771887E+01 -0.52138881509E+01  0.35247585564E+02  0.00000000000E+00 0.  1.
</event>
<event>
 7    1  0.1756449E-015  0.9000766E+02  0.7816164E-02  0.1186339E+00
        -11   -1    0    0    0    0  0.00000000000E+00  0.00000000000E+00  0.45593999997E+02  0.45594000000E+02  0.51100000000E-03 0.  1.
         11   -1    0    0    0    0 -0.00000000000E+00 -0.00000000000E+00 -0.45593999997E+02  0.45594000000E+02  0.51100000000E-03 0. -1.
    9900012    2    1    2    0    0 -0.58799879754E+00  0.17448770503E-01 -0.10233005095E+01  0.90007664887E+02  0.89999925264E+02 0.  0.
        -12    1    1    2    0    0  0.58799879754E+00 -0.17448770503E-01  0.10233005095E+01  0.11803351127E+01  0.00000000000E+00 0.  1.
         11    1    3    3    0    0  0.52279368919E+01  0.72515299479E+01  0.10502167706E+02  0.13791719890E+02  0.51100000000E-03 0. -1.
        -11    1    3    3    0    0  0.93077785181E+01  0.19888529582E+02  0.21606070747E+02  0.30806016349E+02  0.51100000000E-03 0.  1.
         12    1    3    3    0    0 -0.15123714208E+02 -0.27122610759E+02 -0.33131538963E+02  0.45409928649E+02  0.00000000000E+00 0. -1.
</event>
<event>
 7    1  0.1756449E-015  0.9000760E+02  0.7816164E-02  0.1186339E+00
        -11   -1    0    0    0    0  0.00000000000E+00  0.00000000000E+00  0.45593999997E+02  0.45594000000E+02  0.51100000000E-03 0.  1.
         11   -1    0    0    0    0 -0.00000000000E+00 -0.00000000000E+00 -0.45593999997E+02  0.45594000000E+02  0.51100000000E-03 0. -1.
    9900012    2    1    2    0    0 -0.41235765119E+00 -0.55439502858E+00 -0.95705389220E+00  0.90007599715E+02  0.89999859231E+02 0.  0.
        -12    1    1    2    0    0  0.41235765119E+00  0.55439502858E+00  0.95705389220E+00  0.11804002850E+01  0.00000000000E+00 0.  1.
         11    1    3    3    0    0  0.70570682163E+01  0.34918728349E+01 -0.53740874719E+01  0.95329011388E+01  0.51100000000E-03 0. -1.
        -11    1    3    3    0    0  0.20642838859E+02 -0.12107514352E+02  0.32211477708E+02  0.40128518492E+02  0.51100000000E-03 0.  1.
         12    1    3    3    0    0 -0.28112264726E+02  0.80612464882E+01 -0.27794444129E+02  0.40346180084E+02  0.00000000000E+00 0. -1.
</event>
<event>
 7    1  0.1756449E-015  0.9000775E+02  0.7816164E-02  0.1186339E+00
        -11   -1    0    0    0    0  0.00000000000E+00  0.00000000000E+00  0.45593999997E+02  0.45594000000E+02  0.51100000000E-03 0. -1.
         11   -1    0    0    0    0 -0.00000000000E+00 -0.00000000000E+00 -0.45593999997E+02  0.45594000000E+02  0.51100000000E-03 0.  1.
    9900012    2    1    2    0    0 -0.21219942989E+00  0.11316382001E+01 -0.25953304431E+00  0.90007749596E+02  0.90000011091E+02 0.  0.
        -12    1    1    2    0    0  0.21219942989E+00 -0.11316382001E+01  0.25953304431E+00  0.11802504035E+01  0.00000000000E+00 0.  1.
         11    1    3    3    0    0 -0.70536247353E+01  0.82382798021E+01  0.96505850789E+00  0.10888260384E+02  0.51100000000E-03 0. -1.
        -11    1    3    3    0    0 -0.13498150518E+02  0.29147125426E+02 -0.14831199388E+02  0.35379647590E+02  0.51100000000E-03 0.  1.
         12    1    3    3    0    0  0.20339575824E+02 -0.36253767028E+02  0.13606607836E+02  0.43739841623E+02  0.00000000000E+00 0. -1.
</event>
<event>
 7    1  0.1756449E-015  0.9000767E+02  0.7816164E-02  0.1186339E+00
        -11   -1    0    0    0    0  0.00000000000E+00  0.00000000000E+00  0.45593999997E+02  0.45594000000E+02  0.51100000000E-03 0. -1.
         11   -1    0    0    0    0 -0.00000000000E+00 -0.00000000000E+00 -0.45593999997E+02  0.45594000000E+02  0.51100000000E-03 0.  1.
    9900012    2    1    2    0    0 -0.70687214785E-01  0.27210994874E+00  0.11463599083E+01  0.90007668883E+02  0.89999929312E+02 0.  0.
        -12    1    1    2    0    0  0.70687214785E-01 -0.27210994874E+00 -0.11463599083E+01  0.11803311171E+01  0.00000000000E+00 0.  1.
         11    1    3    3    0    0 -0.32176685572E+01  0.25150148415E+01  0.62976677151E+01  0.75059516057E+01  0.51100000000E-03 0. -1.
        -11    1    3    3    0    0 -0.23093421689E+02 -0.30805545812E+02 -0.16796497895E+02  0.42004882096E+02  0.51100000000E-03 0.  1.
         12    1    3    3    0    0  0.26240403031E+02  0.28562640919E+02  0.11645190088E+02  0.40496835181E+02  0.00000000000E+00 0. -1.
</event>
<event>
 7    1  0.1756449E-015  0.9000776E+02  0.7816164E-02  0.1186339E+00
        -11   -1    0    0    0    0  0.00000000000E+00  0.00000000000E+00  0.45593999997E+02  0.45594000000E+02  0.51100000000E-03 0. -1.
         11   -1    0    0    0    0 -0.00000000000E+00 -0.00000000000E+00 -0.45593999997E+02  0.45594000000E+02  0.51100000000E-03 0.  1.
    9900012    2    1    2    0    0  0.10127094468E+01  0.48896003405E+00  0.35820273584E+00  0.90007757848E+02  0.90000019451E+02 0.  0.
        -12    1    1    2    0    0 -0.10127094468E+01 -0.48896003405E+00 -0.35820273584E+00  0.11802421524E+01  0.00000000000E+00 0.  1.
         11    1    3    3    0    0 -0.11327815480E+01 -0.72032459228E+01  0.41730052483E+00  0.73037035707E+01  0.51100000000E-03 0. -1.
        -11    1    3    3    0    0  0.93596465640E+01 -0.32503808468E+02 -0.17749594249E+02  0.38198804235E+02  0.51100000000E-03 0.  1.
         12    1    3    3    0    0 -0.72141555693E+01  0.40196014425E+02  0.17690496460E+02  0.44505250041E+02  0.00000000000E+00 0. -1.
</event>
<event>
 7    1  0.1756449E-015  0.9000776E+02  0.7816164E-02  0.1186339E+00
        -11   -1    0    0    0    0  0.00000000000E+00  0.00000000000E+00  0.45593999997E+02  0.45594000000E+02  0.51100000000E-03 0.  1.
         11   -1    0    0    0    0 -0.00000000000E+00 -0.00000000000E+00 -0.45593999997E+02  0.45594000000E+02  0.51100000000E-03 0. -1.
    9900012    2    1    2    0    0 -0.25008655433E+00  0.11199320172E+01  0.27601931950E+00  0.90007755249E+02  0.90000016818E+02 0.  0.
        -12    1    1    2    0    0  0.25008655433E+00 -0.11199320172E+01 -0.27601931950E+00  0.11802447511E+01  0.00000000000E+00 0.  1.
         11    1    3    3    0    0  0.37306524875E+01  0.78747130481E+01  0.40627544437E+01  0.96143043172E+01  0.51100000000E-03 0. -1.
        -11    1    3    3    0    0 -0.37271277293E+02  0.11862648394E+02  0.90530809547E+01  0.40147587885E+02  0.51100000000E-03 0.  1.
         12    1    3    3    0    0  0.33290538251E+02 -0.18617429425E+02 -0.12839816079E+02  0.40245863047E+02  0.00000000000E+00 0. -1.
</event>
<event>
 7    1  0.1756449E-015  0.9000774E+02  0.7816164E-02  0.1186339E+00
        -11   -1    0    0    0    0  0.00000000000E+00  0.00000000000E+00  0.45593999997E+02  0.45594000000E+02  0.51100000000E-03 0. -1.
         11   -1    0    0    0    0 -0.00000000000E+00 -0.00000000000E+00 -0.45593999997E+02  0.45594000000E+02  0.51100000000E-03 0.  1.
    9900012    2    1    2    0    0  0.20847786728E+00  0.11359417771E+01  0.24328382549E+00  0.90007739960E+02  0.90000001328E+02 0.  0.
        -12    1    1    2    0    0 -0.20847786728E+00 -0.11359417771E+01 -0.24328382549E+00  0.11802600399E+01  0.00000000000E+00 0.  1.
         11    1    3    3    0    0  0.10760888807E+02  0.35197569831E+02 -0.59070136605E+01  0.37276781790E+02  0.51100000000E-03 0. -1.
        -11    1    3    3    0    0  0.42389137797E+01  0.60676883387E+01  0.66636179166E+01  0.99593692475E+01  0.51100000000E-03 0.  1.
        -12    1    3    3    0    0 -0.14791324719E+02 -0.40129316393E+02 -0.51332043064E+00  0.42771588923E+02  0.00000000000E+00 0.  1.
</event>
<event>
 7    1  0.1756449E-015  0.9000772E+02  0.7816164E-02  0.1186339E+00
        -11   -1    0    0    0    0  0.00000000000E+00  0.00000000000E+00  0.45593999997E+02  0.45594000000E+02  0.51100000000E-03 0.  1.
         11   -1    0    0    0    0 -0.00000000000E+00 -0.00000000000E+00 -0.45593999997E+02  0.45594000000E+02  0.51100000000E-03 0. -1.
    9900012    2    1    2    0    0 -0.69672709413E+00 -0.90733892474E+00  0.29048076279E+00  0.90007715440E+02  0.89999976484E+02 0.  0.
        -12    1    1    2    0    0  0.69672709413E+00  0.90733892474E+00 -0.29048076279E+00  0.11802845596E+01  0.00000000000E+00 0.  1.
         11    1    3    3    0    0 -0.25426862079E+02 -0.18064035982E+02 -0.14788458001E+02  0.34518592113E+02  0.51100000000E-03 0. -1.
        -11    1    3    3    0    0 -0.41638427536E+01 -0.11194532832E+02 -0.88083279877E+00  0.11976268972E+02  0.51100000000E-03 0.  1.
        -12    1    3    3    0    0  0.28893977739E+02  0.28351229890E+02  0.15959771563E+02  0.43512854355E+02  0.00000000000E+00 0.  1.
</event>
<event>
 7    1  0.1756449E-015  0.9000785E+02  0.7816164E-02  0.1186339E+00
        -11   -1    0    0    0    0  0.00000000000E+00  0.00000000000E+00  0.45593999997E+02  0.45594000000E+02  0.51100000000E-03 0.  1.
         11   -1    0    0    0    0 -0.00000000000E+00 -0.00000000000E+00 -0.45593999997E+02  0.45594000000E+02  0.51100000000E-03 0. -1.
    9900012    2    1    2    0    0 -0.83130930584E+00 -0.13584869783E+00  0.82657625930E+00  0.90007848169E+02  0.90000110965E+02 0.  0.
        -12    1    1    2    0    0  0.83130930584E+00  0.13584869783E+00 -0.82657625930E+00  0.11801518305E+01  0.00000000000E+00 0.  1.
         11    1    3    3    0    0  0.14526012788E+02  0.91760250660E+01 -0.30726676372E+02  0.35204163456E+02  0.51100000000E-03 0. -1.
        -11    1    3    3    0    0  0.82930563239E+01  0.35416350851E+01 -0.42838696007E+01  0.99834613880E+01  0.51100000000E-03 0.  1.
        -12    1    3    3    0    0 -0.23650378417E+02 -0.12853508849E+02  0.35837122232E+02  0.44820223325E+02  0.00000000000E+00 0.  1.
</event>
<event>
 7    1  0.1756449E-015  0.9000776E+02  0.7816164E-02  0.1186339E+00
        -11   -1    0    0    0    0  0.00000000000E+00  0.00000000000E+00  0.45593999997E+02  0.45594000000E+02  0.51100000000E-03 0.  1.
         11   -1    0    0    0    0 -0.00000000000E+00 -0.00000000000E+00 -0.45593999997E+02  0.45594000000E+02  0.51100000000E-03 0. -1.
    9900012    2    1    2    0    0  0.18544460924E+00 -0.49461386196E+00 -0.10554273470E+01  0.90007762964E+02  0.90000024635E+02 0.  0.
        -12    1    1    2    0    0 -0.18544460924E+00  0.49461386196E+00  0.10554273470E+01  0.11802370357E+01  0.00000000000E+00 0.  1.
         11    1    3    3    0    0  0.39010085708E+02  0.16817953665E+02 -0.13661123761E+02  0.44623498912E+02  0.51100000000E-03 0. -1.
        -11    1    3    3    0    0 -0.54485683192E+01 -0.53357447366E+01  0.49964403921E+01  0.91170985229E+01  0.51100000000E-03 0.  1.
        -12    1    3    3    0    0 -0.33376072780E+02 -0.11976822791E+02  0.76092560224E+01  0.36267165530E+02  0.00000000000E+00 0.  1.
</event>
<event>
 7    1  0.1756449E-015  0.9000774E+02  0.7816164E-02  0.1186339E+00
        -11   -1    0    0    0    0  0.00000000000E+00  0.00000000000E+00  0.45593999997E+02  0.45594000000E+02  0.51100000000E-03 0. -1.
         11   -1    0    0    0    0 -0.00000000000E+00 -0.00000000000E+00 -0.45593999997E+02  0.45594000000E+02  0.51100000000E-03 0.  1.
    9900012    2    1    2    0    0 -0.66719379107E+00  0.40942389224E+00 -0.88331224915E+00  0.90007739009E+02  0.90000000363E+02 0.  0.
        -12    1    1    2    0    0  0.66719379107E+00 -0.40942389224E+00  0.88331224915E+00  0.11802609914E+01  0.00000000000E+00 0.  1.
         11    1    3    3    0    0 -0.29168673796E+01  0.80946403526E+01  0.22763818662E+01  0.89001815942E+01  0.51100000000E-03 0. -1.
        -11    1    3    3    0    0 -0.31413418020E+02 -0.32023062462E+00  0.22075874717E+02  0.38395958435E+02  0.51100000000E-03 0.  1.
         12    1    3    3    0    0  0.33663091609E+02 -0.73649858358E+01 -0.25235568833E+02  0.42711598979E+02  0.00000000000E+00 0. -1.
</event>
<event>
 7    1  0.1756449E-015  0.9000780E+02  0.7816164E-02  0.1186339E+00
        -11   -1    0    0    0    0  0.00000000000E+00  0.00000000000E+00  0.45593999997E+02  0.45594000000E+02  0.51100000000E-03 0.  1.
         11   -1    0    0    0    0 -0.00000000000E+00 -0.00000000000E+00 -0.45593999997E+02  0.45594000000E+02  0.51100000000E-03 0. -1.
    9900012    2    1    2    0    0 -0.22299621626E+00 -0.74955244520E+00 -0.88392212712E+00  0.90007798955E+02  0.90000061101E+02 0.  0.
        -12    1    1    2    0    0  0.22299621626E+00  0.74955244520E+00  0.88392212712E+00  0.11802010453E+01  0.00000000000E+00 0.  1.
         11    1    3    3    0    0  0.48763380924E+01  0.96101232307E+01  0.74065047966E+01  0.13076293636E+02  0.51100000000E-03 0. -1.
        -11    1    3    3    0    0  0.25481565876E+02  0.78038152852E+01 -0.25970614505E+02  0.37211322881E+02  0.51100000000E-03 0.  1.
         12    1    3    3    0    0 -0.30580900184E+02 -0.18163490961E+02  0.17680187582E+02  0.39720182438E+02  0.00000000000E+00 0. -1.
</event>
<event>
 7    1  0.1756449E-015  0.9000776E+02  0.7816164E-02  0.1186339E+00
        -11   -1    0    0    0    0  0.00000000000E+00  0.00000000000E+00  0.45593999997E+02  0.45594000000E+02  0.51100000000E-03 0.  1.
         11   -1    0    0    0    0 -0.00000000000E+00 -0.00000000000E+00 -0.45593999997E+02  0.45594000000E+02  0.51100000000E-03 0. -1.
    9900012    2    1    2    0    0 -0.59168566080E+00 -0.10206762046E+01 -0.33167797716E-01  0.90007757678E+02  0.90000019279E+02 0.  0.
        -12    1    1    2    0    0  0.59168566080E+00  0.10206762046E+01  0.33167797716E-01  0.11802423220E+01  0.00000000000E+00 0.  1.
         11    1    3    3    0    0 -0.21113242055E+02 -0.23311934646E+02 -0.30249042471E+02  0.43637367676E+02  0.51100000000E-03 0. -1.
        -11    1    3    3    0    0 -0.11151812397E+01  0.11407272679E+01  0.96608475634E+01  0.97916731871E+01  0.51100000000E-03 0.  1.
        -12    1    3    3    0    0  0.21636737634E+02  0.21150531173E+02  0.20555027110E+02  0.36578716815E+02  0.00000000000E+00 0.  1.
</event>
<event>
 7    1  0.2749838E-015  0.9000781E+02  0.7816164E-02  0.1186339E+00
        -11   -1    0    0    0    0  0.00000000000E+00  0.00000000000E+00  0.45593999997E+02  0.45594000000E+02  0.51100000000E-03 0.  1.
         11   -1    0    0    0    0 -0.00000000000E+00 -0.00000000000E+00 -0.45593999997E+02  0.45594000000E+02  0.51100000000E-03 0. -1.
    9900012    2    1    2    0    0 -0.88882352633E+00 -0.49215494698E+00 -0.60052886163E+00  0.90007805666E+02  0.90000067901E+02 0.  0.
        -12    1    1    2    0    0  0.88882352633E+00  0.49215494698E+00  0.60052886163E+00  0.11801943342E+01  0.00000000000E+00 0.  1.
         11    1    3    3    0    0  0.67949311078E+01  0.43595388968E+01  0.46301482428E+01  0.93067148428E+01  0.51100000000E-03 0. -1.
        -11    1    3    3    0    0  0.77194633423E+01  0.17546619088E+02  0.30366851977E+02  0.35911274761E+02  0.51100000000E-03 0.  1.
         12    1    3    3    0    0 -0.15403217976E+02 -0.22398312931E+02 -0.35597529081E+02  0.44789816062E+02  0.00000000000E+00 0. -1.
</event>
<event>
 7    1  0.1756449E-015  0.9000777E+02  0.7816164E-02  0.1186339E+00
        -11   -1    0    0    0    0  0.00000000000E+00  0.00000000000E+00  0.45593999997E+02  0.45594000000E+02  0.51100000000E-03 0.  1.
         11   -1    0    0    0    0 -0.00000000000E+00 -0.00000000000E+00 -0.45593999997E+02  0.45594000000E+02  0.51100000000E-03 0. -1.
    9900012    2    1    2    0    0 -0.10899267332E+00  0.10815502284E+01  0.45968857850E+00  0.90007769561E+02  0.90000031319E+02 0.  0.
        -12    1    1    2    0    0  0.10899267332E+00 -0.10815502284E+01 -0.45968857850E+00  0.11802304388E+01  0.00000000000E+00 0.  1.
         11    1    3    3    0    0 -0.26171618437E+01  0.11111165151E+01  0.11147083824E+02  0.11503981661E+02  0.51100000000E-03 0. -1.
        -11    1    3    3    0    0  0.23146448541E+01  0.34817054421E+02  0.12025677350E+02  0.36908017765E+02  0.51100000000E-03 0.  1.
         12    1    3    3    0    0  0.19352431623E+00 -0.34846620708E+02 -0.22713072595E+02  0.41595770135E+02  0.00000000000E+00 0. -1.
</event>
<event>
 7    1  0.1756449E-015  0.9000753E+02  0.7816164E-02  0.1186339E+00
        -11   -1    0    0    0    0  0.00000000000E+00  0.00000000000E+00  0.45593999997E+02  0.45594000000E+02  0.51100000000E-03 0. -1.
         11   -1    0    0    0    0 -0.00000000000E+00 -0.00000000000E+00 -0.45593999997E+02  0.45594000000E+02  0.51100000000E-03 0.  1.
    9900012    2    1    2    0    0  0.11589492656E+01  0.13437425414E+00  0.17966974843E+00  0.90007533542E+02  0.89999792184E+02 0.  0.
        -12    1    1    2    0    0 -0.11589492656E+01 -0.13437425414E+00 -0.17966974843E+00  0.11804664582E+01  0.00000000000E+00 0.  1.
         11    1    3    3    0    0  0.18441252257E+02 -0.17962296877E+02  0.29586655096E+02  0.39218542221E+02  0.51100000000E-03 0. -1.
        -11    1    3    3    0    0 -0.65999887530E+00 -0.68596963020E+00  0.67320453531E+01  0.67990137333E+01  0.51100000000E-03 0.  1.
        -12    1    3    3    0    0 -0.16622304116E+02  0.18782640762E+02 -0.36139030701E+02  0.43989977587E+02  0.00000000000E+00 0.  1.
</event>
<event>
 7    1  0.1756449E-015  0.9000774E+02  0.7816164E-02  0.1186339E+00
        -11   -1    0    0    0    0  0.00000000000E+00  0.00000000000E+00  0.45593999997E+02  0.45594000000E+02  0.51100000000E-03 0.  1.
         11   -1    0    0    0    0 -0.00000000000E+00 -0.00000000000E+00 -0.45593999997E+02  0.45594000000E+02  0.51100000000E-03 0. -1.
    9900012    2    1    2    0    0  0.43003843460E+00 -0.10525764632E+01  0.31650327418E+00  0.90007735373E+02  0.89999996680E+02 0.  0.
        -12    1    1    2    0    0 -0.43003843460E+00  0.10525764632E+01 -0.31650327418E+00  0.11802646266E+01  0.00000000000E+00 0.  1.
         11    1    3    3    0    0  0.19826176403E+01  0.66330453247E+01  0.42012074472E+01  0.80980372476E+01  0.51100000000E-03 0. -1.
        -11    1    3    3    0    0 -0.24195878354E+01 -0.44613192227E+02  0.73060485244E+00  0.44684730162E+02  0.51100000000E-03 0.  1.
         12    1    3    3    0    0  0.86700862972E+00  0.36927570439E+02 -0.46153090255E+01  0.37224967964E+02  0.00000000000E+00 0. -1.
</event>
<event>
 7    1  0.1756449E-015  0.9000777E+02  0.7816164E-02  0.1186339E+00
        -11   -1    0    0    0    0  0.00000000000E+00  0.00000000000E+00  0.45593999997E+02  0.45594000000E+02  0.51100000000E-03 0. -1.
         11   -1    0    0    0    0 -0.00000000000E+00 -0.00000000000E+00 -0.45593999997E+02  0.45594000000E+02  0.51100000000E-03 0.  1.
    9900012    2    1    2    0    0 -0.74150952838E+00  0.24340349575E+00  0.88535616296E+00  0.90007772404E+02  0.90000034200E+02 0.  0.
        -12    1    1    2    0    0  0.74150952838E+00 -0.24340349575E+00 -0.88535616296E+00  0.11802275957E+01  0.00000000000E+00 0.  1.
         11    1    3    3    0    0  0.66984040185E+01 -0.66453397724E+00  0.41541055093E+02  0.42082888213E+02  0.51100000000E-03 0. -1.
        -11    1    3    3    0    0 -0.40307849054E+01  0.81008409527E+01 -0.31454870342E+01  0.95794018622E+01  0.51100000000E-03 0.  1.
        -12    1    3    3    0    0 -0.34091286415E+01 -0.71929034797E+01 -0.37510211896E+02  0.38345482329E+02  0.00000000000E+00 0.  1.
</event>
<event>
 7    1  0.1756449E-015  0.9000764E+02  0.7816164E-02  0.1186339E+00
        -11   -1    0    0    0    0  0.00000000000E+00  0.00000000000E+00  0.45593999997E+02  0.45594000000E+02  0.51100000000E-03 0.  1.
         11   -1    0    0    0    0 -0.00000000000E+00 -0.00000000000E+00 -0.45593999997E+02  0.45594000000E+02  0.51100000000E-03 0. -1.
    9900012    2    1    2    0    0 -0.10128868271E+01 -0.52511579182E+00  0.30259017266E+00  0.90007641100E+02  0.89999901163E+02 0.  0.
        -12    1    1    2    0    0  0.10128868271E+01  0.52511579182E+00 -0.30259017266E+00  0.11803588997E+01  0.00000000000E+00 0.  1.
         11    1    3    3    0    0 -0.10919265325E+02  0.31064212157E+01  0.43249845430E+01  0.12148485484E+02  0.51100000000E-03 0. -1.
        -11    1    3    3    0    0 -0.17364970927E+02  0.10588875302E+02  0.27245640248E+02  0.33999873650E+02  0.51100000000E-03 0.  1.
         12    1    3    3    0    0  0.27271349425E+02 -0.14220412310E+02 -0.31268034618E+02  0.43859281966E+02  0.00000000000E+00 0. -1.
</event>
<event>
 7    1  0.1756449E-015  0.9000777E+02  0.7816164E-02  0.1186339E+00
        -11   -1    0    0    0    0  0.00000000000E+00  0.00000000000E+00  0.45593999997E+02  0.45594000000E+02  0.51100000000E-03 0.  1.
         11   -1    0    0    0    0 -0.00000000000E+00 -0.00000000000E+00 -0.45593999997E+02  0.45594000000E+02  0.51100000000E-03 0. -1.
    9900012    2    1    2    0    0 -0.43627923318E+00  0.87358817238E+00 -0.66290138909E+00  0.90007773701E+02  0.90000035514E+02 0.  0.
        -12    1    1    2    0    0  0.43627923318E+00 -0.87358817238E+00  0.66290138909E+00  0.11802262986E+01  0.00000000000E+00 0.  1.
         11    1    3    3    0    0  0.25336134133E+02  0.30594689890E+02 -0.41956102267E+01  0.39944435003E+02  0.51100000000E-03 0. -1.
        -11    1    3    3    0    0  0.61083816837E+01 -0.36112693630E+01 -0.40395678576E+01  0.81652741499E+01  0.51100000000E-03 0.  1.
        -12    1    3    3    0    0 -0.31880795050E+02 -0.26109832354E+02  0.75722766952E+01  0.41898064549E+02  0.00000000000E+00 0.  1.
</event>
<event>
 7    1  0.1756449E-015  0.9000773E+02  0.7816164E-02  0.1186339E+00
        -11   -1    0    0    0    0  0.00000000000E+00  0.00000000000E+00  0.45593999997E+02  0.45594000000E+02  0.51100000000E-03 0.  1.
         11   -1    0    0    0    0 -0.00000000000E+00 -0.00000000000E+00 -0.45593999997E+02  0.45594000000E+02  0.51100000000E-03 0. -1.
    9900012    2    1    2    0    0 -0.10247799038E+01  0.32547517429E+00 -0.48674293343E+00  0.90007734511E+02  0.89999995807E+02 0.  0.
        -12    1    1    2    0    0  0.10247799038E+01 -0.32547517429E+00  0.48674293343E+00  0.11802654886E+01  0.00000000000E+00 0.  1.
         11    1    3    3    0    0  0.19635744435E+02 -0.31570906198E+02 -0.58077106624E+01  0.37629962544E+02  0.51100000000E-03 0. -1.
        -11    1    3    3    0    0 -0.21939363376E+00 -0.64956953776E+01 -0.43500871862E+01  0.78208344053E+01  0.51100000000E-03 0.  1.
        -12    1    3    3    0    0 -0.20441130705E+02  0.38392076750E+02  0.96710549152E+01  0.44556937562E+02  0.00000000000E+00 0.  1.
</event>
<event>
 7    1  0.1756449E-015  0.9000775E+02  0.7816164E-02  0.1186339E+00
        -11   -1    0    0    0    0  0.00000000000E+00  0.00000000000E+00  0.45593999997E+02  0.45594000000E+02  0.51100000000E-03 0.  1.
         11   -1    0    0    0    0 -0.00000000000E+00 -0.00000000000E+00 -0.45593999997E+02  0.45594000000E+02  0.51100000000E-03 0. -1.
    9900012    2    1    2    0    0 -0.96437345066E+00  0.78580929794E-02 -0.68037796538E+00  0.90007749146E+02  0.90000010635E+02 0.  0.
        -12    1    1    2    0    0  0.96437345066E+00 -0.78580929794E-02  0.68037796538E+00  0.11802508537E+01  0.00000000000E+00 0.  1.
         11    1    3    3    0    0 -0.25534617112E+02 -0.23682622022E+02  0.43156730344E+01  0.35092852418E+02  0.51100000000E-03 0. -1.
        -11    1    3    3    0    0 -0.22370876574E+01 -0.10780497808E+02 -0.14092413023E+01  0.11099984481E+02  0.51100000000E-03 0.  1.
         12    1    3    3    0    0  0.26807331319E+02  0.34470977923E+02 -0.35868096974E+01  0.43814912246E+02  0.00000000000E+00 0. -1.
</event>
<event>
 7    1  0.1756449E-015  0.9000777E+02  0.7816164E-02  0.1186339E+00
        -11   -1    0    0    0    0  0.00000000000E+00  0.00000000000E+00  0.45593999997E+02  0.45594000000E+02  0.51100000000E-03 0.  1.
         11   -1    0    0    0    0 -0.00000000000E+00 -0.00000000000E+00 -0.45593999997E+02  0.45594000000E+02  0.51100000000E-03 0. -1.
    9900012    2    1    2    0    0  0.52779788040E+00  0.10455083780E+01 -0.14592805818E+00  0.90007765545E+02  0.90000027250E+02 0.  0.
        -12    1    1    2    0    0 -0.52779788040E+00 -0.10455083780E+01  0.14592805818E+00  0.11802344552E+01  0.00000000000E+00 0.  1.
         11    1    3    3    0    0  0.78530730609E+01  0.97818394664E+01  0.42231971568E+01  0.13235956117E+02  0.51100000000E-03 0. -1.
        -11    1    3    3    0    0 -0.11801285236E+02  0.14340876492E+02  0.29909822652E+02  0.35206939133E+02  0.51100000000E-03 0.  1.
         12    1    3    3    0    0  0.44760100557E+01 -0.23077207580E+02 -0.34278947867E+02  0.41564870295E+02  0.00000000000E+00 0. -1.
</event>
<event>
 7    1  0.1756449E-015  0.9000766E+02  0.7816164E-02  0.1186339E+00
        -11   -1    0    0    0    0  0.00000000000E+00  0.00000000000E+00  0.45593999997E+02  0.45594000000E+02  0.51100000000E-03 0. -1.
         11   -1    0    0    0    0 -0.00000000000E+00 -0.00000000000E+00 -0.45593999997E+02  0.45594000000E+02  0.51100000000E-03 0.  1.
    9900012    2    1    2    0    0 -0.29646463694E+00 -0.11106788006E+01  0.26776166488E+00  0.90007663189E+02  0.89999923543E+02 0.  0.
        -12    1    1    2    0    0  0.29646463694E+00  0.11106788006E+01 -0.26776166488E+00  0.11803368114E+01  0.00000000000E+00 0.  1.
         11    1    3    3    0    0  0.57507643970E+01 -0.31592576920E+01  0.46893420930E+01  0.80648701069E+01  0.51100000000E-03 0. -1.
        -11    1    3    3    0    0 -0.23231394654E+02 -0.15631613673E+02  0.29065051488E+02  0.40358670219E+02  0.51100000000E-03 0.  1.
         12    1    3    3    0    0  0.17184165620E+02  0.17680192564E+02 -0.33486631916E+02  0.41584122863E+02  0.00000000000E+00 0. -1.
</event>
<event>
 7    1  0.1756449E-015  0.9000772E+02  0.7816164E-02  0.1186339E+00
        -11   -1    0    0    0    0  0.00000000000E+00  0.00000000000E+00  0.45593999997E+02  0.45594000000E+02  0.51100000000E-03 0.  1.
         11   -1    0    0    0    0 -0.00000000000E+00 -0.00000000000E+00 -0.45593999997E+02  0.45594000000E+02  0.51100000000E-03 0. -1.
    9900012    2    1    2    0    0 -0.22901749460E+00 -0.11372643810E+00 -0.11522462200E+01  0.90007722885E+02  0.89999984028E+02 0.  0.
        -12    1    1    2    0    0  0.22901749460E+00  0.11372643810E+00  0.11522462200E+01  0.11802771146E+01  0.00000000000E+00 0.  1.
         11    1    3    3    0    0 -0.74532325039E+01 -0.51695948658E+01  0.14883401516E+01  0.91918737209E+01  0.51100000000E-03 0. -1.
        -11    1    3    3    0    0  0.28881151262E+01 -0.25635027891E+02  0.27412796378E+02  0.37642492870E+02  0.51100000000E-03 0.  1.
         12    1    3    3    0    0  0.43360998831E+01  0.30690896319E+02 -0.30053382749E+02  0.43173356294E+02  0.00000000000E+00 0. -1.
</event>
<event>
 7    1  0.1756449E-015  0.9000768E+02  0.7816164E-02  0.1186339E+00
        -11   -1    0    0    0    0  0.00000000000E+00  0.00000000000E+00  0.45593999997E+02  0.45594000000E+02  0.51100000000E-03 0.  1.
         11   -1    0    0    0    0 -0.00000000000E+00 -0.00000000000E+00 -0.45593999997E+02  0.45594000000E+02  0.51100000000E-03 0. -1.
    9900012    2    1    2    0    0  0.42587897945E+00 -0.55443003024E-01 -0.10994110778E+01  0.90007681590E+02  0.89999942187E+02 0.  0.
        -12    1    1    2    0    0 -0.42587897945E+00  0.55443003024E-01  0.10994110778E+01  0.11803184103E+01  0.00000000000E+00 0.  1.
         11    1    3    3    0    0 -0.53143257807E+01 -0.14916333355E-01 -0.75619816285E+01  0.92426104219E+01  0.51100000000E-03 0. -1.
        -11    1    3    3    0    0  0.53127359353E+01  0.39996381363E+02  0.10467445145E+01  0.40361260629E+02  0.51100000000E-03 0.  1.
         12    1    3    3    0    0  0.42746882489E+00 -0.40036908032E+02  0.54158260362E+01  0.40403810539E+02  0.00000000000E+00 0. -1.
</event>
<event>
 7    1  0.1756449E-015  0.9000773E+02  0.7816164E-02  0.1186339E+00
        -11   -1    0    0    0    0  0.00000000000E+00  0.00000000000E+00  0.45593999997E+02  0.45594000000E+02  0.51100000000E-03 0.  1.
         11   -1    0    0    0    0 -0.00000000000E+00 -0.00000000000E+00 -0.45593999997E+02  0.45594000000E+02  0.51100000000E-03 0. -1.
    9900012    2    1    2    0    0 -0.29286935861E+00 -0.25373832659E-01 -0.11430708672E+01  0.90007734225E+02  0.89999995517E+02 0.  0.
        -12    1    1    2    0    0  0.29286935861E+00  0.25373832659E-01  0.11430708672E+01  0.11802657752E+01  0.00000000000E+00 0.  1.
         11    1    3    3    0    0  0.22189534120E+01 -0.25538661993E+02 -0.26479116012E+02  0.36854994175E+02  0.51100000000E-03 0. -1.
        -11    1    3    3    0    0 -0.52036485727E+01 -0.50477331927E+01 -0.59171850568E+01  0.93579190054E+01  0.51100000000E-03 0.  1.
        -12    1    3    3    0    0  0.26918258021E+01  0.30561021353E+02  0.31253230201E+02  0.43794821044E+02  0.00000000000E+00 0.  1.
</event>
<event>
 7    1  0.1756449E-015  0.9000777E+02  0.7816164E-02  0.1186339E+00
        -11   -1    0    0    0    0  0.00000000000E+00  0.00000000000E+00  0.45593999997E+02  0.45594000000E+02  0.51100000000E-03 0.  1.
         11   -1    0    0    0    0 -0.00000000000E+00 -0.00000000000E+00 -0.45593999997E+02  0.45594000000E+02  0.51100000000E-03 0. -1.
    9900012    2    1    2    0    0 -0.81727309505E-01  0.10170349106E+01 -0.59322382277E+00  0.90007765334E+02  0.90000027037E+02 0.  0.
        -12    1    1    2    0    0  0.81727309505E-01 -0.10170349106E+01  0.59322382277E+00  0.11802346658E+01  0.00000000000E+00 0.  1.
         11    1    3    3    0    0  0.15034632295E+02  0.28331251843E+02 -0.25561284799E+02  0.41013159840E+02  0.51100000000E-03 0. -1.
        -11    1    3    3    0    0  0.73932741261E+01 -0.35893188016E+01  0.65768105433E+00  0.82447714579E+01  0.51100000000E-03 0.  1.
        -12    1    3    3    0    0 -0.22509633731E+02 -0.23724898131E+02  0.24310379922E+02  0.40749834036E+02  0.00000000000E+00 0.  1.
</event>
<event>
 7    1  0.1756449E-015  0.9000771E+02  0.7816164E-02  0.1186339E+00
        -11   -1    0    0    0    0  0.00000000000E+00  0.00000000000E+00  0.45593999997E+02  0.45594000000E+02  0.51100000000E-03 0. -1.
         11   -1    0    0    0    0 -0.00000000000E+00 -0.00000000000E+00 -0.45593999997E+02  0.45594000000E+02  0.51100000000E-03 0.  1.
    9900012    2    1    2    0    0  0.10124470937E+01  0.27858016391E+00  0.53891186499E+00  0.90007711042E+02  0.89999972028E+02 0.  0.
        -12    1    1    2    0    0 -0.10124470937E+01 -0.27858016391E+00 -0.53891186499E+00  0.11802889576E+01  0.00000000000E+00 0.  1.
         11    1    3    3    0    0  0.26377180680E+02 -0.17288565379E+02 -0.20570146732E+02  0.37653433978E+02  0.51100000000E-03 0. -1.
        -11    1    3    3    0    0 -0.25439446177E+01 -0.55619093702E+01 -0.70676113465E+01  0.93465298623E+01  0.51100000000E-03 0.  1.
        -12    1    3    3    0    0 -0.22820788968E+02  0.23129054913E+02  0.28176669943E+02  0.43007747202E+02  0.00000000000E+00 0.  1.
</event>
<event>
 7    1  0.1756449E-015  0.9000793E+02  0.7816164E-02  0.1186339E+00
        -11   -1    0    0    0    0  0.00000000000E+00  0.00000000000E+00  0.45593999997E+02  0.45594000000E+02  0.51100000000E-03 0. -1.
         11   -1    0    0    0    0 -0.00000000000E+00 -0.00000000000E+00 -0.45593999997E+02  0.45594000000E+02  0.51100000000E-03 0.  1.
    9900012    2    1    2    0    0  0.23894713021E-02  0.11237675155E+01  0.36015275991E+00  0.90007928329E+02  0.90000192183E+02 0.  0.
        -12    1    1    2    0    0 -0.23894713021E-02 -0.11237675155E+01 -0.36015275991E+00  0.11800716711E+01  0.00000000000E+00 0.  1.
         11    1    3    3    0    0  0.59056943405E+01  0.63574679847E+01 -0.15479296854E+01  0.88142334546E+01  0.51100000000E-03 0. -1.
        -11    1    3    3    0    0  0.25420506348E+02 -0.83947142709E+01 -0.27309268934E+02  0.38242248112E+02  0.51100000000E-03 0.  1.
         12    1    3    3    0    0 -0.31323811217E+02  0.31610138018E+01  0.29217351379E+02  0.42951446763E+02  0.00000000000E+00 0. -1.
</event>
<event>
 7    1  0.1756449E-015  0.9000776E+02  0.7816164E-02  0.1186339E+00
        -11   -1    0    0    0    0  0.00000000000E+00  0.00000000000E+00  0.45593999997E+02  0.45594000000E+02  0.51100000000E-03 0.  1.
         11   -1    0    0    0    0 -0.00000000000E+00 -0.00000000000E+00 -0.45593999997E+02  0.45594000000E+02  0.51100000000E-03 0. -1.
    9900012    2    1    2    0    0 -0.10838498916E+01  0.44850544289E+00 -0.13069535505E+00  0.90007758925E+02  0.90000020543E+02 0.  0.
        -12    1    1    2    0    0  0.10838498916E+01 -0.44850544289E+00  0.13069535505E+00  0.11802410753E+01  0.00000000000E+00 0.  1.
         11    1    3    3    0    0 -0.13916395783E+02 -0.62861927211E+00 -0.75468421599E+01  0.15843486378E+02  0.51100000000E-03 0. -1.
        -11    1    3    3    0    0  0.21637621666E+01  0.35295454098E+02 -0.60493450551E+01  0.35875416688E+02  0.51100000000E-03 0.  1.
         12    1    3    3    0    0  0.10668783725E+02 -0.34218329383E+02  0.13465491860E+02  0.38288855858E+02  0.00000000000E+00 0. -1.
</event>
<event>
 7    1  0.1756449E-015  0.9000770E+02  0.7816164E-02  0.1186339E+00
        -11   -1    0    0    0    0  0.00000000000E+00  0.00000000000E+00  0.45593999997E+02  0.45594000000E+02  0.51100000000E-03 0. -1.
         11   -1    0    0    0    0 -0.00000000000E+00 -0.00000000000E+00 -0.45593999997E+02  0.45594000000E+02  0.51100000000E-03 0.  1.
    9900012    2    1    2    0    0 -0.11434984225E+01 -0.10520105317E+00 -0.27284876066E+00  0.90007702432E+02  0.89999963304E+02 0.  0.
        -12    1    1    2    0    0  0.11434984225E+01  0.10520105317E+00  0.27284876066E+00  0.11802975684E+01  0.00000000000E+00 0.  1.
         11    1    3    3    0    0 -0.18555663320E+02 -0.14838246726E+02 -0.29836431754E+02  0.38140514774E+02  0.51100000000E-03 0. -1.
        -11    1    3    3    0    0  0.18674565334E+01 -0.84077772212E+01 -0.28897602763E+01  0.90845377660E+01  0.51100000000E-03 0.  1.
        -12    1    3    3    0    0  0.15544708364E+02  0.23140822894E+02  0.32453343270E+02  0.42782649891E+02  0.00000000000E+00 0.  1.
</event>
<event>
 7    1  0.1756449E-015  0.9000778E+02  0.7816164E-02  0.1186339E+00
        -11   -1    0    0    0    0  0.00000000000E+00  0.00000000000E+00  0.45593999997E+02  0.45594000000E+02  0.51100000000E-03 0. -1.
         11   -1    0    0    0    0 -0.00000000000E+00 -0.00000000000E+00 -0.45593999997E+02  0.45594000000E+02  0.51100000000E-03 0.  1.
    9900012    2    1    2    0    0 -0.76091414162E+00  0.24579446725E+00  0.86804599364E+00  0.90007784300E+02  0.90000046253E+02 0.  0.
        -12    1    1    2    0    0  0.76091414162E+00 -0.24579446725E+00 -0.86804599364E+00  0.11802156998E+01  0.00000000000E+00 0.  1.
         11    1    3    3    0    0  0.36890149031E+01 -0.35400672337E+02  0.32260247037E+00  0.35593826789E+02  0.51100000000E-03 0. -1.
        -11    1    3    3    0    0  0.15108375507E+01 -0.90894427485E+01 -0.91181301949E+00  0.92591577817E+01  0.51100000000E-03 0.  1.
        -12    1    3    3    0    0 -0.59607665954E+01  0.44735909553E+02  0.14572565428E+01  0.45154799729E+02  0.00000000000E+00 0.  1.
</event>
<event>
 7    1  0.1756449E-015  0.9000779E+02  0.7816164E-02  0.1186339E+00
        -11   -1    0    0    0    0  0.00000000000E+00  0.00000000000E+00  0.45593999997E+02  0.45594000000E+02  0.51100000000E-03 0. -1.
         11   -1    0    0    0    0 -0.00000000000E+00 -0.00000000000E+00 -0.45593999997E+02  0.45594000000E+02  0.51100000000E-03 0.  1.
    9900012    2    1    2    0    0 -0.19881050224E+00 -0.21304479148E+00 -0.11436678936E+01  0.90007792412E+02  0.90000054472E+02 0.  0.
        -12    1    1    2    0    0  0.19881050224E+00  0.21304479148E+00  0.11436678936E+01  0.11802075876E+01  0.00000000000E+00 0.  1.
         11    1    3    3    0    0  0.24466040311E+02  0.76998062558E+01  0.27687570133E+02  0.37742226815E+02  0.51100000000E-03 0. -1.
        -11    1    3    3    0    0  0.71669669169E+01  0.50303463569E+01 -0.29256467913E+01  0.92319666739E+01  0.51100000000E-03 0.  1.
        -12    1    3    3    0    0 -0.31831817730E+02 -0.12943197404E+02 -0.25905591235E+02  0.43033598923E+02  0.00000000000E+00 0.  1.
</event>
<event>
 7    1  0.1756449E-015  0.9000775E+02  0.7816164E-02  0.1186339E+00
        -11   -1    0    0    0    0  0.00000000000E+00  0.00000000000E+00  0.45593999997E+02  0.45594000000E+02  0.51100000000E-03 0.  1.
         11   -1    0    0    0    0 -0.00000000000E+00 -0.00000000000E+00 -0.45593999997E+02  0.45594000000E+02  0.51100000000E-03 0. -1.
    9900012    2    1    2    0    0  0.38398066173E+00  0.11085572205E+01 -0.12905085138E+00  0.90007748170E+02  0.90000009646E+02 0.  0.
        -12    1    1    2    0    0 -0.38398066173E+00 -0.11085572205E+01  0.12905085138E+00  0.11802518299E+01  0.00000000000E+00 0.  1.
         11    1    3    3    0    0  0.41949021033E+01 -0.29795221227E+01  0.38673374469E+01  0.64366959634E+01  0.51100000000E-03 0. -1.
        -11    1    3    3    0    0  0.79597583194E-01  0.18048073627E+02  0.36413638302E+02  0.40641018098E+02  0.51100000000E-03 0.  1.
         12    1    3    3    0    0 -0.38905190247E+01 -0.13959994284E+02 -0.40410026600E+02  0.42930034108E+02  0.00000000000E+00 0. -1.
</event>
<event>
 7    1  0.1756449E-015  0.9000768E+02  0.7816164E-02  0.1186339E+00
        -11   -1    0    0    0    0  0.00000000000E+00  0.00000000000E+00  0.45593999997E+02  0.45594000000E+02  0.51100000000E-03 0. -1.
         11   -1    0    0    0    0 -0.00000000000E+00 -0.00000000000E+00 -0.45593999997E+02  0.45594000000E+02  0.51100000000E-03 0.  1.
    9900012    2    1    2    0    0  0.11593810683E+01 -0.21901101507E+00 -0.32108913565E-01  0.90007677473E+02  0.89999938015E+02 0.  0.
        -12    1    1    2    0    0 -0.11593810683E+01  0.21901101507E+00  0.32108913565E-01  0.11803225273E+01  0.00000000000E+00 0.  1.
         11    1    3    3    0    0 -0.28351580441E+02 -0.11710621990E+02  0.25477088985E+02  0.39875215915E+02  0.51100000000E-03 0. -1.
        -11    1    3    3    0    0 -0.47352936966E+01 -0.17033557655E+01 -0.80437282498E+01  0.94882027632E+01  0.51100000000E-03 0.  1.
        -12    1    3    3    0    0  0.34246255206E+02  0.13194966740E+02 -0.17465469648E+02  0.40644258794E+02  0.00000000000E+00 0.  1.
</event>
<event>
 7    1  0.1756449E-015  0.9000719E+02  0.7816164E-02  0.1186340E+00
        -11   -1    0    0    0    0  0.00000000000E+00  0.00000000000E+00  0.45593999997E+02  0.45594000000E+02  0.51100000000E-03 0.  1.
         11   -1    0    0    0    0 -0.00000000000E+00 -0.00000000000E+00 -0.45593999997E+02  0.45594000000E+02  0.51100000000E-03 0. -1.
    9900012    2    1    2    0    0  0.53751549199E+00  0.95555110639E-01 -0.10470215231E+01  0.90007191907E+02  0.89999446038E+02 0.  0.
        -12    1    1    2    0    0 -0.53751549199E+00 -0.95555110639E-01  0.10470215231E+01  0.11808080933E+01  0.00000000000E+00 0.  1.
         11    1    3    3    0    0  0.14139430722E+02  0.30819452314E+02 -0.19930532466E+02  0.39331771721E+02  0.51100000000E-03 0. -1.
        -11    1    3    3    0    0 -0.31121502731E+01  0.70821594115E+01  0.40389146105E+01  0.87266999916E+01  0.51100000000E-03 0.  1.
        -12    1    3    3    0    0 -0.10489764957E+02 -0.37806056615E+02  0.14844596332E+02  0.41948720194E+02  0.00000000000E+00 0.  1.
</event>
<event>
 7    1  0.1756449E-015  0.9000773E+02  0.7816164E-02  0.1186339E+00
        -11   -1    0    0    0    0  0.00000000000E+00  0.00000000000E+00  0.45593999997E+02  0.45594000000E+02  0.51100000000E-03 0.  1.
         11   -1    0    0    0    0 -0.00000000000E+00 -0.00000000000E+00 -0.45593999997E+02  0.45594000000E+02  0.51100000000E-03 0. -1.
    9900012    2    1    2    0    0  0.97305195864E+00 -0.59602497269E+00 -0.30159379432E+00  0.90007731090E+02  0.89999992341E+02 0.  0.
        -12    1    1    2    0    0 -0.97305195864E+00  0.59602497269E+00  0.30159379432E+00  0.11802689096E+01  0.00000000000E+00 0.  1.
         11    1    3    3    0    0  0.35571540356E+02 -0.14894149964E+01 -0.89011136322E+01  0.36698537634E+02  0.51100000000E-03 0. -1.
        -11    1    3    3    0    0  0.45776084460E+01 -0.86328968942E+01 -0.47154497847E+01  0.10849740771E+02  0.51100000000E-03 0.  1.
        -12    1    3    3    0    0 -0.39176096843E+02  0.95262869180E+01  0.13314969623E+02  0.42459452685E+02  0.00000000000E+00 0.  1.
</event>
<event>
 7    1  0.1756449E-015  0.9000721E+02  0.7816164E-02  0.1186340E+00
        -11   -1    0    0    0    0  0.00000000000E+00  0.00000000000E+00  0.45593999997E+02  0.45594000000E+02  0.51100000000E-03 0. -1.
         11   -1    0    0    0    0 -0.00000000000E+00 -0.00000000000E+00 -0.45593999997E+02  0.45594000000E+02  0.51100000000E-03 0.  1.
    9900012    2    1    2    0    0 -0.52373190301E+00  0.96143755331E+00  0.44228371127E+00  0.90007206980E+02  0.89999461310E+02 0.  0.
        -12    1    1    2    0    0  0.52373190301E+00 -0.96143755331E+00 -0.44228371127E+00  0.11807930201E+01  0.00000000000E+00 0.  1.
         11    1    3    3    0    0  0.24888082212E+02  0.44770181733E-01  0.28774086977E+02  0.38044273185E+02  0.51100000000E-03 0. -1.
        -11    1    3    3    0    0  0.72860446146E+01  0.62766132058E+01 -0.24652179574E+01  0.99277197433E+01  0.51100000000E-03 0.  1.
        -12    1    3    3    0    0 -0.32697858730E+02 -0.53599458343E+01 -0.25866585308E+02  0.42035214052E+02  0.00000000000E+00 0.  1.
</event>
<event>
 7    1  0.1756449E-015  0.9000738E+02  0.7816164E-02  0.1186340E+00
        -11   -1    0    0    0    0  0.00000000000E+00  0.00000000000E+00  0.45593999997E+02  0.45594000000E+02  0.51100000000E-03 0. -1.
         11   -1    0    0    0    0 -0.00000000000E+00 -0.00000000000E+00 -0.45593999997E+02  0.45594000000E+02  0.51100000000E-03 0.  1.
    9900012    2    1    2    0    0 -0.10794986512E+01  0.42265975349E+00 -0.22339053833E+00  0.90007380697E+02  0.89999637322E+02 0.  0.
        -12    1    1    2    0    0  0.10794986512E+01 -0.42265975349E+00  0.22339053833E+00  0.11806193026E+01  0.00000000000E+00 0.  1.
         11    1    3    3    0    0 -0.78825795042E+01 -0.36589661057E+02 -0.46465703031E+01  0.37716428406E+02  0.51100000000E-03 0. -1.
        -11    1    3    3    0    0  0.30417270930E+01 -0.60720095274E+01  0.59308851199E+01  0.90164739214E+01  0.51100000000E-03 0.  1.
        -12    1    3    3    0    0  0.37613537601E+01  0.43084330337E+02 -0.15077053551E+01  0.43274478370E+02  0.00000000000E+00 0.  1.
</event>
<event>
 7    1  0.1756449E-015  0.9000767E+02  0.7816164E-02  0.1186339E+00
        -11   -1    0    0    0    0  0.00000000000E+00  0.00000000000E+00  0.45593999997E+02  0.45594000000E+02  0.51100000000E-03 0.  1.
         11   -1    0    0    0    0 -0.00000000000E+00 -0.00000000000E+00 -0.45593999997E+02  0.45594000000E+02  0.51100000000E-03 0. -1.
    9900012    2    1    2    0    0 -0.27350551087E+00  0.58510630980E+00 -0.98793833982E+00  0.90007670884E+02  0.89999931340E+02 0.  0.
        -12    1    1    2    0    0  0.27350551087E+00 -0.58510630980E+00  0.98793833982E+00  0.11803291158E+01  0.00000000000E+00 0.  1.
         11    1    3    3    0    0  0.10744032332E+02 -0.44175518964E+01 -0.56544881251E-01  0.11616892575E+02  0.51100000000E-03 0. -1.
        -11    1    3    3    0    0 -0.72658368914E+00 -0.31223987857E+02  0.18201688295E+02  0.36149229572E+02  0.51100000000E-03 0.  1.
         12    1    3    3    0    0 -0.10290954154E+02  0.36226646063E+02 -0.19133081754E+02  0.42241548738E+02  0.00000000000E+00 0. -1.
</event>
<event>
 7    1  0.1756449E-015  0.9000767E+02  0.7816164E-02  0.1186339E+00
        -11   -1    0    0    0    0  0.00000000000E+00  0.00000000000E+00  0.45593999997E+02  0.45594000000E+02  0.51100000000E-03 0. -1.
         11   -1    0    0    0    0 -0.00000000000E+00 -0.00000000000E+00 -0.45593999997E+02  0.45594000000E+02  0.51100000000E-03 0.  1.
    9900012    2    1    2    0    0  0.11532898521E+01  0.25942035299E-01  0.24984325554E+00  0.90007672874E+02  0.89999933356E+02 0.  0.
        -12    1    1    2    0    0 -0.11532898521E+01 -0.25942035299E-01 -0.24984325554E+00  0.11803271261E+01  0.00000000000E+00 0.  1.
         11    1    3    3    0    0  0.82423244409E+00  0.16389800973E+00  0.10785211139E+02  0.10817901888E+02  0.51100000000E-03 0. -1.
        -11    1    3    3    0    0  0.36439098894E+02 -0.37890545652E+01 -0.19921336126E+02  0.41701612631E+02  0.51100000000E-03 0.  1.
         12    1    3    3    0    0 -0.36110041486E+02  0.36510985908E+01  0.93859682423E+01  0.37488158356E+02  0.00000000000E+00 0. -1.
</event>
<event>
 7    1  0.1756449E-015  0.9000781E+02  0.7816164E-02  0.1186339E+00
        -11   -1    0    0    0    0  0.00000000000E+00  0.00000000000E+00  0.45593999997E+02  0.45594000000E+02  0.51100000000E-03 0.  1.
         11   -1    0    0    0    0 -0.00000000000E+00 -0.00000000000E+00 -0.45593999997E+02  0.45594000000E+02  0.51100000000E-03 0. -1.
    9900012    2    1    2    0    0  0.52568603151E+00 -0.85840524078E+00 -0.61615597669E+00  0.90007807834E+02  0.90000070097E+02 0.  0.
        -12    1    1    2    0    0 -0.52568603151E+00  0.85840524078E+00  0.61615597669E+00  0.11801921660E+01  0.00000000000E+00 0.  1.
         11    1    3    3    0    0 -0.58871927252E+01  0.45536747389E+01  0.58767340057E+01  0.94831953816E+01  0.51100000000E-03 0. -1.
        -11    1    3    3    0    0  0.16950699300E+02 -0.17840189416E+01  0.34265199020E+02  0.38270259922E+02  0.51100000000E-03 0.  1.
         12    1    3    3    0    0 -0.10537820543E+02 -0.36280610381E+01 -0.40758089002E+02  0.42254352531E+02  0.00000000000E+00 0. -1.
</event>
<event>
 7    1  0.1756449E-015  0.9000774E+02  0.7816164E-02  0.1186339E+00
        -11   -1    0    0    0    0  0.00000000000E+00  0.00000000000E+00  0.45593999997E+02  0.45594000000E+02  0.51100000000E-03 0.  1.
         11   -1    0    0    0    0 -0.00000000000E+00 -0.00000000000E+00 -0.45593999997E+02  0.45594000000E+02  0.51100000000E-03 0. -1.
    9900012    2    1    2    0    0 -0.29478266287E+00  0.11404443779E+01 -0.74158311216E-01  0.90007741701E+02  0.90000003091E+02 0.  0.
        -12    1    1    2    0    0  0.29478266287E+00 -0.11404443779E+01  0.74158311216E-01  0.11802582991E+01  0.00000000000E+00 0.  1.
         11    1    3    3    0    0 -0.24202983997E+02  0.81821449184E+01 -0.25258945903E+02  0.35926957541E+02  0.51100000000E-03 0. -1.
        -11    1    3    3    0    0 -0.91359589987E+01 -0.58700735232E+01 -0.22811732838E+01  0.11096272428E+02  0.51100000000E-03 0.  1.
        -12    1    3    3    0    0  0.33044160333E+02 -0.11716270172E+01  0.27465960875E+02  0.42984511731E+02  0.00000000000E+00 0.  1.
</event>
<event>
 7    1  0.1756449E-015  0.9000776E+02  0.7816164E-02  0.1186339E+00
        -11   -1    0    0    0    0  0.00000000000E+00  0.00000000000E+00  0.45593999997E+02  0.45594000000E+02  0.51100000000E-03 0. -1.
         11   -1    0    0    0    0 -0.00000000000E+00 -0.00000000000E+00 -0.45593999997E+02  0.45594000000E+02  0.51100000000E-03 0.  1.
    9900012    2    1    2    0    0  0.85758088499E+00  0.53628398198E+00 -0.60821685744E+00  0.90007757131E+02  0.90000018725E+02 0.  0.
        -12    1    1    2    0    0 -0.85758088499E+00 -0.53628398198E+00  0.60821685744E+00  0.11802428688E+01  0.00000000000E+00 0.  1.
         11    1    3    3    0    0 -0.92626149124E+01  0.32195913878E+01  0.27110868384E+01  0.10174074691E+02  0.51100000000E-03 0. -1.
        -11    1    3    3    0    0 -0.12009496165E+02 -0.30938110565E+02 -0.21559164352E+02  0.39575146889E+02  0.51100000000E-03 0.  1.
         12    1    3    3    0    0  0.22129691963E+02  0.28254803159E+02  0.18239860656E+02  0.40258535551E+02  0.00000000000E+00 0. -1.
</event>
<event>
 7    1  0.1756449E-015  0.9000777E+02  0.7816164E-02  0.1186339E+00
        -11   -1    0    0    0    0  0.00000000000E+00  0.00000000000E+00  0.45593999997E+02  0.45594000000E+02  0.51100000000E-03 0. -1.
         11   -1    0    0    0    0 -0.00000000000E+00 -0.00000000000E+00 -0.45593999997E+02  0.45594000000E+02  0.51100000000E-03 0.  1.
    9900012    2    1    2    0    0 -0.19846482060E+00  0.10195041472E+01  0.56051189371E+00  0.90007766729E+02  0.90000028450E+02 0.  0.
        -12    1    1    2    0    0  0.19846482060E+00 -0.10195041472E+01 -0.56051189371E+00  0.11802332711E+01  0.00000000000E+00 0.  1.
         11    1    3    3    0    0  0.36732581005E+01  0.95099542611E+01  0.18577011837E+01  0.10362582162E+02  0.51100000000E-03 0. -1.
        -11    1    3    3    0    0 -0.67140843867E+01 -0.83664830765E+01 -0.39706791638E+02  0.41130357045E+02  0.51100000000E-03 0.  1.
         12    1    3    3    0    0  0.28423614655E+01 -0.12396703746E+00  0.38409602348E+02  0.38514827522E+02  0.00000000000E+00 0. -1.
</event>
<event>
 7    1  0.1756449E-015  0.9000765E+02  0.7816164E-02  0.1186339E+00
        -11   -1    0    0    0    0  0.00000000000E+00  0.00000000000E+00  0.45593999997E+02  0.45594000000E+02  0.51100000000E-03 0.  1.
         11   -1    0    0    0    0 -0.00000000000E+00 -0.00000000000E+00 -0.45593999997E+02  0.45594000000E+02  0.51100000000E-03 0. -1.
    9900012    2    1    2    0    0 -0.50161676981E-01  0.11704427083E+01  0.14415718203E+00  0.90007646824E+02  0.89999906962E+02 0.  0.
        -12    1    1    2    0    0  0.50161676981E-01 -0.11704427083E+01 -0.14415718203E+00  0.11803531761E+01  0.00000000000E+00 0.  1.
         11    1    3    3    0    0  0.10081920338E+02  0.34550652141E+02  0.19319056110E+02  0.40848728380E+02  0.51100000000E-03 0. -1.
        -11    1    3    3    0    0  0.76589044764E+01 -0.56477165084E+01  0.23506483098E+01  0.98020950452E+01  0.51100000000E-03 0.  1.
        -12    1    3    3    0    0 -0.17790986491E+02 -0.27732492924E+02 -0.21525547238E+02  0.39356823398E+02  0.00000000000E+00 0.  1.
</event>
<event>
 7    1  0.1756449E-015  0.9000800E+02  0.7816164E-02  0.1186339E+00
        -11   -1    0    0    0    0  0.00000000000E+00  0.00000000000E+00  0.45593999997E+02  0.45594000000E+02  0.51100000000E-03 0. -1.
         11   -1    0    0    0    0 -0.00000000000E+00 -0.00000000000E+00 -0.45593999997E+02  0.45594000000E+02  0.51100000000E-03 0.  1.
    9900012    2    1    2    0    0 -0.18543944269E+00 -0.60119933273E+00  0.99828142191E+00  0.90008002448E+02  0.90000267280E+02 0.  0.
        -12    1    1    2    0    0  0.18543944269E+00  0.60119933273E+00 -0.99828142191E+00  0.11799975517E+01  0.00000000000E+00 0.  1.
         11    1    3    3    0    0  0.28376285478E+02  0.17241968454E+02 -0.94972804980E+01  0.34535451218E+02  0.51100000000E-03 0. -1.
        -11    1    3    3    0    0  0.11204344333E+02 -0.70059357050E+01  0.34621434399E+01  0.13660413775E+02  0.51100000000E-03 0.  1.
        -12    1    3    3    0    0 -0.39766069254E+02 -0.10837232082E+02  0.70334184800E+01  0.41812137456E+02  0.00000000000E+00 0.  1.
</event>
<event>
 7    1  0.1756449E-015  0.9000794E+02  0.7816164E-02  0.1186339E+00
        -11   -1    0    0    0    0  0.00000000000E+00  0.00000000000E+00  0.45593999997E+02  0.45594000000E+02  0.51100000000E-03 0. -1.
         11   -1    0    0    0    0 -0.00000000000E+00 -0.00000000000E+00 -0.45593999997E+02  0.45594000000E+02  0.51100000000E-03 0.  1.
    9900012    2    1    2    0    0 -0.57268565639E+00  0.75337424906E+00  0.70498377319E+00  0.90007939095E+02  0.90000203090E+02 0.  0.
        -12    1    1    2    0    0  0.57268565639E+00 -0.75337424906E+00 -0.70498377319E+00  0.11800609055E+01  0.00000000000E+00 0.  1.
         11    1    3    3    0    0 -0.22306476226E+01 -0.45497529329E+01  0.10117809577E+02  0.11315746173E+02  0.51100000000E-03 0. -1.
        -11    1    3    3    0    0 -0.33379604457E+02  0.20985259779E+02 -0.82818116658E+01  0.40288553293E+02  0.51100000000E-03 0.  1.
         12    1    3    3    0    0  0.35037566424E+02 -0.15682132598E+02 -0.11310141376E+01  0.38403639628E+02  0.00000000000E+00 0. -1.
</event>
<event>
 7    1  0.1756449E-015  0.9000787E+02  0.7816164E-02  0.1186339E+00
        -11   -1    0    0    0    0  0.00000000000E+00  0.00000000000E+00  0.45593999997E+02  0.45594000000E+02  0.51100000000E-03 0.  1.
         11   -1    0    0    0    0 -0.00000000000E+00 -0.00000000000E+00 -0.45593999997E+02  0.45594000000E+02  0.51100000000E-03 0. -1.
    9900012    2    1    2    0    0 -0.41903212755E+00  0.95400694836E-01 -0.10990960218E+01  0.90007872345E+02  0.90000135460E+02 0.  0.
        -12    1    1    2    0    0  0.41903212755E+00 -0.95400694836E-01  0.10990960218E+01  0.11801276548E+01  0.00000000000E+00 0.  1.
         11    1    3    3    0    0 -0.18000045066E+02  0.17729407652E+02  0.27948513588E+02  0.37675627800E+02  0.51100000000E-03 0. -1.
        -11    1    3    3    0    0 -0.76934870827E+01 -0.52633512036E+01  0.28968204070E+01  0.97613614888E+01  0.51100000000E-03 0.  1.
        -12    1    3    3    0    0  0.25274500021E+02 -0.12370655753E+02 -0.31944430017E+02  0.42570883056E+02  0.00000000000E+00 0.  1.
</event>
<event>
 7    1  0.1756449E-015  0.9000772E+02  0.7816164E-02  0.1186339E+00
        -11   -1    0    0    0    0  0.00000000000E+00  0.00000000000E+00  0.45593999997E+02  0.45594000000E+02  0.51100000000E-03 0.  1.
         11   -1    0    0    0    0 -0.00000000000E+00 -0.00000000000E+00 -0.45593999997E+02  0.45594000000E+02  0.51100000000E-03 0. -1.
    9900012    2    1    2    0    0 -0.81856088515E+00 -0.83700438413E+00  0.14978961140E+00  0.90007722410E+02  0.89999983546E+02 0.  0.
        -12    1    1    2    0    0  0.81856088515E+00  0.83700438413E+00 -0.14978961140E+00  0.11802775900E+01  0.00000000000E+00 0.  1.
         11    1    3    3    0    0  0.10859165658E+02  0.25118745486E+01 -0.20368912739E+02  0.23219035272E+02  0.51100000000E-03 0. -1.
        -11    1    3    3    0    0  0.18308581956E+02  0.18327946519E+02  0.37893680411E+01  0.26181617736E+02  0.51100000000E-03 0.  1.
         12    1    3    3    0    0 -0.29986308499E+02 -0.21676825452E+02  0.16729334309E+02  0.40607069403E+02  0.00000000000E+00 0. -1.
</event>
<event>
 7    1  0.1756449E-015  0.9000819E+02  0.7816164E-02  0.1186338E+00
        -11   -1    0    0    0    0  0.00000000000E+00  0.00000000000E+00  0.45593999997E+02  0.45594000000E+02  0.51100000000E-03 0.  1.
         11   -1    0    0    0    0 -0.00000000000E+00 -0.00000000000E+00 -0.45593999997E+02  0.45594000000E+02  0.51100000000E-03 0. -1.
    9900012    2    1    2    0    0  0.64301254049E+00  0.94938684067E+00 -0.27777006589E+00  0.90008187850E+02  0.90000455128E+02 0.  0.
        -12    1    1    2    0    0 -0.64301254049E+00 -0.94938684067E+00  0.27777006589E+00  0.11798121503E+01  0.00000000000E+00 0.  1.
         11    1    3    3    0    0 -0.51536013953E+00 -0.12254522375E+01 -0.15750205921E+01  0.20610723875E+01  0.51100000000E-03 0. -1.
        -11    1    3    3    0    0  0.21376043949E+02  0.20574756474E+02 -0.32810877593E+02  0.44235840080E+02  0.51100000000E-03 0.  1.
        -12    1    3    3    0    0 -0.20217671269E+02 -0.18399917396E+02  0.34108128120E+02  0.43711275382E+02  0.00000000000E+00 0.  1.
</event>
<event>
 7    1  0.1756449E-015  0.9000762E+02  0.7816164E-02  0.1186339E+00
        -11   -1    0    0    0    0  0.00000000000E+00  0.00000000000E+00  0.45593999997E+02  0.45594000000E+02  0.51100000000E-03 0.  1.
         11   -1    0    0    0    0 -0.00000000000E+00 -0.00000000000E+00 -0.45593999997E+02  0.45594000000E+02  0.51100000000E-03 0. -1.
    9900012    2    1    2    0    0 -0.41838179084E+00  0.50606172359E+00 -0.98089363532E+00  0.90007621199E+02  0.89999880998E+02 0.  0.
        -12    1    1    2    0    0  0.41838179084E+00 -0.50606172359E+00  0.98089363532E+00  0.11803788014E+01  0.00000000000E+00 0.  1.
         11    1    3    3    0    0  0.34211206562E+02  0.18495726968E+02 -0.10173075630E+02  0.40199378584E+02  0.51100000000E-03 0. -1.
        -11    1    3    3    0    0 -0.58062023841E+01  0.59944777692E+01 -0.49846477618E+01  0.97207234001E+01  0.51100000000E-03 0.  1.
        -12    1    3    3    0    0 -0.28823385969E+02 -0.23984143014E+02  0.14176829757E+02  0.40087519214E+02  0.00000000000E+00 0.  1.
</event>
<event>
 7    1  0.1756449E-015  0.9000767E+02  0.7816164E-02  0.1186339E+00
        -11   -1    0    0    0    0  0.00000000000E+00  0.00000000000E+00  0.45593999997E+02  0.45594000000E+02  0.51100000000E-03 0.  1.
         11   -1    0    0    0    0 -0.00000000000E+00 -0.00000000000E+00 -0.45593999997E+02  0.45594000000E+02  0.51100000000E-03 0. -1.
    9900012    2    1    2    0    0  0.99376245523E+00  0.13381853431E+00 -0.62265604432E+00  0.90007673025E+02  0.89999933509E+02 0.  0.
        -12    1    1    2    0    0 -0.99376245523E+00 -0.13381853431E+00  0.62265604432E+00  0.11803269746E+01  0.00000000000E+00 0.  1.
         11    1    3    3    0    0  0.33518934895E+02 -0.55721892254E+01 -0.24149570957E+02  0.41686569383E+02  0.51100000000E-03 0. -1.
        -11    1    3    3    0    0 -0.78637128282E+01  0.17015874141E+01 -0.57078314789E+01  0.98647209603E+01  0.51100000000E-03 0.  1.
        -12    1    3    3    0    0 -0.24661459611E+02  0.40044203456E+01  0.29234746391E+02  0.38456382682E+02  0.00000000000E+00 0.  1.
</event>
<event>
 7    1  0.1756449E-015  0.9000782E+02  0.7816164E-02  0.1186339E+00
        -11   -1    0    0    0    0  0.00000000000E+00  0.00000000000E+00  0.45593999997E+02  0.45594000000E+02  0.51100000000E-03 0.  1.
         11   -1    0    0    0    0 -0.00000000000E+00 -0.00000000000E+00 -0.45593999997E+02  0.45594000000E+02  0.51100000000E-03 0. -1.
    9900012    2    1    2    0    0 -0.93464635290E+00 -0.39252005976E+00  0.60431140191E+00  0.90007818627E+02  0.90000081033E+02 0.  0.
        -12    1    1    2    0    0  0.93464635290E+00  0.39252005976E+00 -0.60431140191E+00  0.11801813728E+01  0.00000000000E+00 0.  1.
         11    1    3    3    0    0  0.65411575442E+01  0.51327679160E+01  0.46778762989E+01  0.95401559435E+01  0.51100000000E-03 0. -1.
        -11    1    3    3    0    0  0.11298339686E+02 -0.32476512000E+02  0.19968388731E+02  0.39763209882E+02  0.51100000000E-03 0.  1.
         12    1    3    3    0    0 -0.18774143583E+02  0.26951224024E+02 -0.24041953628E+02  0.40704452802E+02  0.00000000000E+00 0. -1.
</event>
<event>
 7    1  0.1756449E-015  0.9000777E+02  0.7816164E-02  0.1186339E+00
        -11   -1    0    0    0    0  0.00000000000E+00  0.00000000000E+00  0.45593999997E+02  0.45594000000E+02  0.51100000000E-03 0. -1.
         11   -1    0    0    0    0 -0.00000000000E+00 -0.00000000000E+00 -0.45593999997E+02  0.45594000000E+02  0.51100000000E-03 0.  1.
    9900012    2    1    2    0    0  0.55957716730E+00 -0.95003907561E+00 -0.42100633101E+00  0.90007768166E+02  0.90000029906E+02 0.  0.
        -12    1    1    2    0    0 -0.55957716730E+00  0.95003907561E+00  0.42100633101E+00  0.11802318340E+01  0.00000000000E+00 0.  1.
         11    1    3    3    0    0  0.26878102690E+02  0.14923045255E+02  0.16398667947E+02  0.34843162810E+02  0.51100000000E-03 0. -1.
        -11    1    3    3    0    0  0.47880106743E+01  0.92889022501E+01  0.24847041554E+01  0.10741624934E+02  0.51100000000E-03 0.  1.
        -12    1    3    3    0    0 -0.31106536197E+02 -0.25161986581E+02 -0.19304378433E+02  0.44422980422E+02  0.00000000000E+00 0.  1.
</event>
<event>
 7    1  0.1756449E-015  0.9000790E+02  0.7816164E-02  0.1186339E+00
        -11   -1    0    0    0    0  0.00000000000E+00  0.00000000000E+00  0.45593999997E+02  0.45594000000E+02  0.51100000000E-03 0.  1.
         11   -1    0    0    0    0 -0.00000000000E+00 -0.00000000000E+00 -0.45593999997E+02  0.45594000000E+02  0.51100000000E-03 0. -1.
    9900012    2    1    2    0    0 -0.17391793797E+00 -0.61409593526E+00 -0.99260796056E+00  0.90007901771E+02  0.90000165274E+02 0.  0.
        -12    1    1    2    0    0  0.17391793797E+00  0.61409593526E+00  0.99260796056E+00  0.11800982291E+01  0.00000000000E+00 0.  1.
         11    1    3    3    0    0  0.18574013887E+01 -0.28565827572E+02 -0.75646991851E+01  0.29608801374E+02  0.51100000000E-03 0. -1.
        -11    1    3    3    0    0 -0.26743640803E+02  0.70984864543E+01  0.40694922781E+01  0.27967330960E+02  0.51100000000E-03 0.  1.
         12    1    3    3    0    0  0.24712321476E+02  0.20853245182E+02  0.25025989464E+01  0.32431769438E+02  0.00000000000E+00 0. -1.
</event>
<event>
 7    1  0.1756449E-015  0.9000771E+02  0.7816164E-02  0.1186339E+00
        -11   -1    0    0    0    0  0.00000000000E+00  0.00000000000E+00  0.45593999997E+02  0.45594000000E+02  0.51100000000E-03 0.  1.
         11   -1    0    0    0    0 -0.00000000000E+00 -0.00000000000E+00 -0.45593999997E+02  0.45594000000E+02  0.51100000000E-03 0. -1.
    9900012    2    1    2    0    0  0.46741125922E+00  0.50080832440E+00 -0.96114642528E+00  0.90007709903E+02  0.89999970873E+02 0.  0.
        -12    1    1    2    0    0 -0.46741125922E+00 -0.50080832440E+00  0.96114642528E+00  0.11802900973E+01  0.00000000000E+00 0.  1.
         11    1    3    3    0    0  0.40103084634E+01 -0.90363413662E+01  0.31482539102E+01  0.10375429736E+02  0.51100000000E-03 0. -1.
        -11    1    3    3    0    0  0.58680817536E+01 -0.31714830571E+02  0.11920819361E+02  0.34385619031E+02  0.51100000000E-03 0.  1.
         12    1    3    3    0    0 -0.94109789578E+01  0.41251980262E+02 -0.16030219697E+02  0.45246661136E+02  0.00000000000E+00 0. -1.
</event>
<event>
 7    1  0.1756449E-015  0.9000764E+02  0.7816164E-02  0.1186339E+00
        -11   -1    0    0    0    0  0.00000000000E+00  0.00000000000E+00  0.45593999997E+02  0.45594000000E+02  0.51100000000E-03 0. -1.
         11   -1    0    0    0    0 -0.00000000000E+00 -0.00000000000E+00 -0.45593999997E+02  0.45594000000E+02  0.51100000000E-03 0.  1.
    9900012    2    1    2    0    0  0.66698681563E+00 -0.25000566982E+00 -0.94120914334E+00  0.90007640352E+02  0.89999900405E+02 0.  0.
        -12    1    1    2    0    0 -0.66698681563E+00  0.25000566982E+00  0.94120914334E+00  0.11803596480E+01  0.00000000000E+00 0.  1.
         11    1    3    3    0    0  0.21326910704E+02 -0.52258539178E+01  0.25294540058E+02  0.33495677727E+02  0.51100000000E-03 0. -1.
        -11    1    3    3    0    0  0.42841693512E+01  0.59852299269E+01  0.10056597407E+02  0.12462432988E+02  0.51100000000E-03 0.  1.
        -12    1    3    3    0    0 -0.24944093240E+02 -0.10093816789E+01 -0.36292346609E+02  0.44049529637E+02  0.00000000000E+00 0.  1.
</event>
<event>
 7    1  0.1831337E-015  0.9000769E+02  0.7816164E-02  0.1186339E+00
        -11   -1    0    0    0    0  0.00000000000E+00  0.00000000000E+00  0.45593999997E+02  0.45594000000E+02  0.51100000000E-03 0. -1.
         11   -1    0    0    0    0 -0.00000000000E+00 -0.00000000000E+00 -0.45593999997E+02  0.45594000000E+02  0.51100000000E-03 0.  1.
    9900012    2    1    2    0    0  0.33256340719E+00  0.30166707370E+00  0.10915734217E+01  0.90007689033E+02  0.89999949728E+02 0.  0.
        -12    1    1    2    0    0 -0.33256340719E+00 -0.30166707370E+00 -0.10915734217E+01  0.11803109667E+01  0.00000000000E+00 0.  1.
         11    1    3    3    0    0  0.31406418716E+01 -0.26774069182E+02  0.32913942351E+02  0.42544588531E+02  0.51100000000E-03 0. -1.
        -11    1    3    3    0    0  0.32894299751E+01  0.90485787063E+01  0.83645493362E+00  0.96642011197E+01  0.51100000000E-03 0.  1.
        -12    1    3    3    0    0 -0.60975084395E+01  0.18027157549E+02 -0.32658823863E+02  0.37798899383E+02  0.00000000000E+00 0.  1.
</event>
<event>
 7    1  0.1756449E-015  0.9000772E+02  0.7816164E-02  0.1186339E+00
        -11   -1    0    0    0    0  0.00000000000E+00  0.00000000000E+00  0.45593999997E+02  0.45594000000E+02  0.51100000000E-03 0. -1.
         11   -1    0    0    0    0 -0.00000000000E+00 -0.00000000000E+00 -0.45593999997E+02  0.45594000000E+02  0.51100000000E-03 0.  1.
    9900012    2    1    2    0    0  0.84677294188E-01 -0.11768575717E+01 -0.29950504917E-01  0.90007719940E+02  0.89999981043E+02 0.  0.
        -12    1    1    2    0    0 -0.84677294188E-01  0.11768575717E+01  0.29950504917E-01  0.11802800604E+01  0.00000000000E+00 0.  1.
         11    1    3    3    0    0  0.70505533222E+01 -0.50128016927E+01 -0.59848256914E+01  0.10519345121E+02  0.51100000000E-03 0. -1.
        -11    1    3    3    0    0  0.27869650153E+02 -0.21709794500E+02  0.80727445256E+01  0.36238126073E+02  0.51100000000E-03 0.  1.
         12    1    3    3    0    0 -0.34835526181E+02  0.25545738621E+02 -0.21178693391E+01  0.43250248745E+02  0.00000000000E+00 0. -1.
</event>
<event>
 7    1  0.1756449E-015  0.9000762E+02  0.7816164E-02  0.1186339E+00
        -11   -1    0    0    0    0  0.00000000000E+00  0.00000000000E+00  0.45593999997E+02  0.45594000000E+02  0.51100000000E-03 0.  1.
         11   -1    0    0    0    0 -0.00000000000E+00 -0.00000000000E+00 -0.45593999997E+02  0.45594000000E+02  0.51100000000E-03 0. -1.
    9900012    2    1    2    0    0 -0.49570918938E+00  0.74613034653E+00 -0.76867246840E+00  0.90007620630E+02  0.89999880422E+02 0.  0.
        -12    1    1    2    0    0  0.49570918938E+00 -0.74613034653E+00  0.76867246840E+00  0.11803793704E+01  0.00000000000E+00 0.  1.
         11    1    3    3    0    0  0.26226296964E+01 -0.30502312034E+01 -0.11883885532E+02  0.12546267673E+02  0.51100000000E-03 0. -1.
        -11    1    3    3    0    0  0.35792994781E+02 -0.62343842102E+01  0.29057194611E+01  0.36447897439E+02  0.51100000000E-03 0.  1.
         12    1    3    3    0    0 -0.38911333667E+02  0.10030745760E+02  0.82094936025E+01  0.41013455517E+02  0.00000000000E+00 0. -1.
</event>
<event>
 7    1  0.1756449E-015  0.9000746E+02  0.7816164E-02  0.1186340E+00
        -11   -1    0    0    0    0  0.00000000000E+00  0.00000000000E+00  0.45593999997E+02  0.45594000000E+02  0.51100000000E-03 0.  1.
         11   -1    0    0    0    0 -0.00000000000E+00 -0.00000000000E+00 -0.45593999997E+02  0.45594000000E+02  0.51100000000E-03 0. -1.
    9900012    2    1    2    0    0  0.59051908526E+00 -0.10072591191E+01  0.17434623258E+00  0.90007457611E+02  0.89999715251E+02 0.  0.
        -12    1    1    2    0    0 -0.59051908526E+00  0.10072591191E+01 -0.17434623258E+00  0.11805423889E+01  0.00000000000E+00 0.  1.
         11    1    3    3    0    0 -0.19279129502E+00 -0.96858369160E+01 -0.49375855310E+00  0.97003300468E+01  0.51100000000E-03 0. -1.
        -11    1    3    3    0    0 -0.32832259041E+02 -0.68640977285E+01  0.19458968319E+02  0.38777886994E+02  0.51100000000E-03 0.  1.
         12    1    3    3    0    0  0.33615569422E+02  0.15542675525E+02 -0.18790863534E+02  0.41529240571E+02  0.00000000000E+00 0. -1.
</event>
<event>
 7    1  0.1756449E-015  0.9000772E+02  0.7816164E-02  0.1186339E+00
        -11   -1    0    0    0    0  0.00000000000E+00  0.00000000000E+00  0.45593999997E+02  0.45594000000E+02  0.51100000000E-03 0. -1.
         11   -1    0    0    0    0 -0.00000000000E+00 -0.00000000000E+00 -0.45593999997E+02  0.45594000000E+02  0.51100000000E-03 0.  1.
    9900012    2    1    2    0    0  0.74744798782E+00  0.83379767453E+00  0.37305671517E+00  0.90007716827E+02  0.89999977889E+02 0.  0.
        -12    1    1    2    0    0 -0.74744798782E+00 -0.83379767453E+00 -0.37305671517E+00  0.11802831733E+01  0.00000000000E+00 0.  1.
         11    1    3    3    0    0  0.68645081082E+01 -0.23523383861E+01 -0.42412893430E+01  0.84049689471E+01  0.51100000000E-03 0. -1.
        -11    1    3    3    0    0  0.92843956558E+01  0.36801635395E+02 -0.13685089253E+02  0.40346524492E+02  0.51100000000E-03 0.  1.
         12    1    3    3    0    0 -0.15401455776E+02 -0.33615499334E+02  0.18299435311E+02  0.41256223388E+02  0.00000000000E+00 0. -1.
</event>
<event>
 7    1  0.1756449E-015  0.9000803E+02  0.7816164E-02  0.1186338E+00
        -11   -1    0    0    0    0  0.00000000000E+00  0.00000000000E+00  0.45593999997E+02  0.45594000000E+02  0.51100000000E-03 0. -1.
         11   -1    0    0    0    0 -0.00000000000E+00 -0.00000000000E+00 -0.45593999997E+02  0.45594000000E+02  0.51100000000E-03 0.  1.
    9900012    2    1    2    0    0  0.10941952565E+01 -0.15379740612E+00  0.41402869196E+00  0.90008026840E+02  0.90000291993E+02 0.  0.
        -12    1    1    2    0    0 -0.10941952565E+01  0.15379740612E+00 -0.41402869196E+00  0.11799731604E+01  0.00000000000E+00 0.  1.
         11    1    3    3    0    0 -0.16452568853E+02  0.29920566368E+02 -0.77553767244E+01  0.35015327816E+02  0.51100000000E-03 0. -1.
        -11    1    3    3    0    0  0.48666854251E+01  0.10570469928E+02 -0.11692973665E-01  0.11636992675E+02  0.51100000000E-03 0.  1.
        -12    1    3    3    0    0  0.12680078685E+02 -0.40644833702E+02  0.81810983900E+01  0.43355706349E+02  0.00000000000E+00 0.  1.
</event>
<event>
 7    1  0.1756449E-015  0.9000797E+02  0.7816164E-02  0.1186339E+00
        -11   -1    0    0    0    0  0.00000000000E+00  0.00000000000E+00  0.45593999997E+02  0.45594000000E+02  0.51100000000E-03 0. -1.
         11   -1    0    0    0    0 -0.00000000000E+00 -0.00000000000E+00 -0.45593999997E+02  0.45594000000E+02  0.51100000000E-03 0.  1.
    9900012    2    1    2    0    0  0.68686486585E+00 -0.93591193728E+00  0.21155607358E+00  0.90007970140E+02  0.90000234546E+02 0.  0.
        -12    1    1    2    0    0 -0.68686486585E+00  0.93591193728E+00 -0.21155607358E+00  0.11800298600E+01  0.00000000000E+00 0.  1.
         11    1    3    3    0    0 -0.64661059748E+01 -0.62242735161E+01 -0.12501687103E+02  0.15389746195E+02  0.51100000000E-03 0. -1.
        -11    1    3    3    0    0  0.31108980924E+02 -0.16300212450E+02  0.21519291442E+02  0.41189143284E+02  0.51100000000E-03 0.  1.
         12    1    3    3    0    0 -0.23956010084E+02  0.21588574029E+02 -0.88060482661E+01  0.33429080660E+02  0.00000000000E+00 0. -1.
</event>
<event>
 7    1  0.1756449E-015  0.9000765E+02  0.7816164E-02  0.1186339E+00
        -11   -1    0    0    0    0  0.00000000000E+00  0.00000000000E+00  0.45593999997E+02  0.45594000000E+02  0.51100000000E-03 0.  1.
         11   -1    0    0    0    0 -0.00000000000E+00 -0.00000000000E+00 -0.45593999997E+02  0.45594000000E+02  0.51100000000E-03 0. -1.
    9900012    2    1    2    0    0 -0.14936774353E+00  0.11604579475E+00 -0.11650992841E+01  0.90007646794E+02  0.89999906932E+02 0.  0.
        -12    1    1    2    0    0  0.14936774353E+00 -0.11604579475E+00  0.11650992841E+01  0.11803532061E+01  0.00000000000E+00 0.  1.
         11    1    3    3    0    0  0.46834324508E+01 -0.10372041197E+02 -0.22089369877E+01  0.11592807295E+02  0.51100000000E-03 0. -1.
        -11    1    3    3    0    0 -0.92828765115E+01 -0.18346473209E+02  0.30611542126E+02  0.36875891679E+02  0.51100000000E-03 0.  1.
         12    1    3    3    0    0  0.44500763172E+01  0.28834560200E+02 -0.29567704422E+02  0.41538947820E+02  0.00000000000E+00 0. -1.
</event>
<event>
 7    1  0.1756449E-015  0.9000779E+02  0.7816164E-02  0.1186339E+00
        -11   -1    0    0    0    0  0.00000000000E+00  0.00000000000E+00  0.45593999997E+02  0.45594000000E+02  0.51100000000E-03 0. -1.
         11   -1    0    0    0    0 -0.00000000000E+00 -0.00000000000E+00 -0.45593999997E+02  0.45594000000E+02  0.51100000000E-03 0.  1.
    9900012    2    1    2    0    0 -0.10692275540E+01  0.38457356198E+00  0.31898351129E+00  0.90007790329E+02  0.90000052361E+02 0.  0.
        -12    1    1    2    0    0  0.10692275540E+01 -0.38457356198E+00 -0.31898351129E+00  0.11802096709E+01  0.00000000000E+00 0.  1.
         11    1    3    3    0    0 -0.79351253877E+01  0.63726913384E+01  0.92406959799E+00  0.10219164090E+02  0.51100000000E-03 0. -1.
        -11    1    3    3    0    0 -0.15193810433E+02  0.23925572962E+02 -0.22908004414E+02  0.36442579265E+02  0.51100000000E-03 0.  1.
         12    1    3    3    0    0  0.22059708266E+02 -0.29913690738E+02  0.22302918327E+02  0.43346046974E+02  0.00000000000E+00 0. -1.
</event>
<event>
 7    1  0.1756449E-015  0.9000780E+02  0.7816164E-02  0.1186339E+00
        -11   -1    0    0    0    0  0.00000000000E+00  0.00000000000E+00  0.45593999997E+02  0.45594000000E+02  0.51100000000E-03 0. -1.
         11   -1    0    0    0    0 -0.00000000000E+00 -0.00000000000E+00 -0.45593999997E+02  0.45594000000E+02  0.51100000000E-03 0.  1.
    9900012    2    1    2    0    0  0.45917889686E+00 -0.93398939797E+00 -0.55648824011E+00  0.90007804840E+02  0.90000067064E+02 0.  0.
        -12    1    1    2    0    0 -0.45917889686E+00  0.93398939797E+00  0.55648824011E+00  0.11801951602E+01  0.00000000000E+00 0.  1.
         11    1    3    3    0    0  0.17636536101E+02  0.17692981565E+02  0.33387644430E+02  0.41699206265E+02  0.51100000000E-03 0. -1.
        -11    1    3    3    0    0  0.47781141495E+01  0.88593184319E+00 -0.64455349875E+01  0.80721850568E+01  0.51100000000E-03 0.  1.
        -12    1    3    3    0    0 -0.21955471353E+02 -0.19512902806E+02 -0.27498597683E+02  0.40236413518E+02  0.00000000000E+00 0.  1.
</event>
<event>
 7    1  0.1756449E-015  0.9000780E+02  0.7816164E-02  0.1186339E+00
        -11   -1    0    0    0    0  0.00000000000E+00  0.00000000000E+00  0.45593999997E+02  0.45594000000E+02  0.51100000000E-03 0.  1.
         11   -1    0    0    0    0 -0.00000000000E+00 -0.00000000000E+00 -0.45593999997E+02  0.45594000000E+02  0.51100000000E-03 0. -1.
    9900012    2    1    2    0    0  0.91339335839E+00 -0.43556050354E+00  0.60734333306E+00  0.90007802430E+02  0.90000064622E+02 0.  0.
        -12    1    1    2    0    0 -0.91339335839E+00  0.43556050354E+00 -0.60734333306E+00  0.11801975697E+01  0.00000000000E+00 0.  1.
         11    1    3    3    0    0  0.35770842851E+00 -0.26551971622E+01 -0.88660092924E+01  0.92619732414E+01  0.51100000000E-03 0. -1.
        -11    1    3    3    0    0  0.40327492581E+02 -0.15256176190E+00  0.39120885662E+01  0.40517087385E+02  0.51100000000E-03 0.  1.
         12    1    3    3    0    0 -0.39771807651E+02  0.23721984205E+01  0.55612640592E+01  0.40228741804E+02  0.00000000000E+00 0. -1.
</event>
<event>
 7    1  0.1756449E-015  0.9000807E+02  0.7816164E-02  0.1186338E+00
        -11   -1    0    0    0    0  0.00000000000E+00  0.00000000000E+00  0.45593999997E+02  0.45594000000E+02  0.51100000000E-03 0.  1.
         11   -1    0    0    0    0 -0.00000000000E+00 -0.00000000000E+00 -0.45593999997E+02  0.45594000000E+02  0.51100000000E-03 0. -1.
    9900012    2    1    2    0    0  0.97552492199E+00  0.59465683900E+00 -0.29488688148E+00  0.90008074620E+02  0.90000340404E+02 0.  0.
        -12    1    1    2    0    0 -0.97552492199E+00 -0.59465683900E+00  0.29488688148E+00  0.11799253800E+01  0.00000000000E+00 0.  1.
         11    1    3    3    0    0  0.94856707709E+01  0.12081064343E+01  0.58589463925E+01  0.11214487247E+02  0.51100000000E-03 0. -1.
        -11    1    3    3    0    0 -0.37420694624E+02 -0.20654661232E+02 -0.83378210324E+01  0.43548165019E+02  0.51100000000E-03 0.  1.
         12    1    3    3    0    0  0.28910548775E+02  0.20041211636E+02  0.21839877584E+01  0.35245422353E+02  0.00000000000E+00 0. -1.
</event>
<event>
 7    1  0.1756449E-015  0.9000778E+02  0.7816164E-02  0.1186339E+00
        -11   -1    0    0    0    0  0.00000000000E+00  0.00000000000E+00  0.45593999997E+02  0.45594000000E+02  0.51100000000E-03 0.  1.
         11   -1    0    0    0    0 -0.00000000000E+00 -0.00000000000E+00 -0.45593999997E+02  0.45594000000E+02  0.51100000000E-03 0. -1.
    9900012    2    1    2    0    0 -0.44179523871E+00  0.13532035907E+00 -0.10860131570E+01  0.90007780016E+02  0.90000041913E+02 0.  0.
        -12    1    1    2    0    0  0.44179523871E+00 -0.13532035907E+00  0.10860131570E+01  0.11802199836E+01  0.00000000000E+00 0.  1.
         11    1    3    3    0    0 -0.30688823263E+01 -0.42905165363E+01  0.91440321381E+01  0.10556509598E+02  0.51100000000E-03 0. -1.
        -11    1    3    3    0    0  0.10318130409E+02 -0.27397564821E+02  0.19541949075E+02  0.35199121398E+02  0.51100000000E-03 0.  1.
         12    1    3    3    0    0 -0.76910433217E+01  0.31823401717E+02 -0.29771994370E+02  0.44252149021E+02  0.00000000000E+00 0. -1.
</event>
<event>
 7    1  0.1756449E-015  0.9000767E+02  0.7816164E-02  0.1186339E+00
        -11   -1    0    0    0    0  0.00000000000E+00  0.00000000000E+00  0.45593999997E+02  0.45594000000E+02  0.51100000000E-03 0.  1.
         11   -1    0    0    0    0 -0.00000000000E+00 -0.00000000000E+00 -0.45593999997E+02  0.45594000000E+02  0.51100000000E-03 0. -1.
    9900012    2    1    2    0    0  0.68172686642E-01  0.70853937962E+00 -0.94153785027E+00  0.90007674159E+02  0.89999934658E+02 0.  0.
        -12    1    1    2    0    0 -0.68172686642E-01 -0.70853937962E+00  0.94153785027E+00  0.11803258411E+01  0.00000000000E+00 0.  1.
         11    1    3    3    0    0  0.31046981998E+02 -0.25143910580E+02 -0.12839809459E+01  0.39972239589E+02  0.51100000000E-03 0. -1.
        -11    1    3    3    0    0  0.49378048929E+01  0.80573614662E+01 -0.27247076920E+01  0.98349897420E+01  0.51100000000E-03 0.  1.
        -12    1    3    3    0    0 -0.35916614204E+02  0.17795088493E+02  0.30671507877E+01  0.40200444828E+02  0.00000000000E+00 0.  1.
</event>
<event>
 7    1  0.1756449E-015  0.9000773E+02  0.7816164E-02  0.1186339E+00
        -11   -1    0    0    0    0  0.00000000000E+00  0.00000000000E+00  0.45593999997E+02  0.45594000000E+02  0.51100000000E-03 0. -1.
         11   -1    0    0    0    0 -0.00000000000E+00 -0.00000000000E+00 -0.45593999997E+02  0.45594000000E+02  0.51100000000E-03 0.  1.
    9900012    2    1    2    0    0  0.54880171278E+00 -0.87856646820E+00  0.56566679036E+00  0.90007728304E+02  0.89999989517E+02 0.  0.
        -12    1    1    2    0    0 -0.54880171278E+00  0.87856646820E+00 -0.56566679036E+00  0.11802716961E+01  0.00000000000E+00 0.  1.
         11    1    3    3    0    0  0.17591270678E+00 -0.62726046279E+01 -0.75346170054E+01  0.98054560209E+01  0.51100000000E-03 0. -1.
        -11    1    3    3    0    0  0.56670014492E+01  0.35409134647E+02 -0.17955988982E+02  0.40104105307E+02  0.51100000000E-03 0.  1.
         12    1    3    3    0    0 -0.52941124432E+01 -0.30015096488E+02  0.26056272778E+02  0.40098166976E+02  0.00000000000E+00 0. -1.
</event>
<event>
 7    1  0.1756449E-015  0.9000774E+02  0.7816164E-02  0.1186339E+00
        -11   -1    0    0    0    0  0.00000000000E+00  0.00000000000E+00  0.45593999997E+02  0.45594000000E+02  0.51100000000E-03 0.  1.
         11   -1    0    0    0    0 -0.00000000000E+00 -0.00000000000E+00 -0.45593999997E+02  0.45594000000E+02  0.51100000000E-03 0. -1.
    9900012    2    1    2    0    0 -0.30994161148E+00  0.11069092119E+01 -0.26779354868E+00  0.90007735118E+02  0.89999996422E+02 0.  0.
        -12    1    1    2    0    0  0.30994161148E+00 -0.11069092119E+01  0.26779354868E+00  0.11802648816E+01  0.00000000000E+00 0.  1.
         11    1    3    3    0    0 -0.25860773044E+02 -0.27328050602E+02 -0.33820071147E+01  0.37776181709E+02  0.51100000000E-03 0. -1.
        -11    1    3    3    0    0  0.23455036304E+01 -0.75722329630E+01  0.49666549618E+01  0.93545583058E+01  0.51100000000E-03 0.  1.
        -12    1    3    3    0    0  0.23205327802E+02  0.36007192776E+02 -0.18524413958E+01  0.42876995104E+02  0.00000000000E+00 0.  1.
</event>
<event>
 7    1  0.1756449E-015  0.9000775E+02  0.7816164E-02  0.1186339E+00
        -11   -1    0    0    0    0  0.00000000000E+00  0.00000000000E+00  0.45593999997E+02  0.45594000000E+02  0.51100000000E-03 0.  1.
         11   -1    0    0    0    0 -0.00000000000E+00 -0.00000000000E+00 -0.45593999997E+02  0.45594000000E+02  0.51100000000E-03 0. -1.
    9900012    2    1    2    0    0  0.33048312720E+00 -0.11291539548E+01  0.93766767968E-01  0.90007745808E+02  0.90000007253E+02 0.  0.
        -12    1    1    2    0    0 -0.33048312720E+00  0.11291539548E+01 -0.93766767968E-01  0.11802541920E+01  0.00000000000E+00 0.  1.
         11    1    3    3    0    0  0.38961777277E+01  0.46070114194E+01 -0.83309317736E+01  0.10286358908E+02  0.51100000000E-03 0. -1.
        -11    1    3    3    0    0 -0.11333315397E+02  0.33115269734E+02  0.17414673859E+02  0.39093938063E+02  0.51100000000E-03 0.  1.
         12    1    3    3    0    0  0.77676207967E+01 -0.38851435108E+02 -0.89899753174E+01  0.40627448837E+02  0.00000000000E+00 0. -1.
</event>
<event>
 7    1  0.1756449E-015  0.9000765E+02  0.7816164E-02  0.1186339E+00
        -11   -1    0    0    0    0  0.00000000000E+00  0.00000000000E+00  0.45593999997E+02  0.45594000000E+02  0.51100000000E-03 0.  1.
         11   -1    0    0    0    0 -0.00000000000E+00 -0.00000000000E+00 -0.45593999997E+02  0.45594000000E+02  0.51100000000E-03 0. -1.
    9900012    2    1    2    0    0  0.96934948468E-01 -0.94134473433E+00  0.70548272706E+00  0.90007647438E+02  0.89999907584E+02 0.  0.
        -12    1    1    2    0    0 -0.96934948468E-01  0.94134473433E+00 -0.70548272706E+00  0.11803525623E+01  0.00000000000E+00 0.  1.
         11    1    3    3    0    0  0.20941508556E+01  0.43999323780E+01 -0.29391530682E+02  0.29792733154E+02  0.51100000000E-03 0. -1.
        -11    1    3    3    0    0 -0.13191051429E+02 -0.25191781828E+02  0.11027532546E+02  0.30499773504E+02  0.51100000000E-03 0.  1.
        -12    1    3    3    0    0  0.11193835522E+02  0.19850504716E+02  0.19069480862E+02  0.29715140779E+02  0.00000000000E+00 0.  1.
</event>
<event>
 7    1  0.1756449E-015  0.9000771E+02  0.7816164E-02  0.1186339E+00
        -11   -1    0    0    0    0  0.00000000000E+00  0.00000000000E+00  0.45593999997E+02  0.45594000000E+02  0.51100000000E-03 0.  1.
         11   -1    0    0    0    0 -0.00000000000E+00 -0.00000000000E+00 -0.45593999997E+02  0.45594000000E+02  0.51100000000E-03 0. -1.
    9900012    2    1    2    0    0  0.76332968809E-02  0.89043952377E+00 -0.77468209932E+00  0.90007714794E+02  0.89999975829E+02 0.  0.
        -12    1    1    2    0    0 -0.76332968809E-02 -0.89043952377E+00  0.77468209932E+00  0.11802852061E+01  0.00000000000E+00 0.  1.
         11    1    3    3    0    0  0.47899570852E+01  0.26654260421E+02  0.25671896443E+00  0.27082451742E+02  0.51100000000E-03 0. -1.
        -11    1    3    3    0    0  0.20385969064E+02  0.74072457952E+00  0.12529748537E+02  0.23940154683E+02  0.51100000000E-03 0.  1.
        -12    1    3    3    0    0 -0.25168292852E+02 -0.26504545477E+02 -0.13561149601E+02  0.38985108369E+02  0.00000000000E+00 0.  1.
</event>
<event>
 7    1  0.1756449E-015  0.9000773E+02  0.7816164E-02  0.1186339E+00
        -11   -1    0    0    0    0  0.00000000000E+00  0.00000000000E+00  0.45593999997E+02  0.45594000000E+02  0.51100000000E-03 0.  1.
         11   -1    0    0    0    0 -0.00000000000E+00 -0.00000000000E+00 -0.45593999997E+02  0.45594000000E+02  0.51100000000E-03 0. -1.
    9900012    2    1    2    0    0  0.47438101906E+00 -0.99795925205E+00 -0.41481521326E+00  0.90007732369E+02  0.89999993636E+02 0.  0.
        -12    1    1    2    0    0 -0.47438101906E+00  0.99795925205E+00  0.41481521326E+00  0.11802676312E+01  0.00000000000E+00 0.  1.
         11    1    3    3    0    0 -0.30537103226E+02 -0.98758608943E+01  0.21885128799E+02  0.38845928547E+02  0.51100000000E-03 0. -1.
        -11    1    3    3    0    0 -0.17315180370E+01 -0.81849754177E+01 -0.79747436416E+01  0.11558049737E+02  0.51100000000E-03 0.  1.
        -12    1    3    3    0    0  0.32743002282E+02  0.17062877060E+02 -0.14325200371E+02  0.39603754086E+02  0.00000000000E+00 0.  1.
</event>
<event>
 7    1  0.1756449E-015  0.9000782E+02  0.7816164E-02  0.1186339E+00
        -11   -1    0    0    0    0  0.00000000000E+00  0.00000000000E+00  0.45593999997E+02  0.45594000000E+02  0.51100000000E-03 0.  1.
         11   -1    0    0    0    0 -0.00000000000E+00 -0.00000000000E+00 -0.45593999997E+02  0.45594000000E+02  0.51100000000E-03 0. -1.
    9900012    2    1    2    0    0 -0.79267079974E+00 -0.12271439835E-01 -0.87427393892E+00  0.90007816749E+02  0.90000079130E+02 0.  0.
        -12    1    1    2    0    0  0.79267079974E+00  0.12271439835E-01  0.87427393892E+00  0.11801832507E+01  0.00000000000E+00 0.  1.
         11    1    3    3    0    0 -0.57969197958E+01 -0.89580858636E+01 -0.13633894860E+02  0.17312846987E+02  0.51100000000E-03 0. -1.
        -11    1    3    3    0    0 -0.12992554122E+02 -0.27345412629E+02  0.17108099501E+00  0.30275523504E+02  0.51100000000E-03 0.  1.
         12    1    3    3    0    0  0.17996803118E+02  0.36291227052E+02  0.12588539927E+02  0.42419446259E+02  0.00000000000E+00 0. -1.
</event>
<event>
 7    1  0.1756449E-015  0.9000773E+02  0.7816164E-02  0.1186339E+00
        -11   -1    0    0    0    0  0.00000000000E+00  0.00000000000E+00  0.45593999997E+02  0.45594000000E+02  0.51100000000E-03 0. -1.
         11   -1    0    0    0    0 -0.00000000000E+00 -0.00000000000E+00 -0.45593999997E+02  0.45594000000E+02  0.51100000000E-03 0.  1.
    9900012    2    1    2    0    0  0.42089050949E+00 -0.37996577833E+00  0.10351406540E+01  0.90007729274E+02  0.89999990500E+02 0.  0.
        -12    1    1    2    0    0 -0.42089050949E+00  0.37996577833E+00 -0.10351406540E+01  0.11802707262E+01  0.00000000000E+00 0.  1.
         11    1    3    3    0    0 -0.38088899480E+02 -0.27616935983E+01  0.10779293786E+02  0.39681033125E+02  0.51100000000E-03 0. -1.
        -11    1    3    3    0    0  0.12535392271E+01  0.64947131584E+01  0.66825403631E+01  0.94026063179E+01  0.51100000000E-03 0.  1.
        -12    1    3    3    0    0  0.37256250762E+02 -0.41129853385E+01 -0.16426693496E+02  0.40924089830E+02  0.00000000000E+00 0.  1.
</event>
<event>
 7    1  0.1756449E-015  0.9000776E+02  0.7816164E-02  0.1186339E+00
        -11   -1    0    0    0    0  0.00000000000E+00  0.00000000000E+00  0.45593999997E+02  0.45594000000E+02  0.51100000000E-03 0.  1.
         11   -1    0    0    0    0 -0.00000000000E+00 -0.00000000000E+00 -0.45593999997E+02  0.45594000000E+02  0.51100000000E-03 0. -1.
    9900012    2    1    2    0    0  0.12755337012E+00  0.15568579080E+00 -0.11629492868E+01  0.90007763171E+02  0.90000024845E+02 0.  0.
        -12    1    1    2    0    0 -0.12755337012E+00 -0.15568579080E+00  0.11629492868E+01  0.11802368285E+01  0.00000000000E+00 0.  1.
         11    1    3    3    0    0  0.37385493854E+02  0.36658914839E+01 -0.15054675624E+02  0.40469212613E+02  0.51100000000E-03 0. -1.
        -11    1    3    3    0    0 -0.92759064073E+01 -0.21356146847E+01 -0.91960895525E+01  0.13235231508E+02  0.51100000000E-03 0.  1.
        -12    1    3    3    0    0 -0.27982034077E+02 -0.13745910083E+01  0.23087815890E+02  0.36303319050E+02  0.00000000000E+00 0.  1.
</event>
<event>
 7    1  0.1756449E-015  0.9000770E+02  0.7816164E-02  0.1186339E+00
        -11   -1    0    0    0    0  0.00000000000E+00  0.00000000000E+00  0.45593999997E+02  0.45594000000E+02  0.51100000000E-03 0.  1.
         11   -1    0    0    0    0 -0.00000000000E+00 -0.00000000000E+00 -0.45593999997E+02  0.45594000000E+02  0.51100000000E-03 0. -1.
    9900012    2    1    2    0    0 -0.97875589567E+00 -0.60805145247E+00 -0.25575492655E+00  0.90007703319E+02  0.89999964203E+02 0.  0.
        -12    1    1    2    0    0  0.97875589567E+00  0.60805145247E+00  0.25575492655E+00  0.11802966808E+01  0.00000000000E+00 0.  1.
         11    1    3    3    0    0  0.37180359451E+02  0.11982638897E+02  0.18646803154E+01  0.39108052838E+02  0.51100000000E-03 0. -1.
        -11    1    3    3    0    0 -0.21106843594E+01 -0.11272245405E+02 -0.84903604047E+01  0.14269012755E+02  0.51100000000E-03 0.  1.
        -12    1    3    3    0    0 -0.36048430987E+02 -0.13184449448E+01  0.63699251627E+01  0.36630637727E+02  0.00000000000E+00 0.  1.
</event>
<event>
 7    1  0.1756449E-015  0.9000772E+02  0.7816164E-02  0.1186339E+00
        -11   -1    0    0    0    0  0.00000000000E+00  0.00000000000E+00  0.45593999997E+02  0.45594000000E+02  0.51100000000E-03 0. -1.
         11   -1    0    0    0    0 -0.00000000000E+00 -0.00000000000E+00 -0.45593999997E+02  0.45594000000E+02  0.51100000000E-03 0.  1.
    9900012    2    1    2    0    0  0.55157784160E+00  0.17961761224E+00  0.10278887630E+01  0.90007722104E+02  0.89999983236E+02 0.  0.
        -12    1    1    2    0    0 -0.55157784160E+00 -0.17961761224E+00 -0.10278887630E+01  0.11802778957E+01  0.00000000000E+00 0.  1.
         11    1    3    3    0    0  0.13475000654E+01 -0.47659580822E-01 -0.98132405689E+01  0.99054388387E+01  0.51100000000E-03 0. -1.
        -11    1    3    3    0    0 -0.37572258688E+02 -0.56348922279E+01  0.18223566209E+02  0.42136978996E+02  0.51100000000E-03 0.  1.
         12    1    3    3    0    0  0.36776336464E+02  0.58621694209E+01 -0.73824368768E+01  0.37965304269E+02  0.00000000000E+00 0. -1.
</event>
<event>
 7    1  0.1756449E-015  0.9000783E+02  0.7816164E-02  0.1186339E+00
        -11   -1    0    0    0    0  0.00000000000E+00  0.00000000000E+00  0.45593999997E+02  0.45594000000E+02  0.51100000000E-03 0. -1.
         11   -1    0    0    0    0 -0.00000000000E+00 -0.00000000000E+00 -0.45593999997E+02  0.45594000000E+02  0.51100000000E-03 0.  1.
    9900012    2    1    2    0    0  0.19309267014E+00  0.11451201820E+01 -0.21027017127E+00  0.90007831133E+02  0.90000093704E+02 0.  0.
        -12    1    1    2    0    0 -0.19309267014E+00 -0.11451201820E+01  0.21027017127E+00  0.11801688674E+01  0.00000000000E+00 0.  1.
         11    1    3    3    0    0 -0.75784390373E+01 -0.40940418494E+01 -0.15204867632E+00  0.86149309904E+01  0.51100000000E-03 0. -1.
        -11    1    3    3    0    0 -0.23364839849E+02  0.58839489888E+01 -0.29805049599E+02  0.38325938720E+02  0.51100000000E-03 0.  1.
         12    1    3    3    0    0  0.31136371556E+02 -0.64478695735E+00  0.29746828104E+02  0.43066961423E+02  0.00000000000E+00 0. -1.
</event>
<event>
 7    1  0.1756449E-015  0.9000775E+02  0.7816164E-02  0.1186339E+00
        -11   -1    0    0    0    0  0.00000000000E+00  0.00000000000E+00  0.45593999997E+02  0.45594000000E+02  0.51100000000E-03 0.  1.
         11   -1    0    0    0    0 -0.00000000000E+00 -0.00000000000E+00 -0.45593999997E+02  0.45594000000E+02  0.51100000000E-03 0. -1.
    9900012    2    1    2    0    0  0.99915967907E+00  0.83278548293E-01 -0.62268961891E+00  0.90007746747E+02  0.90000008204E+02 0.  0.
        -12    1    1    2    0    0 -0.99915967907E+00 -0.83278548293E-01  0.62268961891E+00  0.11802532535E+01  0.00000000000E+00 0.  1.
         11    1    3    3    0    0  0.10223233666E+02  0.57491268913E+01 -0.40061608563E+02  0.41743256312E+02  0.51100000000E-03 0. -1.
        -11    1    3    3    0    0 -0.26287645578E+01  0.74635483060E+01  0.21718307653E+01  0.82055959900E+01  0.51100000000E-03 0.  1.
        -12    1    3    3    0    0 -0.65953094294E+01 -0.13129396649E+02  0.37267088179E+02  0.40058894445E+02  0.00000000000E+00 0.  1.
</event>
<event>
 7    1  0.1756449E-015  0.9000770E+02  0.7816164E-02  0.1186339E+00
        -11   -1    0    0    0    0  0.00000000000E+00  0.00000000000E+00  0.45593999997E+02  0.45594000000E+02  0.51100000000E-03 0.  1.
         11   -1    0    0    0    0 -0.00000000000E+00 -0.00000000000E+00 -0.45593999997E+02  0.45594000000E+02  0.51100000000E-03 0. -1.
    9900012    2    1    2    0    0  0.11862402970E+00  0.71684494266E+00 -0.93014527030E+00  0.90007699803E+02  0.89999960640E+02 0.  0.
        -12    1    1    2    0    0 -0.11862402970E+00 -0.71684494266E+00  0.93014527030E+00  0.11803001974E+01  0.00000000000E+00 0.  1.
         11    1    3    3    0    0  0.30203077856E+02  0.39395870738E+01 -0.22441704138E+02  0.37833534638E+02  0.51100000000E-03 0. -1.
        -11    1    3    3    0    0  0.86229324529E+01 -0.15753653756E+01  0.33193616391E+01  0.93730945854E+01  0.51100000000E-03 0.  1.
        -12    1    3    3    0    0 -0.38707386279E+02 -0.16473767556E+01  0.18192197229E+02  0.42801070580E+02  0.00000000000E+00 0.  1.
</event>
<event>
 7    1  0.1756449E-015  0.9000757E+02  0.7816164E-02  0.1186339E+00
        -11   -1    0    0    0    0  0.00000000000E+00  0.00000000000E+00  0.45593999997E+02  0.45594000000E+02  0.51100000000E-03 0.  1.
         11   -1    0    0    0    0 -0.00000000000E+00 -0.00000000000E+00 -0.45593999997E+02  0.45594000000E+02  0.51100000000E-03 0. -1.
    9900012    2    1    2    0    0 -0.15998633960E+00  0.14089090020E+00 -0.11610250571E+01  0.90007565733E+02  0.89999824801E+02 0.  0.
        -12    1    1    2    0    0  0.15998633960E+00 -0.14089090020E+00  0.11610250571E+01  0.11804342666E+01  0.00000000000E+00 0.  1.
         11    1    3    3    0    0  0.28077708217E+02  0.77991284307E+00 -0.29580599080E+02  0.40791884057E+02  0.51100000000E-03 0. -1.
        -11    1    3    3    0    0 -0.54137853911E+01  0.36508745677E+01 -0.52051802076E+01  0.83505603779E+01  0.51100000000E-03 0.  1.
        -12    1    3    3    0    0 -0.22823909165E+02 -0.42898965106E+01  0.33624754230E+02  0.40865121298E+02  0.00000000000E+00 0.  1.
</event>
<event>
 7    1  0.1756449E-015  0.9000743E+02  0.7816164E-02  0.1186340E+00
        -11   -1    0    0    0    0  0.00000000000E+00  0.00000000000E+00  0.45593999997E+02  0.45594000000E+02  0.51100000000E-03 0.  1.
         11   -1    0    0    0    0 -0.00000000000E+00 -0.00000000000E+00 -0.45593999997E+02  0.45594000000E+02  0.51100000000E-03 0. -1.
    9900012    2    1    2    0    0  0.97837507328E+00 -0.51497963259E+00 -0.41391871519E+00  0.90007427889E+02  0.89999685137E+02 0.  0.
        -12    1    1    2    0    0 -0.97837507328E+00  0.51497963259E+00  0.41391871519E+00  0.11805721108E+01  0.00000000000E+00 0.  1.
         11    1    3    3    0    0 -0.45152591627E+01 -0.54643551635E+01 -0.31327250340E+02  0.32119205419E+02  0.51100000000E-03 0. -1.
        -11    1    3    3    0    0  0.58916972098E+01 -0.47463609294E+01 -0.11838145563E+02  0.14049260789E+02  0.51100000000E-03 0.  1.
        -12    1    3    3    0    0 -0.39806297383E+00  0.96957364602E+01  0.42751477187E+02  0.43838961681E+02  0.00000000000E+00 0.  1.
</event>
<event>
 7    1  0.1756449E-015  0.9000778E+02  0.7816164E-02  0.1186339E+00
        -11   -1    0    0    0    0  0.00000000000E+00  0.00000000000E+00  0.45593999997E+02  0.45594000000E+02  0.51100000000E-03 0. -1.
         11   -1    0    0    0    0 -0.00000000000E+00 -0.00000000000E+00 -0.45593999997E+02  0.45594000000E+02  0.51100000000E-03 0.  1.
    9900012    2    1    2    0    0 -0.93306665158E-01 -0.31429538497E+00  0.11337716358E+01  0.90007777205E+02  0.90000039065E+02 0.  0.
        -12    1    1    2    0    0  0.93306665158E-01  0.31429538497E+00 -0.11337716358E+01  0.11802227946E+01  0.00000000000E+00 0.  1.
         11    1    3    3    0    0  0.17707091928E+02 -0.93799150180E+01  0.79542838418E+01  0.21559094183E+02  0.51100000000E-03 0. -1.
        -11    1    3    3    0    0 -0.25455376673E+01  0.34469358312E+02  0.77600375710E+01  0.35423644756E+02  0.51100000000E-03 0.  1.
         12    1    3    3    0    0 -0.15254860926E+02 -0.25403738679E+02 -0.14580549777E+02  0.33025038267E+02  0.00000000000E+00 0. -1.
</event>
<event>
 7    1  0.1756449E-015  0.9000766E+02  0.7816164E-02  0.1186339E+00
        -11   -1    0    0    0    0  0.00000000000E+00  0.00000000000E+00  0.45593999997E+02  0.45594000000E+02  0.51100000000E-03 0.  1.
         11   -1    0    0    0    0 -0.00000000000E+00 -0.00000000000E+00 -0.45593999997E+02  0.45594000000E+02  0.51100000000E-03 0. -1.
    9900012    2    1    2    0    0  0.26212078273E+00  0.88070104896E+00 -0.74084503063E+00  0.90007664030E+02  0.89999924395E+02 0.  0.
        -12    1    1    2    0    0 -0.26212078273E+00 -0.88070104896E+00  0.74084503063E+00  0.11803359699E+01  0.00000000000E+00 0.  1.
         11    1    3    3    0    0  0.40761624727E+01 -0.67583964145E+01  0.99393147850E+01  0.12691769036E+02  0.51100000000E-03 0. -1.
        -11    1    3    3    0    0 -0.19042047481E+02 -0.26356569362E+02  0.10865683337E+02  0.34283106560E+02  0.51100000000E-03 0.  1.
         12    1    3    3    0    0  0.15228005791E+02  0.33995666825E+02 -0.21545843153E+02  0.43032788434E+02  0.00000000000E+00 0. -1.
</event>
<event>
 7    1  0.1996775E-015  0.9000777E+02  0.7816164E-02  0.1186339E+00
        -11   -1    0    0    0    0  0.00000000000E+00  0.00000000000E+00  0.45593999997E+02  0.45594000000E+02  0.51100000000E-03 0. -1.
         11   -1    0    0    0    0 -0.00000000000E+00 -0.00000000000E+00 -0.45593999997E+02  0.45594000000E+02  0.51100000000E-03 0.  1.
    9900012    2    1    2    0    0 -0.59778699998E+00  0.59360764291E+00  0.82657977531E+00  0.90007765508E+02  0.90000027213E+02 0.  0.
        -12    1    1    2    0    0  0.59778699998E+00 -0.59360764291E+00 -0.82657977531E+00  0.11802344920E+01  0.00000000000E+00 0.  1.
         11    1    3    3    0    0 -0.22188421697E+01 -0.88291979764E+01  0.22516334305E+01  0.93780515485E+01  0.51100000000E-03 0. -1.
        -11    1    3    3    0    0 -0.28028882621E+02  0.22312347532E+02 -0.22250220356E+02  0.42172638280E+02  0.51100000000E-03 0.  1.
         12    1    3    3    0    0  0.29649937791E+02 -0.12889541913E+02  0.20825166700E+02  0.38457075679E+02  0.00000000000E+00 0. -1.
</event>
<event>
 7    1  0.1756449E-015  0.9000770E+02  0.7816164E-02  0.1186339E+00
        -11   -1    0    0    0    0  0.00000000000E+00  0.00000000000E+00  0.45593999997E+02  0.45594000000E+02  0.51100000000E-03 0. -1.
         11   -1    0    0    0    0 -0.00000000000E+00 -0.00000000000E+00 -0.45593999997E+02  0.45594000000E+02  0.51100000000E-03 0.  1.
    9900012    2    1    2    0    0 -0.79866969067E+00  0.86874828564E+00 -0.22703993039E-01  0.90007698204E+02  0.89999959020E+02 0.  0.
        -12    1    1    2    0    0  0.79866969067E+00 -0.86874828564E+00  0.22703993039E-01  0.11803017961E+01  0.00000000000E+00 0.  1.
         11    1    3    3    0    0  0.49243514865E+01 -0.44421863719E+01 -0.80090640062E+01  0.10398430836E+02  0.51100000000E-03 0. -1.
        -11    1    3    3    0    0 -0.13598101651E+01 -0.25247476543E+02 -0.24210053664E+02  0.35005868853E+02  0.51100000000E-03 0.  1.
         12    1    3    3    0    0 -0.43632110121E+01  0.30558411200E+02  0.32196413677E+02  0.44603398515E+02  0.00000000000E+00 0. -1.
</event>
<event>
 7    1  0.1756449E-015  0.9000792E+02  0.7816164E-02  0.1186339E+00
        -11   -1    0    0    0    0  0.00000000000E+00  0.00000000000E+00  0.45593999997E+02  0.45594000000E+02  0.51100000000E-03 0.  1.
         11   -1    0    0    0    0 -0.00000000000E+00 -0.00000000000E+00 -0.45593999997E+02  0.45594000000E+02  0.51100000000E-03 0. -1.
    9900012    2    1    2    0    0 -0.41644395887E+00 -0.65190007579E+00 -0.89116821315E+00  0.90007923704E+02  0.90000187497E+02 0.  0.
        -12    1    1    2    0    0  0.41644395887E+00  0.65190007579E+00  0.89116821315E+00  0.11800762958E+01  0.00000000000E+00 0.  1.
         11    1    3    3    0    0  0.79179150907E+01 -0.46774492648E+01 -0.45556861109E+01  0.10262854730E+02  0.51100000000E-03 0. -1.
        -11    1    3    3    0    0 -0.59394372407E+00 -0.21380032484E+02  0.33534991540E+02  0.39775045142E+02  0.51100000000E-03 0.  1.
         12    1    3    3    0    0 -0.77404153255E+01  0.25405581673E+02 -0.29870473642E+02  0.39970023832E+02  0.00000000000E+00 0. -1.
</event>
<event>
 7    1  0.1756449E-015  0.9000751E+02  0.7816164E-02  0.1186340E+00
        -11   -1    0    0    0    0  0.00000000000E+00  0.00000000000E+00  0.45593999997E+02  0.45594000000E+02  0.51100000000E-03 0. -1.
         11   -1    0    0    0    0 -0.00000000000E+00 -0.00000000000E+00 -0.45593999997E+02  0.45594000000E+02  0.51100000000E-03 0.  1.
    9900012    2    1    2    0    0 -0.10760601936E+01 -0.19552873195E+00  0.44432936945E+00  0.90007506199E+02  0.89999764481E+02 0.  0.
        -12    1    1    2    0    0  0.10760601936E+01  0.19552873195E+00 -0.44432936945E+00  0.11804938009E+01  0.00000000000E+00 0.  1.
         11    1    3    3    0    0 -0.18259472412E+01  0.75536865090E-01  0.92847717699E+01  0.94629158416E+01  0.51100000000E-03 0. -1.
        -11    1    3    3    0    0 -0.29680984571E+02  0.19575960271E+02 -0.22106454728E+02  0.41867342959E+02  0.51100000000E-03 0.  1.
         12    1    3    3    0    0  0.30430871618E+02 -0.19847025868E+02  0.13266012327E+02  0.38677247398E+02  0.00000000000E+00 0. -1.
</event>
<event>
 7    1  0.1756449E-015  0.9000756E+02  0.7816164E-02  0.1186339E+00
        -11   -1    0    0    0    0  0.00000000000E+00  0.00000000000E+00  0.45593999997E+02  0.45594000000E+02  0.51100000000E-03 0.  1.
         11   -1    0    0    0    0 -0.00000000000E+00 -0.00000000000E+00 -0.45593999997E+02  0.45594000000E+02  0.51100000000E-03 0. -1.
    9900012    2    1    2    0    0 -0.11575800629E+01 -0.11504709044E+00  0.20054072984E+00  0.90007557702E+02  0.89999816663E+02 0.  0.
        -12    1    1    2    0    0  0.11575800629E+01  0.11504709044E+00 -0.20054072984E+00  0.11804422982E+01  0.00000000000E+00 0.  1.
         11    1    3    3    0    0  0.41640079884E+01  0.38775857192E+02  0.99541149014E+01  0.40249105173E+02  0.51100000000E-03 0. -1.
        -11    1    3    3    0    0  0.92230880520E+01 -0.24302468997E+01 -0.18081373989E+01  0.97077708215E+01  0.51100000000E-03 0.  1.
        -12    1    3    3    0    0 -0.14544676103E+02 -0.36460657382E+02 -0.79454367727E+01  0.40050681707E+02  0.00000000000E+00 0.  1.
</event>
<event>
 7    1  0.1756449E-015  0.9000770E+02  0.7816164E-02  0.1186339E+00
        -11   -1    0    0    0    0  0.00000000000E+00  0.00000000000E+00  0.45593999997E+02  0.45594000000E+02  0.51100000000E-03 0.  1.
         11   -1    0    0    0    0 -0.00000000000E+00 -0.00000000000E+00 -0.45593999997E+02  0.45594000000E+02  0.51100000000E-03 0. -1.
    9900012    2    1    2    0    0 -0.70406789964E+00 -0.93264755846E+00 -0.16606059107E+00  0.90007695295E+02  0.89999956073E+02 0.  0.
        -12    1    1    2    0    0  0.70406789964E+00  0.93264755846E+00  0.16606059107E+00  0.11803047045E+01  0.00000000000E+00 0.  1.
         11    1    3    3    0    0  0.38246258791E+01  0.13453120046E+02 -0.72734276107E+00  0.14005114417E+02  0.51100000000E-03 0. -1.
        -11    1    3    3    0    0 -0.15971061760E+01 -0.33888298506E+01  0.37327568375E+02  0.37515093988E+02  0.51100000000E-03 0.  1.
         12    1    3    3    0    0 -0.29315876027E+01 -0.10996937754E+02 -0.36766286205E+02  0.38487486890E+02  0.00000000000E+00 0. -1.
</event>
<event>
 7    1  0.1756449E-015  0.9000771E+02  0.7816164E-02  0.1186339E+00
        -11   -1    0    0    0    0  0.00000000000E+00  0.00000000000E+00  0.45593999997E+02  0.45594000000E+02  0.51100000000E-03 0. -1.
         11   -1    0    0    0    0 -0.00000000000E+00 -0.00000000000E+00 -0.45593999997E+02  0.45594000000E+02  0.51100000000E-03 0.  1.
    9900012    2    1    2    0    0  0.15862042095E+00  0.62584470933E+00  0.98805306275E+00  0.90007707285E+02  0.89999968221E+02 0.  0.
        -12    1    1    2    0    0 -0.15862042095E+00 -0.62584470933E+00 -0.98805306275E+00  0.11802927149E+01  0.00000000000E+00 0.  1.
         11    1    3    3    0    0  0.35253085467E+01 -0.29243911025E+01 -0.15818387896E+02  0.16468189323E+02  0.51100000000E-03 0. -1.
        -11    1    3    3    0    0 -0.34652729816E+01  0.36742872655E+02  0.13659421367E+01  0.36931187443E+02  0.51100000000E-03 0.  1.
         12    1    3    3    0    0  0.98584855846E-01 -0.33192636843E+02  0.15440498822E+02  0.36608330520E+02  0.00000000000E+00 0. -1.
</event>
<event>
 7    1  0.1756449E-015  0.9000782E+02  0.7816164E-02  0.1186339E+00
        -11   -1    0    0    0    0  0.00000000000E+00  0.00000000000E+00  0.45593999997E+02  0.45594000000E+02  0.51100000000E-03 0. -1.
         11   -1    0    0    0    0 -0.00000000000E+00 -0.00000000000E+00 -0.45593999997E+02  0.45594000000E+02  0.51100000000E-03 0.  1.
    9900012    2    1    2    0    0 -0.50250830685E+00 -0.10401119419E+01  0.24182502341E+00  0.90007819170E+02  0.90000081583E+02 0.  0.
        -12    1    1    2    0    0  0.50250830685E+00  0.10401119419E+01 -0.24182502341E+00  0.11801808303E+01  0.00000000000E+00 0.  1.
         11    1    3    3    0    0  0.13491720566E+01 -0.86541527308E+01  0.35555243175E+01  0.94528502664E+01  0.51100000000E-03 0. -1.
        -11    1    3    3    0    0  0.17849386977E+02 -0.30292465026E+02 -0.11627939926E+02  0.37032999339E+02  0.51100000000E-03 0.  1.
         12    1    3    3    0    0 -0.19701067341E+02  0.37906505815E+02  0.83142406320E+01  0.43521969564E+02  0.00000000000E+00 0. -1.
</event>
<event>
 7    1  0.1756449E-015  0.9000770E+02  0.7816164E-02  0.1186339E+00
        -11   -1    0    0    0    0  0.00000000000E+00  0.00000000000E+00  0.45593999997E+02  0.45594000000E+02  0.51100000000E-03 0. -1.
         11   -1    0    0    0    0 -0.00000000000E+00 -0.00000000000E+00 -0.45593999997E+02  0.45594000000E+02  0.51100000000E-03 0.  1.
    9900012    2    1    2    0    0  0.16637839687E+00 -0.73351259830E+00  0.90961243786E+00  0.90007696103E+02  0.89999956891E+02 0.  0.
        -12    1    1    2    0    0 -0.16637839687E+00  0.73351259830E+00 -0.90961243786E+00  0.11803038973E+01  0.00000000000E+00 0.  1.
         11    1    3    3    0    0 -0.24990879580E+01 -0.25206927952E+01 -0.97090561314E+01  0.10337557933E+02  0.51100000000E-03 0. -1.
        -11    1    3    3    0    0  0.23821513817E+02  0.24604473053E+01 -0.27255853000E+02  0.36282224911E+02  0.51100000000E-03 0.  1.
         12    1    3    3    0    0 -0.21156047462E+02 -0.67326710845E+00  0.37874521570E+02  0.43387913259E+02  0.00000000000E+00 0. -1.
</event>
<event>
 7    1  0.1756449E-015  0.9000771E+02  0.7816164E-02  0.1186339E+00
        -11   -1    0    0    0    0  0.00000000000E+00  0.00000000000E+00  0.45593999997E+02  0.45594000000E+02  0.51100000000E-03 0. -1.
         11   -1    0    0    0    0 -0.00000000000E+00 -0.00000000000E+00 -0.45593999997E+02  0.45594000000E+02  0.51100000000E-03 0.  1.
    9900012    2    1    2    0    0 -0.73116158949E+00 -0.16084879685E+00  0.91247858619E+00  0.90007709029E+02  0.89999969988E+02 0.  0.
        -12    1    1    2    0    0  0.73116158949E+00  0.16084879685E+00 -0.91247858619E+00  0.11802909708E+01  0.00000000000E+00 0.  1.
         11    1    3    3    0    0 -0.28696040461E+02  0.11192329651E+01 -0.59293785145E+01  0.29323590339E+02  0.51100000000E-03 0. -1.
        -11    1    3    3    0    0  0.16927894188E+01 -0.16193467265E+02 -0.15987266689E+02  0.22818558555E+02  0.51100000000E-03 0.  1.
         12    1    3    3    0    0  0.26272089453E+02  0.14913385503E+02  0.22829123789E+02  0.37865560135E+02  0.00000000000E+00 0. -1.
</event>
<event>
 7    1  0.1756449E-015  0.9000762E+02  0.7816164E-02  0.1186339E+00
        -11   -1    0    0    0    0  0.00000000000E+00  0.00000000000E+00  0.45593999997E+02  0.45594000000E+02  0.51100000000E-03 0. -1.
         11   -1    0    0    0    0 -0.00000000000E+00 -0.00000000000E+00 -0.45593999997E+02  0.45594000000E+02  0.51100000000E-03 0.  1.
    9900012    2    1    2    0    0 -0.81815448124E-01 -0.11640205520E+01 -0.17790952289E+00  0.90007623191E+02  0.89999883017E+02 0.  0.
        -12    1    1    2    0    0  0.81815448124E-01  0.11640205520E+01  0.17790952289E+00  0.11803768090E+01  0.00000000000E+00 0.  1.
         11    1    3    3    0    0 -0.32195963785E+01 -0.54654701188E+01 -0.76953758530E+01  0.99727616155E+01  0.51100000000E-03 0. -1.
        -11    1    3    3    0    0  0.36460753551E+02 -0.90422852247E+01 -0.11665915038E+02  0.39335010431E+02  0.51100000000E-03 0.  1.
         12    1    3    3    0    0 -0.33322972621E+02  0.13343734792E+02  0.19183381368E+02  0.40699851145E+02  0.00000000000E+00 0. -1.
</event>
<event>
 7    1  0.1756449E-015  0.9000769E+02  0.7816164E-02  0.1186339E+00
        -11   -1    0    0    0    0  0.00000000000E+00  0.00000000000E+00  0.45593999997E+02  0.45594000000E+02  0.51100000000E-03 0.  1.
         11   -1    0    0    0    0 -0.00000000000E+00 -0.00000000000E+00 -0.45593999997E+02  0.45594000000E+02  0.51100000000E-03 0. -1.
    9900012    2    1    2    0    0  0.57096784615E+00 -0.96785275265E+00 -0.36108574012E+00  0.90007692352E+02  0.89999953091E+02 0.  0.
        -12    1    1    2    0    0 -0.57096784615E+00  0.96785275265E+00  0.36108574012E+00  0.11803076480E+01  0.00000000000E+00 0.  1.
         11    1    3    3    0    0 -0.99773495457E+01 -0.19449540839E+02 -0.25272386498E+02  0.33414452897E+02  0.51100000000E-03 0. -1.
        -11    1    3    3    0    0  0.29720490847E+01 -0.22979649007E+01 -0.12544302525E+02  0.13094779286E+02  0.51100000000E-03 0.  1.
        -12    1    3    3    0    0  0.75762683072E+01  0.20779652987E+02  0.37455603283E+02  0.43498460169E+02  0.00000000000E+00 0.  1.
</event>
<event>
 7    1  0.1756449E-015  0.9000765E+02  0.7816164E-02  0.1186339E+00
        -11   -1    0    0    0    0  0.00000000000E+00  0.00000000000E+00  0.45593999997E+02  0.45594000000E+02  0.51100000000E-03 0.  1.
         11   -1    0    0    0    0 -0.00000000000E+00 -0.00000000000E+00 -0.45593999997E+02  0.45594000000E+02  0.51100000000E-03 0. -1.
    9900012    2    1    2    0    0  0.97369145818E+00 -0.24171494140E+00 -0.62187597015E+00  0.90007647980E+02  0.89999908133E+02 0.  0.
        -12    1    1    2    0    0 -0.97369145818E+00  0.24171494140E+00  0.62187597015E+00  0.11803520199E+01  0.00000000000E+00 0.  1.
         11    1    3    3    0    0 -0.15245196664E+02 -0.50028638179E+00 -0.33129483054E+02  0.36472303951E+02  0.51100000000E-03 0. -1.
        -11    1    3    3    0    0  0.11662006567E+01  0.25013242544E+01 -0.89535717416E+01  0.93692632683E+01  0.51100000000E-03 0.  1.
        -12    1    3    3    0    0  0.15052687466E+02 -0.22427528140E+01  0.41461178826E+02  0.44166080761E+02  0.00000000000E+00 0.  1.
</event>
<event>
 7    1  0.1756449E-015  0.9000775E+02  0.7816164E-02  0.1186339E+00
        -11   -1    0    0    0    0  0.00000000000E+00  0.00000000000E+00  0.45593999997E+02  0.45594000000E+02  0.51100000000E-03 0.  1.
         11   -1    0    0    0    0 -0.00000000000E+00 -0.00000000000E+00 -0.45593999997E+02  0.45594000000E+02  0.51100000000E-03 0. -1.
    9900012    2    1    2    0    0  0.95169319554E-01  0.11760473074E+01  0.28925443803E-01  0.90007753776E+02  0.90000015326E+02 0.  0.
        -12    1    1    2    0    0 -0.95169319554E-01 -0.11760473074E+01 -0.28925443803E-01  0.11802462243E+01  0.00000000000E+00 0.  1.
         11    1    3    3    0    0  0.43086865917E+01  0.36795365700E+02 -0.20250481096E+02  0.42220204902E+02  0.51100000000E-03 0. -1.
        -11    1    3    3    0    0  0.34546309235E+00 -0.81431311870E+01 -0.55029302722E+01  0.98342346992E+01  0.51100000000E-03 0.  1.
        -12    1    3    3    0    0 -0.45589803645E+01 -0.27476187205E+02  0.25782336812E+02  0.37953314174E+02  0.00000000000E+00 0.  1.
</event>
<event>
 7    1  0.1756449E-015  0.9000774E+02  0.7816164E-02  0.1186339E+00
        -11   -1    0    0    0    0  0.00000000000E+00  0.00000000000E+00  0.45593999997E+02  0.45594000000E+02  0.51100000000E-03 0.  1.
         11   -1    0    0    0    0 -0.00000000000E+00 -0.00000000000E+00 -0.45593999997E+02  0.45594000000E+02  0.51100000000E-03 0. -1.
    9900012    2    1    2    0    0 -0.97322706564E+00  0.65662527644E+00 -0.12116450252E+00  0.90007742184E+02  0.90000003581E+02 0.  0.
        -12    1    1    2    0    0  0.97322706564E+00 -0.65662527644E+00  0.12116450252E+00  0.11802578157E+01  0.00000000000E+00 0.  1.
         11    1    3    3    0    0 -0.41195231439E+01  0.57945366180E+01 -0.64327902440E+01  0.95879046791E+01  0.51100000000E-03 0. -1.
        -11    1    3    3    0    0 -0.30304474362E+02 -0.13215975015E+02  0.24824859523E+02  0.41343642952E+02  0.51100000000E-03 0.  1.
         12    1    3    3    0    0  0.33450770440E+02  0.80780636733E+01 -0.18513233781E+02  0.39076194553E+02  0.00000000000E+00 0. -1.
</event>
<event>
 7    1  0.1756449E-015  0.9000773E+02  0.7816164E-02  0.1186339E+00
        -11   -1    0    0    0    0  0.00000000000E+00  0.00000000000E+00  0.45593999997E+02  0.45594000000E+02  0.51100000000E-03 0. -1.
         11   -1    0    0    0    0 -0.00000000000E+00 -0.00000000000E+00 -0.45593999997E+02  0.45594000000E+02  0.51100000000E-03 0.  1.
    9900012    2    1    2    0    0  0.84334246933E+00 -0.97098748568E-01 -0.81998573535E+00  0.90007732533E+02  0.89999993802E+02 0.  0.
        -12    1    1    2    0    0 -0.84334246933E+00  0.97098748568E-01  0.81998573535E+00  0.11802674670E+01  0.00000000000E+00 0.  1.
         11    1    3    3    0    0 -0.94618187876E+01 -0.17979209016E+02  0.30965496243E+02  0.37035657540E+02  0.51100000000E-03 0. -1.
        -11    1    3    3    0    0  0.28812158715E+01 -0.56319717610E+01  0.54245052307E+01  0.83334127507E+01  0.51100000000E-03 0.  1.
        -12    1    3    3    0    0  0.74239453854E+01  0.23514082028E+02 -0.37209987209E+02  0.44638662242E+02  0.00000000000E+00 0.  1.
</event>
<event>
 7    1  0.1756449E-015  0.9000810E+02  0.7816164E-02  0.1186338E+00
        -11   -1    0    0    0    0  0.00000000000E+00  0.00000000000E+00  0.45593999997E+02  0.45594000000E+02  0.51100000000E-03 0.  1.
         11   -1    0    0    0    0 -0.00000000000E+00 -0.00000000000E+00 -0.45593999997E+02  0.45594000000E+02  0.51100000000E-03 0. -1.
    9900012    2    1    2    0    0  0.11055387389E+00  0.39339971205E-01 -0.11740479317E+01  0.90008102403E+02  0.90000368554E+02 0.  0.
        -12    1    1    2    0    0 -0.11055387389E+00 -0.39339971205E-01  0.11740479317E+01  0.11798975966E+01  0.00000000000E+00 0.  1.
         11    1    3    3    0    0 -0.76276891906E+01  0.45392136707E+01 -0.38323415492E+00  0.88844229872E+01  0.51100000000E-03 0. -1.
        -11    1    3    3    0    0  0.21580136799E+02  0.32602601200E+02 -0.10229866555E+02  0.40413884733E+02  0.51100000000E-03 0.  1.
         12    1    3    3    0    0 -0.13841893734E+02 -0.37102474899E+02  0.94390527781E+01  0.40709794683E+02  0.00000000000E+00 0. -1.
</event>
<event>
 7    1  0.1756449E-015  0.9000726E+02  0.7816164E-02  0.1186340E+00
        -11   -1    0    0    0    0  0.00000000000E+00  0.00000000000E+00  0.45593999997E+02  0.45594000000E+02  0.51100000000E-03 0. -1.
         11   -1    0    0    0    0 -0.00000000000E+00 -0.00000000000E+00 -0.45593999997E+02  0.45594000000E+02  0.51100000000E-03 0.  1.
    9900012    2    1    2    0    0 -0.50444279907E+00  0.94143067336E+00  0.50338211574E+00  0.90007259637E+02  0.89999514663E+02 0.  0.
        -12    1    1    2    0    0  0.50444279907E+00 -0.94143067336E+00 -0.50338211574E+00  0.11807403630E+01  0.00000000000E+00 0.  1.
         11    1    3    3    0    0 -0.38175360413E+01  0.12299811318E+02  0.24655349516E+02  0.27816275810E+02  0.51100000000E-03 0. -1.
        -11    1    3    3    0    0 -0.73151276094E+01 -0.19583575945E+02  0.11662316767E+02  0.23938194823E+02  0.51100000000E-03 0.  1.
        -12    1    3    3    0    0  0.10628220852E+02  0.82251953005E+01 -0.35814284167E+02  0.38252789004E+02  0.00000000000E+00 0.  1.
</event>
<event>
 7    1  0.1756449E-015  0.9000777E+02  0.7816164E-02  0.1186339E+00
        -11   -1    0    0    0    0  0.00000000000E+00  0.00000000000E+00  0.45593999997E+02  0.45594000000E+02  0.51100000000E-03 0.  1.
         11   -1    0    0    0    0 -0.00000000000E+00 -0.00000000000E+00 -0.45593999997E+02  0.45594000000E+02  0.51100000000E-03 0. -1.
    9900012    2    1    2    0    0  0.27780606089E+00  0.11419036683E+01 -0.10875205655E+00  0.90007768156E+02  0.90000029896E+02 0.  0.
        -12    1    1    2    0    0 -0.27780606089E+00 -0.11419036683E+01  0.10875205655E+00  0.11802318437E+01  0.00000000000E+00 0.  1.
         11    1    3    3    0    0 -0.44790817459E+01 -0.10695906722E+02 -0.29586946580E+01  0.11967391872E+02  0.51100000000E-03 0. -1.
        -11    1    3    3    0    0 -0.82625210766E+01  0.28330433927E+02 -0.28022522216E+02  0.40695755216E+02  0.51100000000E-03 0.  1.
         12    1    3    3    0    0  0.13019408883E+02 -0.16492623537E+02  0.30872464817E+02  0.37344621068E+02  0.00000000000E+00 0. -1.
</event>
<event>
 7    1  0.1756449E-015  0.9000774E+02  0.7816164E-02  0.1186339E+00
        -11   -1    0    0    0    0  0.00000000000E+00  0.00000000000E+00  0.45593999997E+02  0.45594000000E+02  0.51100000000E-03 0.  1.
         11   -1    0    0    0    0 -0.00000000000E+00 -0.00000000000E+00 -0.45593999997E+02  0.45594000000E+02  0.51100000000E-03 0. -1.
    9900012    2    1    2    0    0  0.20426691814E+00  0.11604400779E+01  0.68356613734E-01  0.90007737836E+02  0.89999999176E+02 0.  0.
        -12    1    1    2    0    0 -0.20426691814E+00 -0.11604400779E+01 -0.68356613734E-01  0.11802621636E+01  0.00000000000E+00 0.  1.
         11    1    3    3    0    0  0.30484554996E+01  0.65230639319E+01 -0.60256773656E+01  0.93889420047E+01  0.51100000000E-03 0. -1.
        -11    1    3    3    0    0  0.33244312193E+02 -0.23482779087E+01 -0.17255902337E+02  0.37529519955E+02  0.51100000000E-03 0.  1.
         12    1    3    3    0    0 -0.36088500774E+02 -0.30143459453E+01  0.23349936317E+02  0.43089275877E+02  0.00000000000E+00 0. -1.
</event>
<event>
 7    1  0.1896091E-015  0.9000729E+02  0.7816164E-02  0.1186340E+00
        -11   -1    0    0    0    0  0.00000000000E+00  0.00000000000E+00  0.45593999997E+02  0.45594000000E+02  0.51100000000E-03 0.  1.
         11   -1    0    0    0    0 -0.00000000000E+00 -0.00000000000E+00 -0.45593999997E+02  0.45594000000E+02  0.51100000000E-03 0. -1.
    9900012    2    1    2    0    0  0.80072357255E+00 -0.85962071986E+00  0.11819559901E+00  0.90007289950E+02  0.89999545377E+02 0.  0.
        -12    1    1    2    0    0 -0.80072357255E+00  0.85962071986E+00 -0.11819559901E+00  0.11807100496E+01  0.00000000000E+00 0.  1.
         11    1    3    3    0    0  0.21791137288E+01 -0.89817504364E+01  0.20157194563E+01  0.94595720164E+01  0.51100000000E-03 0. -1.
        -11    1    3    3    0    0  0.70451259114E+01 -0.15842524983E+02  0.33062865882E+02  0.37333262615E+02  0.51100000000E-03 0.  1.
         12    1    3    3    0    0 -0.84235160676E+01  0.23964654699E+02 -0.34960389739E+02  0.43214455319E+02  0.00000000000E+00 0. -1.
</event>
<event>
 7    1  0.1756449E-015  0.9000776E+02  0.7816164E-02  0.1186339E+00
        -11   -1    0    0    0    0  0.00000000000E+00  0.00000000000E+00  0.45593999997E+02  0.45594000000E+02  0.51100000000E-03 0.  1.
         11   -1    0    0    0    0 -0.00000000000E+00 -0.00000000000E+00 -0.45593999997E+02  0.45594000000E+02  0.51100000000E-03 0. -1.
    9900012    2    1    2    0    0 -0.96936443710E-01  0.95983793915E+00 -0.67991571529E+00  0.90007758108E+02  0.90000019715E+02 0.  0.
        -12    1    1    2    0    0  0.96936443710E-01 -0.95983793915E+00  0.67991571529E+00  0.11802418919E+01  0.00000000000E+00 0.  1.
         11    1    3    3    0    0  0.65207975297E+01  0.76341241371E+01  0.14923304782E+01  0.10150256267E+02  0.51100000000E-03 0. -1.
        -11    1    3    3    0    0  0.25327182302E+02  0.27938736094E+01  0.25867955383E+02  0.36310095140E+02  0.51100000000E-03 0.  1.
         12    1    3    3    0    0 -0.31944916275E+02 -0.94681598072E+01 -0.28040201577E+02  0.43547406702E+02  0.00000000000E+00 0. -1.
</event>
<event>
 7    1  0.1756449E-015  0.9000773E+02  0.7816164E-02  0.1186339E+00
        -11   -1    0    0    0    0  0.00000000000E+00  0.00000000000E+00  0.45593999997E+02  0.45594000000E+02  0.51100000000E-03 0.  1.
         11   -1    0    0    0    0 -0.00000000000E+00 -0.00000000000E+00 -0.45593999997E+02  0.45594000000E+02  0.51100000000E-03 0. -1.
    9900012    2    1    2    0    0  0.47884585390E+00 -0.74756592583E+00  0.77774615905E+00  0.90007730008E+02  0.89999991244E+02 0.  0.
        -12    1    1    2    0    0 -0.47884585390E+00  0.74756592583E+00 -0.77774615905E+00  0.11802699916E+01  0.00000000000E+00 0.  1.
         11    1    3    3    0    0 -0.25712017703E+01 -0.22722255322E+02 -0.30557382768E+02  0.38166288886E+02  0.51100000000E-03 0. -1.
        -11    1    3    3    0    0 -0.91019269571E+01 -0.46835347488E+01  0.20934436181E+01  0.10448113634E+02  0.51100000000E-03 0.  1.
        -12    1    3    3    0    0  0.12151974581E+02  0.26658224145E+02  0.29241685309E+02  0.41393327488E+02  0.00000000000E+00 0.  1.
</event>
<event>
 7    1  0.1756449E-015  0.9000775E+02  0.7816164E-02  0.1186339E+00
        -11   -1    0    0    0    0  0.00000000000E+00  0.00000000000E+00  0.45593999997E+02  0.45594000000E+02  0.51100000000E-03 0.  1.
         11   -1    0    0    0    0 -0.00000000000E+00 -0.00000000000E+00 -0.45593999997E+02  0.45594000000E+02  0.51100000000E-03 0. -1.
    9900012    2    1    2    0    0 -0.14561086997E+00  0.66081061809E+00 -0.96701328400E+00  0.90007750920E+02  0.90000012433E+02 0.  0.
        -12    1    1    2    0    0  0.14561086997E+00 -0.66081061809E+00  0.96701328400E+00  0.11802490796E+01  0.00000000000E+00 0.  1.
         11    1    3    3    0    0  0.13049186148E+02 -0.95654038938E+01 -0.38535996656E+02  0.41794751457E+02  0.51100000000E-03 0. -1.
        -11    1    3    3    0    0  0.30373546361E+01 -0.63184651743E+01  0.78579247175E+01  0.10530693542E+02  0.51100000000E-03 0.  1.
        -12    1    3    3    0    0 -0.16232151654E+02  0.16544679686E+02  0.29711058655E+02  0.37682305922E+02  0.00000000000E+00 0.  1.
</event>
<event>
 7    1  0.1756449E-015  0.9000772E+02  0.7816164E-02  0.1186339E+00
        -11   -1    0    0    0    0  0.00000000000E+00  0.00000000000E+00  0.45593999997E+02  0.45594000000E+02  0.51100000000E-03 0.  1.
         11   -1    0    0    0    0 -0.00000000000E+00 -0.00000000000E+00 -0.45593999997E+02  0.45594000000E+02  0.51100000000E-03 0. -1.
    9900012    2    1    2    0    0 -0.10395646992E+01 -0.22036788682E+00 -0.51361349188E+00  0.90007722241E+02  0.89999983375E+02 0.  0.
        -12    1    1    2    0    0  0.10395646992E+01  0.22036788682E+00  0.51361349188E+00  0.11802777590E+01  0.00000000000E+00 0.  1.
         11    1    3    3    0    0  0.20536336514E+02  0.16475867629E+02  0.20892947452E+02  0.33611167564E+02  0.51100000000E-03 0. -1.
        -11    1    3    3    0    0  0.17446287628E+01  0.98126911341E+01  0.60599113925E+01  0.11664268651E+02  0.51100000000E-03 0.  1.
        -12    1    3    3    0    0 -0.23320529976E+02 -0.26508926650E+02 -0.27466472336E+02  0.44732286026E+02  0.00000000000E+00 0.  1.
</event>
<event>
 7    1  0.1756449E-015  0.9000776E+02  0.7816164E-02  0.1186339E+00
        -11   -1    0    0    0    0  0.00000000000E+00  0.00000000000E+00  0.45593999997E+02  0.45594000000E+02  0.51100000000E-03 0. -1.
         11   -1    0    0    0    0 -0.00000000000E+00 -0.00000000000E+00 -0.45593999997E+02  0.45594000000E+02  0.51100000000E-03 0.  1.
    9900012    2    1    2    0    0 -0.77696570922E+00  0.10329899528E+00  0.88239255131E+00  0.90007761460E+02  0.90000023112E+02 0.  0.
        -12    1    1    2    0    0  0.77696570922E+00 -0.10329899528E+00 -0.88239255131E+00  0.11802385396E+01  0.00000000000E+00 0.  1.
         11    1    3    3    0    0  0.36255791234E+00 -0.36313138848E+02  0.11520878245E+02  0.38098636945E+02  0.51100000000E-03 0. -1.
        -11    1    3    3    0    0  0.85366108701E+01 -0.35793737326E+01  0.52678678913E+00  0.92716312506E+01  0.51100000000E-03 0.  1.
        -12    1    3    3    0    0 -0.96761344917E+01  0.39995811576E+02 -0.11165272482E+02  0.42637493265E+02  0.00000000000E+00 0.  1.
</event>
<event>
 7    1  0.1756449E-015  0.9000784E+02  0.7816164E-02  0.1186339E+00
        -11   -1    0    0    0    0  0.00000000000E+00  0.00000000000E+00  0.45593999997E+02  0.45594000000E+02  0.51100000000E-03 0.  1.
         11   -1    0    0    0    0 -0.00000000000E+00 -0.00000000000E+00 -0.45593999997E+02  0.45594000000E+02  0.51100000000E-03 0. -1.
    9900012    2    1    2    0    0 -0.80611000737E+00  0.27477662892E+00 -0.81698743444E+00  0.90007837296E+02  0.90000099948E+02 0.  0.
        -12    1    1    2    0    0  0.80611000737E+00 -0.27477662892E+00  0.81698743444E+00  0.11801627040E+01  0.00000000000E+00 0.  1.
         11    1    3    3    0    0  0.48977043649E+01 -0.13658033831E+01 -0.11438424773E+02  0.12517607139E+02  0.51100000000E-03 0. -1.
        -11    1    3    3    0    0 -0.40506035012E+00  0.30260147395E+02  0.29928910489E+02  0.42562662952E+02  0.51100000000E-03 0.  1.
         12    1    3    3    0    0 -0.52987540222E+01 -0.28619567383E+02 -0.19307473151E+02  0.34927567205E+02  0.00000000000E+00 0. -1.
</event>
<event>
 7    1  0.1756449E-015  0.9000767E+02  0.7816164E-02  0.1186339E+00
        -11   -1    0    0    0    0  0.00000000000E+00  0.00000000000E+00  0.45593999997E+02  0.45594000000E+02  0.51100000000E-03 0. -1.
         11   -1    0    0    0    0 -0.00000000000E+00 -0.00000000000E+00 -0.45593999997E+02  0.45594000000E+02  0.51100000000E-03 0.  1.
    9900012    2    1    2    0    0 -0.10616208647E+00 -0.32503741006E+00  0.11297216296E+01  0.90007665019E+02  0.89999925397E+02 0.  0.
        -12    1    1    2    0    0  0.10616208647E+00  0.32503741006E+00 -0.11297216296E+01  0.11803349808E+01  0.00000000000E+00 0.  1.
         11    1    3    3    0    0  0.33367142663E+02 -0.19825757491E+02 -0.94766153978E+01  0.39952886119E+02  0.51100000000E-03 0. -1.
        -11    1    3    3    0    0 -0.14142941099E+01 -0.66564597130E+01  0.46740104634E+01  0.82556076587E+01  0.51100000000E-03 0.  1.
        -12    1    3    3    0    0 -0.32059010640E+02  0.26157179794E+02  0.59323265641E+01  0.41799171241E+02  0.00000000000E+00 0.  1.
</event>
<event>
 7    1  0.1756449E-015  0.9000764E+02  0.7816164E-02  0.1186339E+00
        -11   -1    0    0    0    0  0.00000000000E+00  0.00000000000E+00  0.45593999997E+02  0.45594000000E+02  0.51100000000E-03 0.  1.
         11   -1    0    0    0    0 -0.00000000000E+00 -0.00000000000E+00 -0.45593999997E+02  0.45594000000E+02  0.51100000000E-03 0. -1.
    9900012    2    1    2    0    0 -0.35822960734E+00  0.10724982372E+01  0.33862117229E+00  0.90007641911E+02  0.89999901984E+02 0.  0.
        -12    1    1    2    0    0  0.35822960734E+00 -0.10724982372E+01 -0.33862117229E+00  0.11803580892E+01  0.00000000000E+00 0.  1.
         11    1    3    3    0    0  0.32736353317E+02 -0.64111306376E+00 -0.23410101024E+02  0.40250623407E+02  0.51100000000E-03 0. -1.
        -11    1    3    3    0    0 -0.15761834798E+01  0.82695193147E+01 -0.18591484565E+01  0.86212375737E+01  0.51100000000E-03 0.  1.
        -12    1    3    3    0    0 -0.31518399444E+02 -0.65559080137E+01  0.25607870652E+02  0.41135780930E+02  0.00000000000E+00 0.  1.
</event>
<event>
 7    1  0.1756449E-015  0.9000762E+02  0.7816164E-02  0.1186339E+00
        -11   -1    0    0    0    0  0.00000000000E+00  0.00000000000E+00  0.45593999997E+02  0.45594000000E+02  0.51100000000E-03 0. -1.
         11   -1    0    0    0    0 -0.00000000000E+00 -0.00000000000E+00 -0.45593999997E+02  0.45594000000E+02  0.51100000000E-03 0.  1.
    9900012    2    1    2    0    0 -0.29274035698E+00  0.11424130076E+01 -0.50020153355E-01  0.90007615990E+02  0.89999875721E+02 0.  0.
        -12    1    1    2    0    0  0.29274035698E+00 -0.11424130076E+01  0.50020153355E-01  0.11803840105E+01  0.00000000000E+00 0.  1.
         11    1    3    3    0    0  0.36217824597E+02  0.61630637884E+01  0.60761489844E+01  0.37237531612E+02  0.51100000000E-03 0. -1.
        -11    1    3    3    0    0 -0.27750474170E+01  0.13478800774E+02 -0.35338464404E+01  0.14207991744E+02  0.51100000000E-03 0.  1.
        -12    1    3    3    0    0 -0.33735517537E+02 -0.18499451555E+02 -0.25923226974E+01  0.38562092634E+02  0.00000000000E+00 0.  1.
</event>
<event>
 7    1  0.1756449E-015  0.9000776E+02  0.7816164E-02  0.1186339E+00
        -11   -1    0    0    0    0  0.00000000000E+00  0.00000000000E+00  0.45593999997E+02  0.45594000000E+02  0.51100000000E-03 0. -1.
         11   -1    0    0    0    0 -0.00000000000E+00 -0.00000000000E+00 -0.45593999997E+02  0.45594000000E+02  0.51100000000E-03 0.  1.
    9900012    2    1    2    0    0  0.35233944076E+00 -0.11122957457E+01 -0.17785255372E+00  0.90007755772E+02  0.90000017348E+02 0.  0.
        -12    1    1    2    0    0 -0.35233944076E+00  0.11122957457E+01  0.17785255372E+00  0.11802442282E+01  0.00000000000E+00 0.  1.
         11    1    3    3    0    0  0.16236400881E+02  0.18052986396E+02  0.53232630813E+01  0.24856953986E+02  0.51100000000E-03 0. -1.
        -11    1    3    3    0    0 -0.34379366059E+01 -0.24881759167E+01  0.26577274926E+02  0.26913973513E+02  0.51100000000E-03 0.  1.
        -12    1    3    3    0    0 -0.12446124834E+02 -0.16677106225E+02 -0.32078390561E+02  0.38236828273E+02  0.00000000000E+00 0.  1.
</event>
<event>
 7    1  0.1756449E-015  0.9000777E+02  0.7816164E-02  0.1186339E+00
        -11   -1    0    0    0    0  0.00000000000E+00  0.00000000000E+00  0.45593999997E+02  0.45594000000E+02  0.51100000000E-03 0.  1.
         11   -1    0    0    0    0 -0.00000000000E+00 -0.00000000000E+00 -0.45593999997E+02  0.45594000000E+02  0.51100000000E-03 0. -1.
    9900012    2    1    2    0    0  0.93032223483E+00  0.62061593260E+00 -0.37721409549E+00  0.90007765248E+02  0.90000026949E+02 0.  0.
        -12    1    1    2    0    0 -0.93032223483E+00 -0.62061593260E+00  0.37721409549E+00  0.11802347522E+01  0.00000000000E+00 0.  1.
         11    1    3    3    0    0 -0.22150768449E+01 -0.34695509196E+01  0.67800655275E+01  0.79318117621E+01  0.51100000000E-03 0. -1.
        -11    1    3    3    0    0  0.41211405751E+02 -0.69764867416E+01 -0.73183026095E+01  0.42433582038E+02  0.51100000000E-03 0.  1.
         12    1    3    3    0    0 -0.38066006671E+02  0.11066653594E+02  0.16102298657E+00  0.39642371448E+02  0.00000000000E+00 0. -1.
</event>
<event>
 7    1  0.1756449E-015  0.9000775E+02  0.7816164E-02  0.1186339E+00
        -11   -1    0    0    0    0  0.00000000000E+00  0.00000000000E+00  0.45593999997E+02  0.45594000000E+02  0.51100000000E-03 0.  1.
         11   -1    0    0    0    0 -0.00000000000E+00 -0.00000000000E+00 -0.45593999997E+02  0.45594000000E+02  0.51100000000E-03 0. -1.
    9900012    2    1    2    0    0 -0.26777283490E+00  0.66101518233E+00 -0.94039970503E+00  0.90007747922E+02  0.90000009395E+02 0.  0.
        -12    1    1    2    0    0  0.26777283490E+00 -0.66101518233E+00  0.94039970503E+00  0.11802520780E+01  0.00000000000E+00 0.  1.
         11    1    3    3    0    0  0.44742202933E+00  0.87217356774E+01  0.31458582121E+01  0.92825257258E+01  0.51100000000E-03 0. -1.
        -11    1    3    3    0    0  0.89767986595E+01  0.32128676179E+02 -0.16963571698E+02  0.37424557609E+02  0.51100000000E-03 0.  1.
         12    1    3    3    0    0 -0.96919935237E+01 -0.40189396674E+02  0.12877313781E+02  0.43300664587E+02  0.00000000000E+00 0. -1.
</event>
<event>
 7    1  0.1756449E-015  0.9000773E+02  0.7816164E-02  0.1186339E+00
        -11   -1    0    0    0    0  0.00000000000E+00  0.00000000000E+00  0.45593999997E+02  0.45594000000E+02  0.51100000000E-03 0.  1.
         11   -1    0    0    0    0 -0.00000000000E+00 -0.00000000000E+00 -0.45593999997E+02  0.45594000000E+02  0.51100000000E-03 0. -1.
    9900012    2    1    2    0    0 -0.26459456719E-02  0.10300504741E+01 -0.57621891719E+00  0.90007729175E+02  0.89999990400E+02 0.  0.
        -12    1    1    2    0    0  0.26459456719E-02 -0.10300504741E+01  0.57621891719E+00  0.11802708252E+01  0.00000000000E+00 0.  1.
         11    1    3    3    0    0  0.18549288896E+02 -0.33530229764E+02  0.13044172049E+02  0.40478424516E+02  0.51100000000E-03 0. -1.
        -11    1    3    3    0    0 -0.10154033321E+02 -0.14234342945E+01 -0.32173845394E+00  0.10258366038E+02  0.51100000000E-03 0.  1.
        -12    1    3    3    0    0 -0.83979015207E+01  0.35983714533E+02 -0.13298652512E+02  0.39270938621E+02  0.00000000000E+00 0.  1.
</event>
<event>
 7    1  0.1756449E-015  0.9000768E+02  0.7816164E-02  0.1186339E+00
        -11   -1    0    0    0    0  0.00000000000E+00  0.00000000000E+00  0.45593999997E+02  0.45594000000E+02  0.51100000000E-03 0. -1.
         11   -1    0    0    0    0 -0.00000000000E+00 -0.00000000000E+00 -0.45593999997E+02  0.45594000000E+02  0.51100000000E-03 0.  1.
    9900012    2    1    2    0    0  0.44520324689E+00 -0.19462047851E+00  0.10756682132E+01  0.90007684294E+02  0.89999944926E+02 0.  0.
        -12    1    1    2    0    0 -0.44520324689E+00  0.19462047851E+00 -0.10756682132E+01  0.11803157063E+01  0.00000000000E+00 0.  1.
         11    1    3    3    0    0  0.65853734128E+01 -0.28660830179E+02  0.24537904460E+02  0.38300379699E+02  0.51100000000E-03 0. -1.
        -11    1    3    3    0    0  0.27404131495E+01  0.34293603350E+01  0.88487485399E+01  0.98777896070E+01  0.51100000000E-03 0.  1.
        -12    1    3    3    0    0 -0.88805833154E+01  0.25036849366E+02 -0.32310984787E+02  0.41829514987E+02  0.00000000000E+00 0.  1.
</event>
<event>
 7    1  0.1756449E-015  0.9000781E+02  0.7816164E-02  0.1186339E+00
        -11   -1    0    0    0    0  0.00000000000E+00  0.00000000000E+00  0.45593999997E+02  0.45594000000E+02  0.51100000000E-03 0.  1.
         11   -1    0    0    0    0 -0.00000000000E+00 -0.00000000000E+00 -0.45593999997E+02  0.45594000000E+02  0.51100000000E-03 0. -1.
    9900012    2    1    2    0    0 -0.34886870320E+00  0.84785139180E+00 -0.74316541619E+00  0.90007806715E+02  0.90000068963E+02 0.  0.
        -12    1    1    2    0    0  0.34886870320E+00 -0.84785139180E+00  0.74316541619E+00  0.11801932852E+01  0.00000000000E+00 0.  1.
         11    1    3    3    0    0 -0.58808038606E+01 -0.57639178480E+01  0.24571466376E+01  0.85932632256E+01  0.51100000000E-03 0. -1.
        -11    1    3    3    0    0  0.73750176975E+01 -0.34438207578E+02  0.12578504109E+02  0.37397858136E+02  0.51100000000E-03 0.  1.
         12    1    3    3    0    0 -0.18430825401E+01  0.41049976818E+02 -0.15778816163E+02  0.44016685354E+02  0.00000000000E+00 0. -1.
</event>
<event>
 7    1  0.1756449E-015  0.9000768E+02  0.7816164E-02  0.1186339E+00
        -11   -1    0    0    0    0  0.00000000000E+00  0.00000000000E+00  0.45593999997E+02  0.45594000000E+02  0.51100000000E-03 0.  1.
         11   -1    0    0    0    0 -0.00000000000E+00 -0.00000000000E+00 -0.45593999997E+02  0.45594000000E+02  0.51100000000E-03 0. -1.
    9900012    2    1    2    0    0 -0.82741876403E-01  0.63345563052E+00 -0.99249092137E+00  0.90007682042E+02  0.89999942645E+02 0.  0.
        -12    1    1    2    0    0  0.82741876403E-01 -0.63345563052E+00  0.99249092137E+00  0.11803179584E+01  0.00000000000E+00 0.  1.
         11    1    3    3    0    0 -0.52758543540E+01 -0.70940281625E+01 -0.10269965582E+01  0.89002582506E+01  0.51100000000E-03 0. -1.
        -11    1    3    3    0    0 -0.92002625925E+01 -0.27928632624E+02  0.22091282767E+02  0.36778772771E+02  0.51100000000E-03 0.  1.
         12    1    3    3    0    0  0.14393375070E+02  0.35656116417E+02 -0.22056777130E+02  0.44328651020E+02  0.00000000000E+00 0. -1.
</event>
<event>
 7    1  0.1756449E-015  0.9000766E+02  0.7816164E-02  0.1186339E+00
        -11   -1    0    0    0    0  0.00000000000E+00  0.00000000000E+00  0.45593999997E+02  0.45594000000E+02  0.51100000000E-03 0.  1.
         11   -1    0    0    0    0 -0.00000000000E+00 -0.00000000000E+00 -0.45593999997E+02  0.45594000000E+02  0.51100000000E-03 0. -1.
    9900012    2    1    2    0    0  0.90179108635E+00 -0.11023162454E+00 -0.75354733555E+00  0.90007656083E+02  0.89999916344E+02 0.  0.
        -12    1    1    2    0    0 -0.90179108635E+00  0.11023162454E+00  0.75354733555E+00  0.11803439166E+01  0.00000000000E+00 0.  1.
         11    1    3    3    0    0  0.31926727794E+02  0.26047720544E+01  0.65719543298E+01  0.32700020934E+02  0.51100000000E-03 0. -1.
        -11    1    3    3    0    0  0.79627609565E+01  0.17094499785E+01  0.11255173490E+02  0.13892685552E+02  0.51100000000E-03 0.  1.
        -12    1    3    3    0    0 -0.38987697665E+02 -0.44244536574E+01 -0.18580675155E+02  0.43414949598E+02  0.00000000000E+00 0.  1.
</event>
<event>
 7    1  0.1756449E-015  0.9000774E+02  0.7816164E-02  0.1186339E+00
        -11   -1    0    0    0    0  0.00000000000E+00  0.00000000000E+00  0.45593999997E+02  0.45594000000E+02  0.51100000000E-03 0. -1.
         11   -1    0    0    0    0 -0.00000000000E+00 -0.00000000000E+00 -0.45593999997E+02  0.45594000000E+02  0.51100000000E-03 0.  1.
    9900012    2    1    2    0    0 -0.49559893642E-01  0.93682517185E+00  0.71618493900E+00  0.90007737973E+02  0.89999999314E+02 0.  0.
        -12    1    1    2    0    0  0.49559893642E-01 -0.93682517185E+00 -0.71618493900E+00  0.11802620271E+01  0.00000000000E+00 0.  1.
         11    1    3    3    0    0 -0.58171841933E+01 -0.64635428904E+01  0.18049296883E+01  0.88811480156E+01  0.51100000000E-03 0. -1.
        -11    1    3    3    0    0 -0.17960597592E+02 -0.14975715828E+02 -0.29658100468E+02  0.37768479637E+02  0.51100000000E-03 0.  1.
         12    1    3    3    0    0  0.23728221892E+02  0.22376083890E+02  0.28569355719E+02  0.43358110321E+02  0.00000000000E+00 0. -1.
</event>
<event>
 7    1  0.1756449E-015  0.9000767E+02  0.7816164E-02  0.1186339E+00
        -11   -1    0    0    0    0  0.00000000000E+00  0.00000000000E+00  0.45593999997E+02  0.45594000000E+02  0.51100000000E-03 0.  1.
         11   -1    0    0    0    0 -0.00000000000E+00 -0.00000000000E+00 -0.45593999997E+02  0.45594000000E+02  0.51100000000E-03 0. -1.
    9900012    2    1    2    0    0 -0.52625696103E-01  0.63122473689E-01 -0.11774662987E+01  0.90007669201E+02  0.89999929634E+02 0.  0.
        -12    1    1    2    0    0  0.52625696103E-01 -0.63122473689E-01  0.11774662987E+01  0.11803307990E+01  0.00000000000E+00 0.  1.
         11    1    3    3    0    0  0.89759978969E+01 -0.34589575184E+02 -0.11368798473E+02  0.37500091049E+02  0.51100000000E-03 0. -1.
        -11    1    3    3    0    0 -0.16573395448E+01 -0.79424828902E+01  0.31795090369E+01  0.87143035754E+01  0.51100000000E-03 0.  1.
        -12    1    3    3    0    0 -0.73712840482E+01  0.42595180548E+02  0.70118231370E+01  0.43793274577E+02  0.00000000000E+00 0.  1.
</event>
<event>
 7    1  0.1756449E-015  0.9000775E+02  0.7816164E-02  0.1186339E+00
        -11   -1    0    0    0    0  0.00000000000E+00  0.00000000000E+00  0.45593999997E+02  0.45594000000E+02  0.51100000000E-03 0. -1.
         11   -1    0    0    0    0 -0.00000000000E+00 -0.00000000000E+00 -0.45593999997E+02  0.45594000000E+02  0.51100000000E-03 0.  1.
    9900012    2    1    2    0    0  0.87076385383E+00  0.43197233691E+00  0.66944560342E+00  0.90007751211E+02  0.90000012727E+02 0.  0.
        -12    1    1    2    0    0 -0.87076385383E+00 -0.43197233691E+00 -0.66944560342E+00  0.11802487894E+01  0.00000000000E+00 0.  1.
         11    1    3    3    0    0  0.55836969472E+01  0.51201792889E+01  0.60954567372E+01  0.97236053316E+01  0.51100000000E-03 0. -1.
        -11    1    3    3    0    0  0.23018255115E+02 -0.26405931487E+02  0.16575764771E+02  0.38753958046E+02  0.51100000000E-03 0.  1.
         12    1    3    3    0    0 -0.27731188209E+02  0.21717724535E+02 -0.22001775905E+02  0.41530187833E+02  0.00000000000E+00 0. -1.
</event>
<event>
 7    1  0.1756449E-015  0.9000767E+02  0.7816164E-02  0.1186339E+00
        -11   -1    0    0    0    0  0.00000000000E+00  0.00000000000E+00  0.45593999997E+02  0.45594000000E+02  0.51100000000E-03 0.  1.
         11   -1    0    0    0    0 -0.00000000000E+00 -0.00000000000E+00 -0.45593999997E+02  0.45594000000E+02  0.51100000000E-03 0. -1.
    9900012    2    1    2    0    0 -0.11495073188E+01 -0.10451598914E+00  0.24674010049E+00  0.90007673204E+02  0.89999933690E+02 0.  0.
        -12    1    1    2    0    0  0.11495073188E+01  0.10451598914E+00 -0.24674010049E+00  0.11803267959E+01  0.00000000000E+00 0.  1.
         11    1    3    3    0    0  0.12619224105E+02  0.13571783154E+02  0.82284087514E+00  0.18550341840E+02  0.51100000000E-03 0. -1.
        -11    1    3    3    0    0 -0.26008921157E+02 -0.18584880002E+01  0.27961288322E+02  0.38232860242E+02  0.51100000000E-03 0.  1.
         12    1    3    3    0    0  0.12240189733E+02 -0.11817811143E+02 -0.28537389096E+02  0.33224471122E+02  0.00000000000E+00 0. -1.
</event>
<event>
 7    1  0.1756449E-015  0.9000798E+02  0.7816164E-02  0.1186339E+00
        -11   -1    0    0    0    0  0.00000000000E+00  0.00000000000E+00  0.45593999997E+02  0.45594000000E+02  0.51100000000E-03 0. -1.
         11   -1    0    0    0    0 -0.00000000000E+00 -0.00000000000E+00 -0.45593999997E+02  0.45594000000E+02  0.51100000000E-03 0.  1.
    9900012    2    1    2    0    0 -0.62748717238E+00  0.94914363551E+00  0.31277927629E+00  0.90007981073E+02  0.90000245623E+02 0.  0.
        -12    1    1    2    0    0  0.62748717238E+00 -0.94914363551E+00 -0.31277927629E+00  0.11800189270E+01  0.00000000000E+00 0.  1.
         11    1    3    3    0    0 -0.38487690511E+02 -0.13508949800E+02 -0.65995174389E+01  0.41320063846E+02  0.51100000000E-03 0. -1.
        -11    1    3    3    0    0  0.28279410878E+01  0.61659890584E+01 -0.73168482262E+01  0.99776219657E+01  0.51100000000E-03 0.  1.
        -12    1    3    3    0    0  0.35032262251E+02  0.82921043769E+01  0.14229144941E+02  0.38710295261E+02  0.00000000000E+00 0.  1.
</event>
<event>
 7    1  0.1756449E-015  0.9000766E+02  0.7816164E-02  0.1186339E+00
        -11   -1    0    0    0    0  0.00000000000E+00  0.00000000000E+00  0.45593999997E+02  0.45594000000E+02  0.51100000000E-03 0. -1.
         11   -1    0    0    0    0 -0.00000000000E+00 -0.00000000000E+00 -0.45593999997E+02  0.45594000000E+02  0.51100000000E-03 0.  1.
    9900012    2    1    2    0    0 -0.67799008969E-01 -0.16340795816E-01  0.11782810106E+01  0.90007656886E+02  0.89999917157E+02 0.  0.
        -12    1    1    2    0    0  0.67799008969E-01  0.16340795816E-01 -0.11782810106E+01  0.11803431142E+01  0.00000000000E+00 0.  1.
         11    1    3    3    0    0  0.16255058194E+02 -0.31195494707E+02  0.19293081502E+02  0.40119930221E+02  0.51100000000E-03 0. -1.
        -11    1    3    3    0    0  0.84090690867E+01  0.41676281906E+01 -0.92519030350E+00  0.94306704427E+01  0.51100000000E-03 0.  1.
        -12    1    3    3    0    0 -0.24731926289E+02  0.27011525720E+02 -0.17189610187E+02  0.40457056222E+02  0.00000000000E+00 0.  1.
</event>
<event>
 7    1  0.1756449E-015  0.9000773E+02  0.7816164E-02  0.1186339E+00
        -11   -1    0    0    0    0  0.00000000000E+00  0.00000000000E+00  0.45593999997E+02  0.45594000000E+02  0.51100000000E-03 0.  1.
         11   -1    0    0    0    0 -0.00000000000E+00 -0.00000000000E+00 -0.45593999997E+02  0.45594000000E+02  0.51100000000E-03 0. -1.
    9900012    2    1    2    0    0 -0.45077086895E+00 -0.27744843757E+00 -0.10549233636E+01  0.90007730830E+02  0.89999992076E+02 0.  0.
        -12    1    1    2    0    0  0.45077086895E+00  0.27744843757E+00  0.10549233636E+01  0.11802691705E+01  0.00000000000E+00 0.  1.
         11    1    3    3    0    0  0.79143298858E+01  0.23913755892E+01 -0.59513268005E+00  0.82891180422E+01  0.51100000000E-03 0. -1.
        -11    1    3    3    0    0  0.24808583745E+02  0.11989489799E+02  0.25161348644E+02  0.37313632347E+02  0.51100000000E-03 0.  1.
         12    1    3    3    0    0 -0.33173684500E+02 -0.14658313826E+02 -0.25621139327E+02  0.44404980441E+02  0.00000000000E+00 0. -1.
</event>
<event>
 7    1  0.1756449E-015  0.9000705E+02  0.7816164E-02  0.1186340E+00
        -11   -1    0    0    0    0  0.00000000000E+00  0.00000000000E+00  0.45593999997E+02  0.45594000000E+02  0.51100000000E-03 0. -1.
         11   -1    0    0    0    0 -0.00000000000E+00 -0.00000000000E+00 -0.45593999997E+02  0.45594000000E+02  0.51100000000E-03 0.  1.
    9900012    2    1    2    0    0  0.64379768718E+00 -0.85493852383E+00  0.49924940872E+00  0.90007048979E+02  0.89999301223E+02 0.  0.
        -12    1    1    2    0    0 -0.64379768718E+00  0.85493852383E+00 -0.49924940872E+00  0.11809510209E+01  0.00000000000E+00 0.  1.
         11    1    3    3    0    0 -0.71945807002E+01 -0.57272929771E+01 -0.40606311446E+01  0.10052492320E+02  0.51100000000E-03 0. -1.
        -11    1    3    3    0    0 -0.34731216787E+02  0.10814529528E+02 -0.22068335534E+01  0.36442853662E+02  0.51100000000E-03 0.  1.
         12    1    3    3    0    0  0.42569595174E+02 -0.59421750749E+01  0.67667141066E+01  0.43511702997E+02  0.00000000000E+00 0. -1.
</event>
<event>
 7    1  0.1756449E-015  0.9000778E+02  0.7816164E-02  0.1186339E+00
        -11   -1    0    0    0    0  0.00000000000E+00  0.00000000000E+00  0.45593999997E+02  0.45594000000E+02  0.51100000000E-03 0.  1.
         11   -1    0    0    0    0 -0.00000000000E+00 -0.00000000000E+00 -0.45593999997E+02  0.45594000000E+02  0.51100000000E-03 0. -1.
    9900012    2    1    2    0    0  0.82488518622E+00  0.45608461088E+00 -0.71025733227E+00  0.90007782130E+02  0.90000044054E+02 0.  0.
        -12    1    1    2    0    0 -0.82488518622E+00 -0.45608461088E+00  0.71025733227E+00  0.11802178700E+01  0.00000000000E+00 0.  1.
         11    1    3    3    0    0 -0.15445860346E+02 -0.28770167846E+02 -0.27489127648E+02  0.42684298035E+02  0.51100000000E-03 0. -1.
        -11    1    3    3    0    0 -0.39419895958E+01  0.33691534895E+01  0.79332966885E+01  0.94777462415E+01  0.51100000000E-03 0.  1.
        -12    1    3    3    0    0  0.20212735128E+02  0.25857098967E+02  0.18845573627E+02  0.37845737853E+02  0.00000000000E+00 0.  1.
</event>
<event>
 7    1  0.1756449E-015  0.9000766E+02  0.7816164E-02  0.1186339E+00
        -11   -1    0    0    0    0  0.00000000000E+00  0.00000000000E+00  0.45593999997E+02  0.45594000000E+02  0.51100000000E-03 0.  1.
         11   -1    0    0    0    0 -0.00000000000E+00 -0.00000000000E+00 -0.45593999997E+02  0.45594000000E+02  0.51100000000E-03 0. -1.
    9900012    2    1    2    0    0 -0.74401125336E-01 -0.38649415158E+00 -0.11127846827E+01  0.90007659792E+02  0.89999920101E+02 0.  0.
        -12    1    1    2    0    0  0.74401125336E-01  0.38649415158E+00  0.11127846827E+01  0.11803402080E+01  0.00000000000E+00 0.  1.
         11    1    3    3    0    0  0.80599976718E+01 -0.23476488453E+01  0.47414640587E+01  0.96413950885E+01  0.51100000000E-03 0. -1.
        -11    1    3    3    0    0  0.33288948263E+02  0.15264503864E+02 -0.17010633143E+01  0.36661325280E+02  0.51100000000E-03 0.  1.
         12    1    3    3    0    0 -0.41423347060E+02 -0.13303349171E+02 -0.41531854270E+01  0.43704939423E+02  0.00000000000E+00 0. -1.
</event>
<event>
 7    1  0.1756449E-015  0.9000766E+02  0.7816164E-02  0.1186339E+00
        -11   -1    0    0    0    0  0.00000000000E+00  0.00000000000E+00  0.45593999997E+02  0.45594000000E+02  0.51100000000E-03 0.  1.
         11   -1    0    0    0    0 -0.00000000000E+00 -0.00000000000E+00 -0.45593999997E+02  0.45594000000E+02  0.51100000000E-03 0. -1.
    9900012    2    1    2    0    0  0.55696217587E+00 -0.10094640791E+01 -0.25293770598E+00  0.90007660186E+02  0.89999920501E+02 0.  0.
        -12    1    1    2    0    0 -0.55696217587E+00  0.10094640791E+01  0.25293770598E+00  0.11803398136E+01  0.00000000000E+00 0.  1.
         11    1    3    3    0    0  0.41680109243E+01 -0.68224802362E+01  0.77283897541E+01  0.11119647481E+02  0.51100000000E-03 0. -1.
        -11    1    3    3    0    0 -0.39340913014E+02  0.11766549950E+01  0.68050391921E+01  0.39942465027E+02  0.51100000000E-03 0.  1.
         12    1    3    3    0    0  0.35729864266E+02  0.46363611622E+01 -0.14786366652E+02  0.38945547679E+02  0.00000000000E+00 0. -1.
</event>
<event>
 7    1  0.1756449E-015  0.9000768E+02  0.7816164E-02  0.1186339E+00
        -11   -1    0    0    0    0  0.00000000000E+00  0.00000000000E+00  0.45593999997E+02  0.45594000000E+02  0.51100000000E-03 0. -1.
         11   -1    0    0    0    0 -0.00000000000E+00 -0.00000000000E+00 -0.45593999997E+02  0.45594000000E+02  0.51100000000E-03 0.  1.
    9900012    2    1    2    0    0 -0.80646631499E+00  0.32624872152E+00  0.79770189428E+00  0.90007680358E+02  0.89999940939E+02 0.  0.
        -12    1    1    2    0    0  0.80646631499E+00 -0.32624872152E+00 -0.79770189428E+00  0.11803196422E+01  0.00000000000E+00 0.  1.
         11    1    3    3    0    0 -0.20477830299E+02  0.15318822480E+02  0.27918399309E+02  0.37860862063E+02  0.51100000000E-03 0. -1.
        -11    1    3    3    0    0  0.58252003160E+00  0.71832052809E+01  0.49430389242E+01  0.87390732782E+01  0.51100000000E-03 0.  1.
        -12    1    3    3    0    0  0.19088843953E+02 -0.22175779039E+02 -0.32063736338E+02  0.43407745017E+02  0.00000000000E+00 0.  1.
</event>
<event>
 7    1  0.1756449E-015  0.9000774E+02  0.7816164E-02  0.1186339E+00
        -11   -1    0    0    0    0  0.00000000000E+00  0.00000000000E+00  0.45593999997E+02  0.45594000000E+02  0.51100000000E-03 0.  1.
         11   -1    0    0    0    0 -0.00000000000E+00 -0.00000000000E+00 -0.45593999997E+02  0.45594000000E+02  0.51100000000E-03 0. -1.
    9900012    2    1    2    0    0  0.27721283016E+00  0.44887143650E+00 -0.10557816628E+01  0.90007742639E+02  0.90000004041E+02 0.  0.
        -12    1    1    2    0    0 -0.27721283016E+00 -0.44887143650E+00  0.10557816628E+01  0.11802573614E+01  0.00000000000E+00 0.  1.
         11    1    3    3    0    0 -0.63058679918E+01  0.39385678731E+01 -0.10439499705E+02  0.12816373995E+02  0.51100000000E-03 0. -1.
        -11    1    3    3    0    0  0.66952712340E+01  0.35403600384E+02 -0.35456520337E+01  0.36205154683E+02  0.51100000000E-03 0.  1.
         12    1    3    3    0    0 -0.11219041206E+00 -0.38893296820E+02  0.12929370076E+02  0.40986213960E+02  0.00000000000E+00 0. -1.
</event>
<event>
 7    1  0.1756449E-015  0.9000779E+02  0.7816164E-02  0.1186339E+00
        -11   -1    0    0    0    0  0.00000000000E+00  0.00000000000E+00  0.45593999997E+02  0.45594000000E+02  0.51100000000E-03 0.  1.
         11   -1    0    0    0    0 -0.00000000000E+00 -0.00000000000E+00 -0.45593999997E+02  0.45594000000E+02  0.51100000000E-03 0. -1.
    9900012    2    1    2    0    0 -0.42440381117E-01 -0.94770895675E+00  0.70209413829E+00  0.90007792547E+02  0.90000054609E+02 0.  0.
        -12    1    1    2    0    0  0.42440381117E-01  0.94770895675E+00 -0.70209413829E+00  0.11802074528E+01  0.00000000000E+00 0.  1.
         11    1    3    3    0    0  0.52489457728E+01  0.42144857932E+01  0.55687518222E+01  0.87363790752E+01  0.51100000000E-03 0. -1.
        -11    1    3    3    0    0  0.79524443872E+01 -0.48786239128E+01  0.36584309153E+02  0.37755185332E+02  0.51100000000E-03 0.  1.
         12    1    3    3    0    0 -0.13243830541E+02 -0.28357083717E+00 -0.41450966837E+02  0.43516228140E+02  0.00000000000E+00 0. -1.
</event>
<event>
 7    1  0.1756449E-015  0.9000732E+02  0.7816164E-02  0.1186340E+00
        -11   -1    0    0    0    0  0.00000000000E+00  0.00000000000E+00  0.45593999997E+02  0.45594000000E+02  0.51100000000E-03 0. -1.
         11   -1    0    0    0    0 -0.00000000000E+00 -0.00000000000E+00 -0.45593999997E+02  0.45594000000E+02  0.51100000000E-03 0.  1.
    9900012    2    1    2    0    0 -0.44536527266E+00  0.88496815908E+00  0.64224237126E+00  0.90007324714E+02  0.89999580599E+02 0.  0.
        -12    1    1    2    0    0  0.44536527266E+00 -0.88496815908E+00 -0.64224237126E+00  0.11806752865E+01  0.00000000000E+00 0.  1.
         11    1    3    3    0    0 -0.13467788217E+02 -0.16141679230E+02  0.30491808536E+02  0.37036272975E+02  0.51100000000E-03 0. -1.
        -11    1    3    3    0    0  0.33065966293E+00  0.50117513910E-02  0.88357995209E+01  0.88419858836E+01  0.51100000000E-03 0.  1.
        -12    1    3    3    0    0  0.12691763281E+02  0.17021635638E+02 -0.38685365686E+02  0.44129065855E+02  0.00000000000E+00 0.  1.
</event>
<event>
 7    1  0.1756449E-015  0.9000883E+02  0.7816164E-02  0.1186337E+00
        -11   -1    0    0    0    0  0.00000000000E+00  0.00000000000E+00  0.45593999997E+02  0.45594000000E+02  0.51100000000E-03 0.  1.
         11   -1    0    0    0    0 -0.00000000000E+00 -0.00000000000E+00 -0.45593999997E+02  0.45594000000E+02  0.51100000000E-03 0. -1.
    9900012    2    1    2    0    0  0.10956320312E+01 -0.27283979321E+00 -0.33997475195E+00  0.90008833374E+02  0.90001109167E+02 0.  0.
        -12    1    1    2    0    0 -0.10956320312E+01  0.27283979321E+00  0.33997475195E+00  0.11791666262E+01  0.00000000000E+00 0.  1.
         11    1    3    3    0    0 -0.15197896916E+01  0.17898372282E+02 -0.12256528463E+02  0.21745895734E+02  0.51100000000E-03 0. -1.
        -11    1    3    3    0    0  0.17532172742E+02 -0.19761884761E+01 -0.21768349362E+02  0.28020411063E+02  0.51100000000E-03 0.  1.
        -12    1    3    3    0    0 -0.14916751019E+02 -0.16195023599E+02  0.33684903072E+02  0.40242526577E+02  0.00000000000E+00 0.  1.
</event>
<event>
 7    1  0.1756449E-015  0.9000790E+02  0.7816164E-02  0.1186339E+00
        -11   -1    0    0    0    0  0.00000000000E+00  0.00000000000E+00  0.45593999997E+02  0.45594000000E+02  0.51100000000E-03 0. -1.
         11   -1    0    0    0    0 -0.00000000000E+00 -0.00000000000E+00 -0.45593999997E+02  0.45594000000E+02  0.51100000000E-03 0.  1.
    9900012    2    1    2    0    0  0.25911137937E+00 -0.10249168270E+01  0.52443890853E+00  0.90007902810E+02  0.90000166327E+02 0.  0.
        -12    1    1    2    0    0 -0.25911137937E+00  0.10249168270E+01 -0.52443890853E+00  0.11800971900E+01  0.00000000000E+00 0.  1.
         11    1    3    3    0    0  0.17332199205E+02 -0.19291167372E+02  0.32734799850E+02  0.41762679385E+02  0.51100000000E-03 0. -1.
        -11    1    3    3    0    0  0.66982892187E+01  0.32035243932E+01 -0.41582378261E+01  0.85100287352E+01  0.51100000000E-03 0.  1.
        -12    1    3    3    0    0 -0.23771377045E+02  0.15062726152E+02 -0.28052123116E+02  0.39735194690E+02  0.00000000000E+00 0.  1.
</event>
<event>
 7    1  0.1756449E-015  0.9000659E+02  0.7816164E-02  0.1186341E+00
        -11   -1    0    0    0    0  0.00000000000E+00  0.00000000000E+00  0.45593999997E+02  0.45594000000E+02  0.51100000000E-03 0.  1.
         11   -1    0    0    0    0 -0.00000000000E+00 -0.00000000000E+00 -0.45593999997E+02  0.45594000000E+02  0.51100000000E-03 0. -1.
    9900012    2    1    2    0    0  0.83541767010E+00  0.81819419549E+00 -0.16843001364E+00  0.90006588516E+02  0.89998834677E+02 0.  0.
        -12    1    1    2    0    0 -0.83541767010E+00 -0.81819419549E+00  0.16843001364E+00  0.11814114840E+01  0.00000000000E+00 0.  1.
         11    1    3    3    0    0  0.73766508236E+01  0.37126658969E+01 -0.29900148581E+01  0.87828841817E+01  0.51100000000E-03 0. -1.
        -11    1    3    3    0    0  0.35824423196E+01 -0.35799883065E+02 -0.18775163776E+02  0.40582906445E+02  0.51100000000E-03 0.  1.
         12    1    3    3    0    0 -0.10123675473E+02  0.32905411364E+02  0.21596748620E+02  0.40640797889E+02  0.00000000000E+00 0. -1.
</event>
<event>
 7    1  0.1756449E-015  0.9000759E+02  0.7816164E-02  0.1186339E+00
        -11   -1    0    0    0    0  0.00000000000E+00  0.00000000000E+00  0.45593999997E+02  0.45594000000E+02  0.51100000000E-03 0.  1.
         11   -1    0    0    0    0 -0.00000000000E+00 -0.00000000000E+00 -0.45593999997E+02  0.45594000000E+02  0.51100000000E-03 0. -1.
    9900012    2    1    2    0    0  0.42472189997E+00 -0.81149867987E+00 -0.74461373253E+00  0.90007589728E+02  0.89999849112E+02 0.  0.
        -12    1    1    2    0    0 -0.42472189997E+00  0.81149867987E+00  0.74461373253E+00  0.11804102721E+01  0.00000000000E+00 0.  1.
         11    1    3    3    0    0  0.36191923346E+01  0.33894325166E+02 -0.10104396203E+02  0.35553096272E+02  0.51100000000E-03 0. -1.
        -11    1    3    3    0    0 -0.28372251243E+01  0.92471544373E+01  0.11627087343E+01  0.97422586424E+01  0.51100000000E-03 0.  1.
        -12    1    3    3    0    0 -0.35724531035E+00 -0.43952978283E+02  0.81970737363E+01  0.44712234814E+02  0.00000000000E+00 0.  1.
</event>
<event>
 7    1  0.1756449E-015  0.9000774E+02  0.7816164E-02  0.1186339E+00
        -11   -1    0    0    0    0  0.00000000000E+00  0.00000000000E+00  0.45593999997E+02  0.45594000000E+02  0.51100000000E-03 0.  1.
         11   -1    0    0    0    0 -0.00000000000E+00 -0.00000000000E+00 -0.45593999997E+02  0.45594000000E+02  0.51100000000E-03 0. -1.
    9900012    2    1    2    0    0 -0.50431408095E+00 -0.46317906165E+00 -0.96132317204E+00  0.90007741648E+02  0.90000003038E+02 0.  0.
        -12    1    1    2    0    0  0.50431408095E+00  0.46317906165E+00  0.96132317204E+00  0.11802583516E+01  0.00000000000E+00 0.  1.
         11    1    3    3    0    0  0.21427932878E+02  0.14131390737E+02  0.11373204975E+02  0.28074940842E+02  0.51100000000E-03 0. -1.
        -11    1    3    3    0    0  0.85119071124E+01  0.54407611013E+01  0.13787833891E+02  0.17092653619E+02  0.51100000000E-03 0.  1.
        -12    1    3    3    0    0 -0.30444154071E+02 -0.20035330900E+02 -0.26122362039E+02  0.44840147188E+02  0.00000000000E+00 0.  1.
</event>
<event>
 7    1  0.1756449E-015  0.9000775E+02  0.7816164E-02  0.1186339E+00
        -11   -1    0    0    0    0  0.00000000000E+00  0.00000000000E+00  0.45593999997E+02  0.45594000000E+02  0.51100000000E-03 0. -1.
         11   -1    0    0    0    0 -0.00000000000E+00 -0.00000000000E+00 -0.45593999997E+02  0.45594000000E+02  0.51100000000E-03 0.  1.
    9900012    2    1    2    0    0  0.16553872259E+00 -0.28875471709E+00  0.11323497413E+01  0.90007746514E+02  0.90000007968E+02 0.  0.
        -12    1    1    2    0    0 -0.16553872259E+00  0.28875471709E+00 -0.11323497413E+01  0.11802534863E+01  0.00000000000E+00 0.  1.
         11    1    3    3    0    0 -0.64187570656E+01 -0.62081168190E+01 -0.20763050178E+01  0.91679986635E+01  0.51100000000E-03 0. -1.
        -11    1    3    3    0    0  0.12906231785E+02 -0.36070477730E+02  0.11717787898E+01  0.38327839077E+02  0.51100000000E-03 0.  1.
         12    1    3    3    0    0 -0.63219359967E+01  0.41989839831E+02  0.20368759693E+01  0.42511908773E+02  0.00000000000E+00 0. -1.
</event>
<event>
 7    1  0.1756449E-015  0.9000773E+02  0.7816164E-02  0.1186339E+00
        -11   -1    0    0    0    0  0.00000000000E+00  0.00000000000E+00  0.45593999997E+02  0.45594000000E+02  0.51100000000E-03 0.  1.
         11   -1    0    0    0    0 -0.00000000000E+00 -0.00000000000E+00 -0.45593999997E+02  0.45594000000E+02  0.51100000000E-03 0. -1.
    9900012    2    1    2    0    0 -0.60012390779E-01 -0.45532077821E+00 -0.10872554784E+01  0.90007727585E+02  0.89999988789E+02 0.  0.
        -12    1    1    2    0    0  0.60012390779E-01  0.45532077821E+00  0.10872554784E+01  0.11802724149E+01  0.00000000000E+00 0.  1.
         11    1    3    3    0    0 -0.11054305385E+02 -0.36201008442E+02 -0.17058611409E+02  0.41517549340E+02  0.51100000000E-03 0. -1.
        -11    1    3    3    0    0  0.12752977966E+01 -0.38570420811E+01  0.46402620981E+01  0.61672676840E+01  0.51100000000E-03 0.  1.
        -12    1    3    3    0    0  0.97189951972E+01  0.39602729745E+02  0.11331093833E+02  0.42322910561E+02  0.00000000000E+00 0.  1.
</event>
<event>
 7    1  0.1756449E-015  0.9000770E+02  0.7816164E-02  0.1186339E+00
        -11   -1    0    0    0    0  0.00000000000E+00  0.00000000000E+00  0.45593999997E+02  0.45594000000E+02  0.51100000000E-03 0. -1.
         11   -1    0    0    0    0 -0.00000000000E+00 -0.00000000000E+00 -0.45593999997E+02  0.45594000000E+02  0.51100000000E-03 0.  1.
    9900012    2    1    2    0    0  0.34243272264E+00 -0.51967207620E+00  0.10028876148E+01  0.90007702239E+02  0.89999963109E+02 0.  0.
        -12    1    1    2    0    0 -0.34243272264E+00  0.51967207620E+00 -0.10028876148E+01  0.11802977609E+01  0.00000000000E+00 0.  1.
         11    1    3    3    0    0  0.50782314161E+01  0.10759569241E+01 -0.11644056520E+02  0.12748732098E+02  0.51100000000E-03 0. -1.
        -11    1    3    3    0    0  0.96876917846E+01  0.34841656008E+02  0.27578176110E+00  0.36164463515E+02  0.51100000000E-03 0.  1.
         12    1    3    3    0    0 -0.14423490478E+02 -0.36437285008E+02  0.12371162374E+02  0.41094506626E+02  0.00000000000E+00 0. -1.
</event>
<event>
 7    1  0.1756449E-015  0.9000740E+02  0.7816164E-02  0.1186340E+00
        -11   -1    0    0    0    0  0.00000000000E+00  0.00000000000E+00  0.45593999997E+02  0.45594000000E+02  0.51100000000E-03 0.  1.
         11   -1    0    0    0    0 -0.00000000000E+00 -0.00000000000E+00 -0.45593999997E+02  0.45594000000E+02  0.51100000000E-03 0. -1.
    9900012    2    1    2    0    0 -0.78112839107E+00 -0.44350655427E+00  0.76612366785E+00  0.90007404768E+02  0.89999661710E+02 0.  0.
        -12    1    1    2    0    0  0.78112839107E+00  0.44350655427E+00 -0.76612366785E+00  0.11805952318E+01  0.00000000000E+00 0.  1.
         11    1    3    3    0    0 -0.25409072970E+01 -0.65251888583E+01  0.72127462580E+01  0.10052761231E+02  0.51100000000E-03 0. -1.
        -11    1    3    3    0    0 -0.29847668902E+02 -0.13139878703E+02  0.16370967882E+02  0.36490386965E+02  0.51100000000E-03 0.  1.
         12    1    3    3    0    0  0.31607447808E+02  0.19221561007E+02 -0.22817590472E+02  0.43464256572E+02  0.00000000000E+00 0. -1.
</event>
<event>
 7    1  0.1756449E-015  0.9000742E+02  0.7816164E-02  0.1186340E+00
        -11   -1    0    0    0    0  0.00000000000E+00  0.00000000000E+00  0.45593999997E+02  0.45594000000E+02  0.51100000000E-03 0.  1.
         11   -1    0    0    0    0 -0.00000000000E+00 -0.00000000000E+00 -0.45593999997E+02  0.45594000000E+02  0.51100000000E-03 0. -1.
    9900012    2    1    2    0    0  0.97340283544E+00  0.47175814133E-01  0.66635252509E+00  0.90007422038E+02  0.89999679208E+02 0.  0.
        -12    1    1    2    0    0 -0.97340283544E+00 -0.47175814133E-01 -0.66635252509E+00  0.11805779623E+01  0.00000000000E+00 0.  1.
         11    1    3    3    0    0 -0.10643962775E+02  0.29089104339E+02  0.18925109822E+02  0.36299169644E+02  0.51100000000E-03 0. -1.
        -11    1    3    3    0    0  0.49842192912E+01  0.72800834506E+01  0.49309327547E+01  0.10107232810E+02  0.51100000000E-03 0.  1.
        -12    1    3    3    0    0  0.66331463188E+01 -0.36322011976E+02 -0.23189690051E+02  0.43601019584E+02  0.00000000000E+00 0.  1.
</event>
<event>
 7    1  0.1756449E-015  0.9000859E+02  0.7816164E-02  0.1186337E+00
        -11   -1    0    0    0    0  0.00000000000E+00  0.00000000000E+00  0.45593999997E+02  0.45594000000E+02  0.51100000000E-03 0. -1.
         11   -1    0    0    0    0 -0.00000000000E+00 -0.00000000000E+00 -0.45593999997E+02  0.45594000000E+02  0.51100000000E-03 0.  1.
    9900012    2    1    2    0    0 -0.96284473996E+00  0.38247131143E-03  0.68112352666E+00  0.90008593625E+02  0.90000866256E+02 0.  0.
        -12    1    1    2    0    0  0.96284473996E+00 -0.38247131143E-03 -0.68112352666E+00  0.11794063753E+01  0.00000000000E+00 0.  1.
         11    1    3    3    0    0  0.19422392967E+02 -0.30798192503E+02 -0.78196287595E+01  0.37241168137E+02  0.51100000000E-03 0. -1.
        -11    1    3    3    0    0  0.14898912370E+00 -0.80950925508E+01  0.12639116720E+01  0.81945222033E+01  0.51100000000E-03 0.  1.
        -12    1    3    3    0    0 -0.20534226831E+02  0.38893667525E+02  0.72368406141E+01  0.44572903284E+02  0.00000000000E+00 0.  1.
</event>
<event>
 7    1  0.1756449E-015  0.9000764E+02  0.7816164E-02  0.1186339E+00
        -11   -1    0    0    0    0  0.00000000000E+00  0.00000000000E+00  0.45593999997E+02  0.45594000000E+02  0.51100000000E-03 0. -1.
         11   -1    0    0    0    0 -0.00000000000E+00 -0.00000000000E+00 -0.45593999997E+02  0.45594000000E+02  0.51100000000E-03 0.  1.
    9900012    2    1    2    0    0 -0.16686134732E+00  0.79872892236E+00  0.85290718854E+00  0.90007635110E+02  0.89999895094E+02 0.  0.
        -12    1    1    2    0    0  0.16686134732E+00 -0.79872892236E+00 -0.85290718854E+00  0.11803648897E+01  0.00000000000E+00 0.  1.
         11    1    3    3    0    0  0.27927608183E+02  0.25645240349E+02  0.11887125997E+02  0.39735795149E+02  0.51100000000E-03 0. -1.
        -11    1    3    3    0    0 -0.26744165121E+01  0.62018922344E+01 -0.73408121838E+01  0.99751438458E+01  0.51100000000E-03 0.  1.
        -12    1    3    3    0    0 -0.25420053018E+02 -0.31048403661E+02 -0.36934066251E+01  0.40296696116E+02  0.00000000000E+00 0.  1.
</event>
<event>
 7    1  0.1756449E-015  0.9000746E+02  0.7816164E-02  0.1186340E+00
        -11   -1    0    0    0    0  0.00000000000E+00  0.00000000000E+00  0.45593999997E+02  0.45594000000E+02  0.51100000000E-03 0.  1.
         11   -1    0    0    0    0 -0.00000000000E+00 -0.00000000000E+00 -0.45593999997E+02  0.45594000000E+02  0.51100000000E-03 0. -1.
    9900012    2    1    2    0    0 -0.76126855806E+00  0.75290722218E+00 -0.49726089941E+00  0.90007463044E+02  0.89999720756E+02 0.  0.
        -12    1    1    2    0    0  0.76126855806E+00 -0.75290722218E+00  0.49726089941E+00  0.11805369561E+01  0.00000000000E+00 0.  1.
         11    1    3    3    0    0 -0.32452544452E+01  0.92103241149E+01 -0.62167106185E+01  0.11576235912E+02  0.51100000000E-03 0. -1.
        -11    1    3    3    0    0 -0.35727969645E+02  0.53076863351E+01  0.10295209677E+02  0.37558630057E+02  0.51100000000E-03 0.  1.
         12    1    3    3    0    0  0.38211955532E+02 -0.13765103228E+02 -0.45757599581E+01  0.40872597075E+02  0.00000000000E+00 0. -1.
</event>
<event>
 7    1  0.1756449E-015  0.9000778E+02  0.7816164E-02  0.1186339E+00
        -11   -1    0    0    0    0  0.00000000000E+00  0.00000000000E+00  0.45593999997E+02  0.45594000000E+02  0.51100000000E-03 0.  1.
         11   -1    0    0    0    0 -0.00000000000E+00 -0.00000000000E+00 -0.45593999997E+02  0.45594000000E+02  0.51100000000E-03 0. -1.
    9900012    2    1    2    0    0 -0.90171276323E+00 -0.64709279004E+00 -0.40138912850E+00  0.90007776200E+02  0.90000038046E+02 0.  0.
        -12    1    1    2    0    0  0.90171276323E+00  0.64709279004E+00  0.40138912850E+00  0.11802238003E+01  0.00000000000E+00 0.  1.
         11    1    3    3    0    0  0.22664879278E+01  0.93170276810E+01 -0.79673013471E+00  0.96217852556E+01  0.51100000000E-03 0. -1.
        -11    1    3    3    0    0 -0.75518753431E+01 -0.19747674457E+02  0.36797012781E+02  0.42438445041E+02  0.51100000000E-03 0.  1.
         12    1    3    3    0    0  0.43836746520E+01  0.97835539858E+01 -0.36401671775E+02  0.37947545903E+02  0.00000000000E+00 0. -1.
</event>
<event>
 7    1  0.1756449E-015  0.9000775E+02  0.7816164E-02  0.1186339E+00
        -11   -1    0    0    0    0  0.00000000000E+00  0.00000000000E+00  0.45593999997E+02  0.45594000000E+02  0.51100000000E-03 0.  1.
         11   -1    0    0    0    0 -0.00000000000E+00 -0.00000000000E+00 -0.45593999997E+02  0.45594000000E+02  0.51100000000E-03 0. -1.
    9900012    2    1    2    0    0  0.36608001517E+00 -0.61706203977E+00 -0.93713484445E+00  0.90007745004E+02  0.90000006438E+02 0.  0.
        -12    1    1    2    0    0 -0.36608001517E+00  0.61706203977E+00  0.93713484445E+00  0.11802549958E+01  0.00000000000E+00 0.  1.
         11    1    3    3    0    0  0.96796258356E+01 -0.18980871242E+02  0.47872939940E+01  0.21837738286E+02  0.51100000000E-03 0. -1.
        -11    1    3    3    0    0 -0.13537466583E+02  0.35307589906E+02  0.15341519599E+02  0.40807488655E+02  0.51100000000E-03 0.  1.
         12    1    3    3    0    0  0.42239207627E+01 -0.16943780704E+02 -0.21065948438E+02  0.27362518063E+02  0.00000000000E+00 0. -1.
</event>
<event>
 7    1  0.1756449E-015  0.9000800E+02  0.7816164E-02  0.1186339E+00
        -11   -1    0    0    0    0  0.00000000000E+00  0.00000000000E+00  0.45593999997E+02  0.45594000000E+02  0.51100000000E-03 0. -1.
         11   -1    0    0    0    0 -0.00000000000E+00 -0.00000000000E+00 -0.45593999997E+02  0.45594000000E+02  0.51100000000E-03 0.  1.
    9900012    2    1    2    0    0  0.37691223400E+00 -0.11062690872E+01  0.16278763797E+00  0.90008002568E+02  0.90000267401E+02 0.  0.
        -12    1    1    2    0    0 -0.37691223400E+00  0.11062690872E+01 -0.16278763797E+00  0.11799974324E+01  0.00000000000E+00 0.  1.
         11    1    3    3    0    0  0.64265851057E+01 -0.35405996720E+01  0.56006888102E+01  0.92306314826E+01  0.51100000000E-03 0. -1.
        -11    1    3    3    0    0 -0.20849959125E+02 -0.34581254099E+02 -0.64899426178E+01  0.40898695407E+02  0.51100000000E-03 0.  1.
         12    1    3    3    0    0  0.14800286253E+02  0.37015584683E+02  0.10520414456E+01  0.39878675678E+02  0.00000000000E+00 0. -1.
</event>
<event>
 7    1  0.1756449E-015  0.9000774E+02  0.7816164E-02  0.1186339E+00
        -11   -1    0    0    0    0  0.00000000000E+00  0.00000000000E+00  0.45593999997E+02  0.45594000000E+02  0.51100000000E-03 0.  1.
         11   -1    0    0    0    0 -0.00000000000E+00 -0.00000000000E+00 -0.45593999997E+02  0.45594000000E+02  0.51100000000E-03 0. -1.
    9900012    2    1    2    0    0  0.37978448639E+00  0.11127943258E+01 -0.10235962158E+00  0.90007735216E+02  0.89999996521E+02 0.  0.
        -12    1    1    2    0    0 -0.37978448639E+00 -0.11127943258E+01  0.10235962158E+00  0.11802647837E+01  0.00000000000E+00 0.  1.
         11    1    3    3    0    0  0.35048514204E+02  0.44659780388E+01 -0.86730981917E+01  0.36380845788E+02  0.51100000000E-03 0. -1.
        -11    1    3    3    0    0  0.82500838432E+01  0.14464702086E+01 -0.30340641739E+01  0.89085186847E+01  0.51100000000E-03 0.  1.
        -12    1    3    3    0    0 -0.42918813561E+02 -0.47996539216E+01  0.11604802744E+02  0.44718370744E+02  0.00000000000E+00 0.  1.
</event>
<event>
 7    1  0.1756449E-015  0.9000773E+02  0.7816164E-02  0.1186339E+00
        -11   -1    0    0    0    0  0.00000000000E+00  0.00000000000E+00  0.45593999997E+02  0.45594000000E+02  0.51100000000E-03 0. -1.
         11   -1    0    0    0    0 -0.00000000000E+00 -0.00000000000E+00 -0.45593999997E+02  0.45594000000E+02  0.51100000000E-03 0.  1.
    9900012    2    1    2    0    0 -0.81427068314E+00  0.80038874567E+00 -0.29896449491E+00  0.90007729413E+02  0.89999990641E+02 0.  0.
        -12    1    1    2    0    0  0.81427068314E+00 -0.80038874567E+00  0.29896449491E+00  0.11802705871E+01  0.00000000000E+00 0.  1.
         11    1    3    3    0    0  0.69049965567E+01  0.59365005956E+01  0.33458378274E+01  0.97013219614E+01  0.51100000000E-03 0. -1.
        -11    1    3    3    0    0  0.32107673328E+02 -0.44430550009E+01 -0.19051279006E+02  0.37597801216E+02  0.51100000000E-03 0.  1.
         12    1    3    3    0    0 -0.39826940567E+02 -0.69305684894E+00  0.15406476684E+02  0.42708606235E+02  0.00000000000E+00 0. -1.
</event>
<event>
 7    1  0.1756449E-015  0.9000773E+02  0.7816164E-02  0.1186339E+00
        -11   -1    0    0    0    0  0.00000000000E+00  0.00000000000E+00  0.45593999997E+02  0.45594000000E+02  0.51100000000E-03 0.  1.
         11   -1    0    0    0    0 -0.00000000000E+00 -0.00000000000E+00 -0.45593999997E+02  0.45594000000E+02  0.51100000000E-03 0. -1.
    9900012    2    1    2    0    0  0.14565055982E+00  0.29185365118E+00 -0.11343051381E+01  0.90007728512E+02  0.89999989728E+02 0.  0.
        -12    1    1    2    0    0 -0.14565055982E+00 -0.29185365118E+00  0.11343051381E+01  0.11802714880E+01  0.00000000000E+00 0.  1.
         11    1    3    3    0    0 -0.70559763531E+01  0.21225088298E+01 -0.85145243618E+01  0.11260060897E+02  0.51100000000E-03 0. -1.
        -11    1    3    3    0    0  0.69966924009E+01  0.37961394855E+02  0.30823447728E+01  0.38723662707E+02  0.51100000000E-03 0.  1.
         12    1    3    3    0    0  0.20493451208E+00 -0.39792050034E+02  0.42978744509E+01  0.40024004908E+02  0.00000000000E+00 0. -1.
</event>
<event>
 7    1  0.1756449E-015  0.9000771E+02  0.7816164E-02  0.1186339E+00
        -11   -1    0    0    0    0  0.00000000000E+00  0.00000000000E+00  0.45593999997E+02  0.45594000000E+02  0.51100000000E-03 0.  1.
         11   -1    0    0    0    0 -0.00000000000E+00 -0.00000000000E+00 -0.45593999997E+02  0.45594000000E+02  0.51100000000E-03 0. -1.
    9900012    2    1    2    0    0  0.24678526702E+00  0.10843679772E+01 -0.39538217156E+00  0.90007710231E+02  0.89999971206E+02 0.  0.
        -12    1    1    2    0    0 -0.24678526702E+00 -0.10843679772E+01  0.39538217156E+00  0.11802897693E+01  0.00000000000E+00 0.  1.
         11    1    3    3    0    0  0.24755611971E+02 -0.13155441736E+01  0.84341580963E+01  0.26185988688E+02  0.51100000000E-03 0. -1.
        -11    1    3    3    0    0  0.10523738933E+02  0.20765155800E+02 -0.66333620221E+01  0.24206244412E+02  0.51100000000E-03 0.  1.
         12    1    3    3    0    0 -0.35032565637E+02 -0.18365243649E+02 -0.21961782458E+01  0.39615477131E+02  0.00000000000E+00 0. -1.
</event>
<event>
 7    1  0.1756449E-015  0.9000774E+02  0.7816164E-02  0.1186339E+00
        -11   -1    0    0    0    0  0.00000000000E+00  0.00000000000E+00  0.45593999997E+02  0.45594000000E+02  0.51100000000E-03 0.  1.
         11   -1    0    0    0    0 -0.00000000000E+00 -0.00000000000E+00 -0.45593999997E+02  0.45594000000E+02  0.51100000000E-03 0. -1.
    9900012    2    1    2    0    0  0.80725682509E-01  0.85254181440E+00 -0.81219962743E+00  0.90007740530E+02  0.90000001905E+02 0.  0.
        -12    1    1    2    0    0 -0.80725682509E-01 -0.85254181440E+00  0.81219962743E+00  0.11802594697E+01  0.00000000000E+00 0.  1.
         11    1    3    3    0    0 -0.26774084307E+01 -0.98217208263E+01 -0.44435914319E+01  0.11107664965E+02  0.51100000000E-03 0. -1.
        -11    1    3    3    0    0 -0.25645170069E+02 -0.19403768445E+02 -0.12491871162E+02  0.34499678595E+02  0.51100000000E-03 0.  1.
         12    1    3    3    0    0  0.28403304182E+02  0.30078031086E+02  0.16123262966E+02  0.44400396971E+02  0.00000000000E+00 0. -1.
</event>
<event>
 7    1  0.1756449E-015  0.9000779E+02  0.7816164E-02  0.1186339E+00
        -11   -1    0    0    0    0  0.00000000000E+00  0.00000000000E+00  0.45593999997E+02  0.45594000000E+02  0.51100000000E-03 0.  1.
         11   -1    0    0    0    0 -0.00000000000E+00 -0.00000000000E+00 -0.45593999997E+02  0.45594000000E+02  0.51100000000E-03 0. -1.
    9900012    2    1    2    0    0  0.46409541067E+00  0.10841581710E+01  0.45999224993E-01  0.90007788401E+02  0.90000050408E+02 0.  0.
        -12    1    1    2    0    0 -0.46409541067E+00 -0.10841581710E+01 -0.45999224993E-01  0.11802115991E+01  0.00000000000E+00 0.  1.
         11    1    3    3    0    0 -0.25078894754E+02  0.90170788334E+01 -0.24289526712E+02  0.36058837765E+02  0.51100000000E-03 0. -1.
        -11    1    3    3    0    0 -0.10137390447E+02  0.33291507716E+01  0.42721491956E+01  0.11493528133E+02  0.51100000000E-03 0.  1.
        -12    1    3    3    0    0  0.35680380612E+02 -0.11262071434E+02  0.20063376741E+02  0.42455422503E+02  0.00000000000E+00 0.  1.
</event>
<event>
 7    1  0.1756449E-015  0.9000745E+02  0.7816164E-02  0.1186340E+00
        -11   -1    0    0    0    0  0.00000000000E+00  0.00000000000E+00  0.45593999997E+02  0.45594000000E+02  0.51100000000E-03 0.  1.
         11   -1    0    0    0    0 -0.00000000000E+00 -0.00000000000E+00 -0.45593999997E+02  0.45594000000E+02  0.51100000000E-03 0. -1.
    9900012    2    1    2    0    0 -0.19030179768E-01 -0.11803661531E+01  0.83031864281E-02  0.90007451252E+02  0.89999708808E+02 0.  0.
        -12    1    1    2    0    0  0.19030179768E-01  0.11803661531E+01 -0.83031864281E-02  0.11805487479E+01  0.00000000000E+00 0.  1.
         11    1    3    3    0    0 -0.85708020307E+01 -0.54253461943E+01 -0.15040422455E+02  0.18141315737E+02  0.51100000000E-03 0. -1.
        -11    1    3    3    0    0  0.59705283675E+01 -0.32578633254E+02  0.41709708380E+01  0.33382803233E+02  0.51100000000E-03 0.  1.
         12    1    3    3    0    0  0.25812434834E+01  0.36823613295E+02  0.10877754803E+02  0.38483332283E+02  0.00000000000E+00 0. -1.
</event>
<event>
 7    1  0.1756449E-015  0.9000777E+02  0.7816164E-02  0.1186339E+00
        -11   -1    0    0    0    0  0.00000000000E+00  0.00000000000E+00  0.45593999997E+02  0.45594000000E+02  0.51100000000E-03 0.  1.
         11   -1    0    0    0    0 -0.00000000000E+00 -0.00000000000E+00 -0.45593999997E+02  0.45594000000E+02  0.51100000000E-03 0. -1.
    9900012    2    1    2    0    0  0.23405614116E+00  0.24171018780E+00 -0.11312507475E+01  0.90007773604E+02  0.90000035416E+02 0.  0.
        -12    1    1    2    0    0 -0.23405614116E+00 -0.24171018780E+00  0.11312507475E+01  0.11802263960E+01  0.00000000000E+00 0.  1.
         11    1    3    3    0    0  0.13896110961E+01 -0.34746664265E+02 -0.28166782178E+02  0.44750746530E+02  0.51100000000E-03 0. -1.
        -11    1    3    3    0    0 -0.79801620210E+00  0.52184638169E+01  0.90409431627E+01  0.10469376677E+02  0.51100000000E-03 0.  1.
        -12    1    3    3    0    0 -0.35753875283E+00  0.29769910635E+02  0.17994588268E+02  0.34787650397E+02  0.00000000000E+00 0.  1.
</event>
<event>
 7    1  0.1756449E-015  0.9000764E+02  0.7816164E-02  0.1186339E+00
        -11   -1    0    0    0    0  0.00000000000E+00  0.00000000000E+00  0.45593999997E+02  0.45594000000E+02  0.51100000000E-03 0. -1.
         11   -1    0    0    0    0 -0.00000000000E+00 -0.00000000000E+00 -0.45593999997E+02  0.45594000000E+02  0.51100000000E-03 0.  1.
    9900012    2    1    2    0    0 -0.53766600066E+00 -0.75200312124E+00  0.73392803142E+00  0.90007642521E+02  0.89999902602E+02 0.  0.
        -12    1    1    2    0    0  0.53766600066E+00  0.75200312124E+00 -0.73392803142E+00  0.11803574789E+01  0.00000000000E+00 0.  1.
         11    1    3    3    0    0  0.27847870980E+02 -0.75928068661E+01  0.32731660888E+02  0.43640763731E+02  0.51100000000E-03 0. -1.
        -11    1    3    3    0    0 -0.77997917893E+01 -0.41211265424E+01 -0.33744942657E+01  0.94449800288E+01  0.51100000000E-03 0.  1.
        -12    1    3    3    0    0 -0.20585745191E+02  0.10961930287E+02 -0.28623238591E+02  0.36921898762E+02  0.00000000000E+00 0.  1.
</event>
<event>
 7    1  0.1756449E-015  0.9000786E+02  0.7816164E-02  0.1186339E+00
        -11   -1    0    0    0    0  0.00000000000E+00  0.00000000000E+00  0.45593999997E+02  0.45594000000E+02  0.51100000000E-03 0. -1.
         11   -1    0    0    0    0 -0.00000000000E+00 -0.00000000000E+00 -0.45593999997E+02  0.45594000000E+02  0.51100000000E-03 0.  1.
    9900012    2    1    2    0    0  0.92132549123E+00 -0.59405165527E+00  0.43704008667E+00  0.90007855065E+02  0.90000117952E+02 0.  0.
        -12    1    1    2    0    0 -0.92132549123E+00  0.59405165527E+00 -0.43704008667E+00  0.11801449349E+01  0.00000000000E+00 0.  1.
         11    1    3    3    0    0  0.16270881303E+02 -0.35554865808E+01  0.30156854173E+02  0.34450238273E+02  0.51100000000E-03 0. -1.
        -11    1    3    3    0    0 -0.11893767566E+02 -0.19052856573E+01  0.98377449274E+01  0.15552268191E+02  0.51100000000E-03 0.  1.
        -12    1    3    3    0    0 -0.34557882455E+01  0.48667205829E+01 -0.39557559013E+02  0.40005348601E+02  0.00000000000E+00 0.  1.
</event>
<event>
 7    1  0.1756449E-015  0.9000773E+02  0.7816164E-02  0.1186339E+00
        -11   -1    0    0    0    0  0.00000000000E+00  0.00000000000E+00  0.45593999997E+02  0.45594000000E+02  0.51100000000E-03 0.  1.
         11   -1    0    0    0    0 -0.00000000000E+00 -0.00000000000E+00 -0.45593999997E+02  0.45594000000E+02  0.51100000000E-03 0. -1.
    9900012    2    1    2    0    0  0.58139730317E+00 -0.96348468252E+00  0.35595898420E+00  0.90007732083E+02  0.89999993346E+02 0.  0.
        -12    1    1    2    0    0 -0.58139730317E+00  0.96348468252E+00 -0.35595898420E+00  0.11802679171E+01  0.00000000000E+00 0.  1.
         11    1    3    3    0    0  0.18505270595E+01 -0.77035988023E+01 -0.32183777501E+01  0.85514817727E+01  0.51100000000E-03 0. -1.
        -11    1    3    3    0    0 -0.13157119697E+01 -0.20323738802E+02  0.34684322671E+02  0.40221731642E+02  0.51100000000E-03 0.  1.
         12    1    3    3    0    0  0.46582213453E-01  0.27063852922E+02 -0.31109985936E+02  0.41234518669E+02  0.00000000000E+00 0. -1.
</event>
<event>
 7    1  0.1756449E-015  0.9000770E+02  0.7816164E-02  0.1186339E+00
        -11   -1    0    0    0    0  0.00000000000E+00  0.00000000000E+00  0.45593999997E+02  0.45594000000E+02  0.51100000000E-03 0. -1.
         11   -1    0    0    0    0 -0.00000000000E+00 -0.00000000000E+00 -0.45593999997E+02  0.45594000000E+02  0.51100000000E-03 0.  1.
    9900012    2    1    2    0    0 -0.35872461159E+00 -0.45214279499E+00  0.10295588468E+01  0.90007700092E+02  0.89999960933E+02 0.  0.
        -12    1    1    2    0    0  0.35872461159E+00  0.45214279499E+00 -0.10295588468E+01  0.11802999081E+01  0.00000000000E+00 0.  1.
         11    1    3    3    0    0  0.34762524032E+02 -0.79287841638E+01 -0.10043753388E+02  0.37042889706E+02  0.51100000000E-03 0. -1.
        -11    1    3    3    0    0  0.25433621198E+01 -0.87031627407E-01 -0.91871106062E+01  0.95330617814E+01  0.51100000000E-03 0.  1.
        -12    1    3    3    0    0 -0.37664610763E+02  0.75636729962E+01  0.20260422841E+02  0.43431748605E+02  0.00000000000E+00 0.  1.
</event>
<event>
 7    1  0.1756449E-015  0.9000778E+02  0.7816164E-02  0.1186339E+00
        -11   -1    0    0    0    0  0.00000000000E+00  0.00000000000E+00  0.45593999997E+02  0.45594000000E+02  0.51100000000E-03 0. -1.
         11   -1    0    0    0    0 -0.00000000000E+00 -0.00000000000E+00 -0.45593999997E+02  0.45594000000E+02  0.51100000000E-03 0.  1.
    9900012    2    1    2    0    0 -0.13238747582E+00  0.52877480951E+00  0.10468000400E+01  0.90007779865E+02  0.90000041759E+02 0.  0.
        -12    1    1    2    0    0  0.13238747582E+00 -0.52877480951E+00 -0.10468000400E+01  0.11802201348E+01  0.00000000000E+00 0.  1.
         11    1    3    3    0    0  0.25893512368E+01  0.35596131732E+01  0.76690202355E+01  0.88424802744E+01  0.51100000000E-03 0. -1.
        -11    1    3    3    0    0 -0.28721460256E+02  0.27651915052E+02 -0.90199398544E+01  0.40876766023E+02  0.51100000000E-03 0.  1.
         12    1    3    3    0    0  0.25999721543E+02 -0.30682753415E+02  0.23977196590E+01  0.40288533568E+02  0.00000000000E+00 0. -1.
</event>
<event>
 7    1  0.1756449E-015  0.9000775E+02  0.7816164E-02  0.1186339E+00
        -11   -1    0    0    0    0  0.00000000000E+00  0.00000000000E+00  0.45593999997E+02  0.45594000000E+02  0.51100000000E-03 0. -1.
         11   -1    0    0    0    0 -0.00000000000E+00 -0.00000000000E+00 -0.45593999997E+02  0.45594000000E+02  0.51100000000E-03 0.  1.
    9900012    2    1    2    0    0 -0.19337149421E+00  0.11016850724E+01  0.37669409976E+00  0.90007745376E+02  0.90000006815E+02 0.  0.
        -12    1    1    2    0    0  0.19337149421E+00 -0.11016850724E+01 -0.37669409976E+00  0.11802546244E+01  0.00000000000E+00 0.  1.
         11    1    3    3    0    0 -0.28214182490E+02  0.20408490429E+02  0.21459681453E+02  0.40903111172E+02  0.51100000000E-03 0. -1.
        -11    1    3    3    0    0 -0.26820130525E+01 -0.46576060516E+01 -0.13103273714E+02  0.14162707030E+02  0.51100000000E-03 0.  1.
        -12    1    3    3    0    0  0.30702824049E+02 -0.14649199305E+02 -0.79797136391E+01  0.34941927174E+02  0.00000000000E+00 0.  1.
</event>
<event>
 7    1  0.1756449E-015  0.9000773E+02  0.7816164E-02  0.1186339E+00
        -11   -1    0    0    0    0  0.00000000000E+00  0.00000000000E+00  0.45593999997E+02  0.45594000000E+02  0.51100000000E-03 0.  1.
         11   -1    0    0    0    0 -0.00000000000E+00 -0.00000000000E+00 -0.45593999997E+02  0.45594000000E+02  0.51100000000E-03 0. -1.
    9900012    2    1    2    0    0  0.11571536092E+01  0.13213123505E+00 -0.19122589352E+00  0.90007732877E+02  0.89999994151E+02 0.  0.
        -12    1    1    2    0    0 -0.11571536092E+01 -0.13213123505E+00  0.19122589352E+00  0.11802671227E+01  0.00000000000E+00 0.  1.
         11    1    3    3    0    0  0.33609373420E+02 -0.19358854546E+02 -0.82286911457E+01  0.39649294941E+02  0.51100000000E-03 0. -1.
        -11    1    3    3    0    0 -0.45691159471E+01 -0.87065838590E+01  0.35314260178E+01  0.10447602261E+02  0.51100000000E-03 0.  1.
        -12    1    3    3    0    0 -0.27883103864E+02  0.28197569641E+02  0.45060392343E+01  0.39910835675E+02  0.00000000000E+00 0.  1.
</event>
<event>
 7    1  0.1756449E-015  0.9000789E+02  0.7816164E-02  0.1186339E+00
        -11   -1    0    0    0    0  0.00000000000E+00  0.00000000000E+00  0.45593999997E+02  0.45594000000E+02  0.51100000000E-03 0. -1.
         11   -1    0    0    0    0 -0.00000000000E+00 -0.00000000000E+00 -0.45593999997E+02  0.45594000000E+02  0.51100000000E-03 0.  1.
    9900012    2    1    2    0    0  0.65541928198E+00 -0.44186285928E+00  0.87626550015E+00  0.90007890493E+02  0.90000153847E+02 0.  0.
        -12    1    1    2    0    0 -0.65541928198E+00  0.44186285928E+00 -0.87626550015E+00  0.11801095069E+01  0.00000000000E+00 0.  1.
         11    1    3    3    0    0 -0.24628666433E+02 -0.24818228703E+02 -0.22724572663E+02  0.41700382362E+02  0.51100000000E-03 0. -1.
        -11    1    3    3    0    0  0.35530595759E+01  0.77999328423E+01 -0.40048102732E+01  0.94605332979E+01  0.51100000000E-03 0.  1.
        -12    1    3    3    0    0  0.21731026139E+02  0.16576433001E+02  0.27605648436E+02  0.38846974833E+02  0.00000000000E+00 0.  1.
</event>
<event>
 7    1  0.1756449E-015  0.9000780E+02  0.7816164E-02  0.1186339E+00
        -11   -1    0    0    0    0  0.00000000000E+00  0.00000000000E+00  0.45593999997E+02  0.45594000000E+02  0.51100000000E-03 0. -1.
         11   -1    0    0    0    0 -0.00000000000E+00 -0.00000000000E+00 -0.45593999997E+02  0.45594000000E+02  0.51100000000E-03 0.  1.
    9900012    2    1    2    0    0  0.63722161692E+00  0.14955333321E+00  0.98207016373E+00  0.90007796884E+02  0.90000059003E+02 0.  0.
        -12    1    1    2    0    0 -0.63722161692E+00 -0.14955333321E+00 -0.98207016373E+00  0.11802031160E+01  0.00000000000E+00 0.  1.
         11    1    3    3    0    0  0.22502521629E+00  0.15111384382E+01 -0.90301702787E+01  0.91585015833E+01  0.51100000000E-03 0. -1.
        -11    1    3    3    0    0  0.20519621731E+02 -0.19190813606E+02 -0.24382999037E+02  0.37200441465E+02  0.51100000000E-03 0.  1.
         12    1    3    3    0    0 -0.20107425331E+02  0.17829228501E+02  0.34395239479E+02  0.43648853836E+02  0.00000000000E+00 0. -1.
</event>
<event>
 7    1  0.1756449E-015  0.9000777E+02  0.7816164E-02  0.1186339E+00
        -11   -1    0    0    0    0  0.00000000000E+00  0.00000000000E+00  0.45593999997E+02  0.45594000000E+02  0.51100000000E-03 0.  1.
         11   -1    0    0    0    0 -0.00000000000E+00 -0.00000000000E+00 -0.45593999997E+02  0.45594000000E+02  0.51100000000E-03 0. -1.
    9900012    2    1    2    0    0  0.42037466842E+00 -0.10931504007E+01  0.14579222454E+00  0.90007767805E+02  0.90000029540E+02 0.  0.
        -12    1    1    2    0    0 -0.42037466842E+00  0.10931504007E+01 -0.14579222454E+00  0.11802321946E+01  0.00000000000E+00 0.  1.
         11    1    3    3    0    0 -0.48958870862E+01 -0.26116732309E+01  0.79708331402E+01  0.97120918774E+01  0.51100000000E-03 0. -1.
        -11    1    3    3    0    0  0.66050619146E+01  0.51956576904E+01  0.35659789079E+02  0.36636624560E+02  0.51100000000E-03 0.  1.
         12    1    3    3    0    0 -0.12888001600E+01 -0.36771348603E+01 -0.43484829995E+02  0.43659051368E+02  0.00000000000E+00 0. -1.
</event>
<event>
 7    1  0.1756449E-015  0.9000763E+02  0.7816164E-02  0.1186339E+00
        -11   -1    0    0    0    0  0.00000000000E+00  0.00000000000E+00  0.45593999997E+02  0.45594000000E+02  0.51100000000E-03 0.  1.
         11   -1    0    0    0    0 -0.00000000000E+00 -0.00000000000E+00 -0.45593999997E+02  0.45594000000E+02  0.51100000000E-03 0. -1.
    9900012    2    1    2    0    0  0.76371540625E+00  0.89614535653E+00  0.83314959666E-01  0.90007627557E+02  0.89999887441E+02 0.  0.
        -12    1    1    2    0    0 -0.76371540625E+00 -0.89614535653E+00 -0.83314959666E-01  0.11803724430E+01  0.00000000000E+00 0.  1.
         11    1    3    3    0    0 -0.99900474099E+01 -0.23528594189E+01  0.46432873925E+01  0.11264861862E+02  0.51100000000E-03 0. -1.
        -11    1    3    3    0    0  0.14336535087E+01 -0.28337176188E+02  0.22425913157E+02  0.36165902420E+02  0.51100000000E-03 0.  1.
         12    1    3    3    0    0  0.93201093074E+01  0.31586180963E+02 -0.26985885589E+02  0.42576863275E+02  0.00000000000E+00 0. -1.
</event>
<event>
 7    1  0.1756449E-015  0.9000786E+02  0.7816164E-02  0.1186339E+00
        -11   -1    0    0    0    0  0.00000000000E+00  0.00000000000E+00  0.45593999997E+02  0.45594000000E+02  0.51100000000E-03 0. -1.
         11   -1    0    0    0    0 -0.00000000000E+00 -0.00000000000E+00 -0.45593999997E+02  0.45594000000E+02  0.51100000000E-03 0.  1.
    9900012    2    1    2    0    0 -0.10593717292E+01 -0.12084238096E+00  0.50581622777E+00  0.90007863822E+02  0.90000126825E+02 0.  0.
        -12    1    1    2    0    0  0.10593717292E+01  0.12084238096E+00 -0.50581622777E+00  0.11801361777E+01  0.00000000000E+00 0.  1.
         11    1    3    3    0    0  0.54371387062E+01 -0.67969672293E+01 -0.45190848388E+01  0.98073120103E+01  0.51100000000E-03 0. -1.
        -11    1    3    3    0    0 -0.34680444845E+02  0.17983438928E+02 -0.17083341999E+02  0.42637752103E+02  0.51100000000E-03 0.  1.
         12    1    3    3    0    0  0.28183934409E+02 -0.11307314080E+02  0.22108243066E+02  0.37562799709E+02  0.00000000000E+00 0. -1.
</event>
<event>
 7    1  0.1756449E-015  0.9000753E+02  0.7816164E-02  0.1186339E+00
        -11   -1    0    0    0    0  0.00000000000E+00  0.00000000000E+00  0.45593999997E+02  0.45594000000E+02  0.51100000000E-03 0. -1.
         11   -1    0    0    0    0 -0.00000000000E+00 -0.00000000000E+00 -0.45593999997E+02  0.45594000000E+02  0.51100000000E-03 0.  1.
    9900012    2    1    2    0    0 -0.28101461463E+00 -0.81213102141E+00  0.80931616126E+00  0.90007526087E+02  0.89999784631E+02 0.  0.
        -12    1    1    2    0    0  0.28101461463E+00  0.81213102141E+00 -0.80931616126E+00  0.11804739127E+01  0.00000000000E+00 0.  1.
         11    1    3    3    0    0 -0.15005533900E+01 -0.28727443830E+02  0.25784731822E+02  0.38631206101E+02  0.51100000000E-03 0. -1.
        -11    1    3    3    0    0 -0.50880425921E+01  0.59501393015E+01  0.80407686496E+01  0.11222579733E+02  0.51100000000E-03 0.  1.
        -12    1    3    3    0    0  0.63075813674E+01  0.21965173507E+02 -0.33016184310E+02  0.40153740253E+02  0.00000000000E+00 0.  1.
</event>
<event>
 7    1  0.1756449E-015  0.9000804E+02  0.7816164E-02  0.1186338E+00
        -11   -1    0    0    0    0  0.00000000000E+00  0.00000000000E+00  0.45593999997E+02  0.45594000000E+02  0.51100000000E-03 0.  1.
         11   -1    0    0    0    0 -0.00000000000E+00 -0.00000000000E+00 -0.45593999997E+02  0.45594000000E+02  0.51100000000E-03 0. -1.
    9900012    2    1    2    0    0 -0.47179769564E+00 -0.95937886704E+00 -0.49929400959E+00  0.90008044330E+02  0.90000309714E+02 0.  0.
        -12    1    1    2    0    0  0.47179769564E+00  0.95937886704E+00  0.49929400959E+00  0.11799556704E+01  0.00000000000E+00 0.  1.
         11    1    3    3    0    0 -0.24321493902E+02 -0.56421698448E+01 -0.27398432060E+02  0.37068089050E+02  0.51100000000E-03 0. -1.
        -11    1    3    3    0    0 -0.99910470586E+00  0.25039613002E+01 -0.89045983952E+01  0.93037575876E+01  0.51100000000E-03 0.  1.
        -12    1    3    3    0    0  0.24848800913E+02  0.21788296775E+01  0.35803736446E+02  0.43636197692E+02  0.00000000000E+00 0.  1.
</event>
<event>
 7    1  0.1756449E-015  0.9000772E+02  0.7816164E-02  0.1186339E+00
        -11   -1    0    0    0    0  0.00000000000E+00  0.00000000000E+00  0.45593999997E+02  0.45594000000E+02  0.51100000000E-03 0. -1.
         11   -1    0    0    0    0 -0.00000000000E+00 -0.00000000000E+00 -0.45593999997E+02  0.45594000000E+02  0.51100000000E-03 0.  1.
    9900012    2    1    2    0    0 -0.30521089963E-01  0.43503693871E+00  0.10967542064E+01  0.90007721023E+02  0.89999982140E+02 0.  0.
        -12    1    1    2    0    0  0.30521089963E-01 -0.43503693871E+00 -0.10967542064E+01  0.11802789773E+01  0.00000000000E+00 0.  1.
         11    1    3    3    0    0  0.12764303957E+02 -0.16202898131E+02  0.12346949236E+02  0.24039727932E+02  0.51100000000E-03 0. -1.
        -11    1    3    3    0    0 -0.14001414641E+02 -0.18206059494E+02 -0.19513066319E+02  0.30137351769E+02  0.51100000000E-03 0.  1.
        -12    1    3    3    0    0  0.12065895940E+01  0.34843994563E+02  0.82628712889E+01  0.35830641322E+02  0.00000000000E+00 0.  1.
</event>
<event>
 7    1  0.1756449E-015  0.9000773E+02  0.7816164E-02  0.1186339E+00
        -11   -1    0    0    0    0  0.00000000000E+00  0.00000000000E+00  0.45593999997E+02  0.45594000000E+02  0.51100000000E-03 0. -1.
         11   -1    0    0    0    0 -0.00000000000E+00 -0.00000000000E+00 -0.45593999997E+02  0.45594000000E+02  0.51100000000E-03 0.  1.
    9900012    2    1    2    0    0 -0.10630660940E+01  0.49180543065E+00  0.14513270100E+00  0.90007726471E+02  0.89999987661E+02 0.  0.
        -12    1    1    2    0    0  0.10630660940E+01 -0.49180543065E+00 -0.14513270100E+00  0.11802735288E+01  0.00000000000E+00 0.  1.
         11    1    3    3    0    0 -0.83596757440E+01  0.33625333475E+01  0.31839635214E+00  0.90162179186E+01  0.51100000000E-03 0. -1.
        -11    1    3    3    0    0 -0.11748503821E+02 -0.38064677507E+02 -0.68516453422E+01  0.40421430701E+02  0.51100000000E-03 0.  1.
         12    1    3    3    0    0  0.19045113471E+02  0.35193949590E+02  0.66783816911E+01  0.40570077852E+02  0.00000000000E+00 0. -1.
</event>
<event>
 7    1  0.1756449E-015  0.9000772E+02  0.7816164E-02  0.1186339E+00
        -11   -1    0    0    0    0  0.00000000000E+00  0.00000000000E+00  0.45593999997E+02  0.45594000000E+02  0.51100000000E-03 0.  1.
         11   -1    0    0    0    0 -0.00000000000E+00 -0.00000000000E+00 -0.45593999997E+02  0.45594000000E+02  0.51100000000E-03 0. -1.
    9900012    2    1    2    0    0  0.23524881379E+00  0.11435495687E+01 -0.17326235672E+00  0.90007717210E+02  0.89999978277E+02 0.  0.
        -12    1    1    2    0    0 -0.23524881379E+00 -0.11435495687E+01  0.17326235672E+00  0.11802827901E+01  0.00000000000E+00 0.  1.
         11    1    3    3    0    0 -0.32714671593E+02 -0.12365571169E+02  0.14470463182E+02  0.37849060659E+02  0.51100000000E-03 0. -1.
        -11    1    3    3    0    0  0.59324345575E+00 -0.99637530636E+01 -0.15906939383E+01  0.10107354766E+02  0.51100000000E-03 0.  1.
        -12    1    3    3    0    0  0.32356676951E+02  0.23472873801E+02 -0.13053031600E+02  0.42051301785E+02  0.00000000000E+00 0.  1.
</event>
<event>
 7    1  0.1756449E-015  0.9000775E+02  0.7816164E-02  0.1186339E+00
        -11   -1    0    0    0    0  0.00000000000E+00  0.00000000000E+00  0.45593999997E+02  0.45594000000E+02  0.51100000000E-03 0. -1.
         11   -1    0    0    0    0 -0.00000000000E+00 -0.00000000000E+00 -0.45593999997E+02  0.45594000000E+02  0.51100000000E-03 0.  1.
    9900012    2    1    2    0    0 -0.81689580478E+00 -0.59513658796E+00 -0.60950144175E+00  0.90007746501E+02  0.90000007955E+02 0.  0.
        -12    1    1    2    0    0  0.81689580478E+00  0.59513658796E+00  0.60950144175E+00  0.11802534989E+01  0.00000000000E+00 0.  1.
         11    1    3    3    0    0  0.82440094741E+01 -0.98842815908E+01  0.37367385993E+02  0.39521946447E+02  0.51100000000E-03 0. -1.
        -11    1    3    3    0    0  0.10043730312E+02  0.30996702021E+01 -0.44710699284E+01  0.11422562782E+02  0.51100000000E-03 0.  1.
        -12    1    3    3    0    0 -0.19104635591E+02  0.61894748007E+01 -0.33505817506E+02  0.39063237272E+02  0.00000000000E+00 0.  1.
</event>
<event>
 7    1  0.1756449E-015  0.9000779E+02  0.7816164E-02  0.1186339E+00
        -11   -1    0    0    0    0  0.00000000000E+00  0.00000000000E+00  0.45593999997E+02  0.45594000000E+02  0.51100000000E-03 0.  1.
         11   -1    0    0    0    0 -0.00000000000E+00 -0.00000000000E+00 -0.45593999997E+02  0.45594000000E+02  0.51100000000E-03 0. -1.
    9900012    2    1    2    0    0 -0.76553717803E+00 -0.63468555636E+00 -0.63562999748E+00  0.90007788824E+02  0.90000050836E+02 0.  0.
        -12    1    1    2    0    0  0.76553717803E+00  0.63468555636E+00  0.63562999748E+00  0.11802111761E+01  0.00000000000E+00 0.  1.
         11    1    3    3    0    0 -0.28145622967E+02 -0.13951833026E+02 -0.23431238121E+02  0.39189956074E+02  0.51100000000E-03 0. -1.
        -11    1    3    3    0    0 -0.18034879552E+01 -0.86803031344E+01  0.40968428438E+01  0.97664913279E+01  0.51100000000E-03 0.  1.
        -12    1    3    3    0    0  0.29183573744E+02  0.21997450604E+02  0.18698765279E+02  0.41051341422E+02  0.00000000000E+00 0.  1.
</event>
<event>
 7    1  0.1756449E-015  0.9000772E+02  0.7816164E-02  0.1186339E+00
        -11   -1    0    0    0    0  0.00000000000E+00  0.00000000000E+00  0.45593999997E+02  0.45594000000E+02  0.51100000000E-03 0. -1.
         11   -1    0    0    0    0 -0.00000000000E+00 -0.00000000000E+00 -0.45593999997E+02  0.45594000000E+02  0.51100000000E-03 0.  1.
    9900012    2    1    2    0    0 -0.72324344922E+00 -0.88646607601E+00 -0.29008272566E+00  0.90007724109E+02  0.89999985267E+02 0.  0.
        -12    1    1    2    0    0  0.72324344922E+00  0.88646607601E+00  0.29008272566E+00  0.11802758908E+01  0.00000000000E+00 0.  1.
         11    1    3    3    0    0  0.23276757808E+02 -0.25766661610E+02 -0.20349912560E+01  0.34783178324E+02  0.51100000000E-03 0. -1.
        -11    1    3    3    0    0  0.93465115122E+01 -0.29222286053E+01  0.61843114732E+01  0.11581986277E+02  0.51100000000E-03 0.  1.
        -12    1    3    3    0    0 -0.33346512770E+02  0.27802424140E+02 -0.44394029429E+01  0.43642559508E+02  0.00000000000E+00 0.  1.
</event>
<event>
 7    1  0.1756449E-015  0.9000772E+02  0.7816164E-02  0.1186339E+00
        -11   -1    0    0    0    0  0.00000000000E+00  0.00000000000E+00  0.45593999997E+02  0.45594000000E+02  0.51100000000E-03 0.  1.
         11   -1    0    0    0    0 -0.00000000000E+00 -0.00000000000E+00 -0.45593999997E+02  0.45594000000E+02  0.51100000000E-03 0. -1.
    9900012    2    1    2    0    0 -0.93807313075E-02 -0.59561085831E+00 -0.10189355947E+01  0.90007716119E+02  0.89999977172E+02 0.  0.
        -12    1    1    2    0    0  0.93807313075E-02  0.59561085831E+00  0.10189355947E+01  0.11802838806E+01  0.00000000000E+00 0.  1.
         11    1    3    3    0    0  0.21257314436E+01 -0.28841647192E+01 -0.78339883488E+01  0.86144363720E+01  0.51100000000E-03 0. -1.
        -11    1    3    3    0    0 -0.51521243162E+01 -0.38506769633E+02  0.10716673499E+02  0.40300903013E+02  0.51100000000E-03 0.  1.
         12    1    3    3    0    0  0.30170121412E+01  0.40795323494E+02 -0.39016207447E+01  0.41092376734E+02  0.00000000000E+00 0. -1.
</event>
<event>
 7    1  0.1756449E-015  0.9000775E+02  0.7816164E-02  0.1186339E+00
        -11   -1    0    0    0    0  0.00000000000E+00  0.00000000000E+00  0.45593999997E+02  0.45594000000E+02  0.51100000000E-03 0.  1.
         11   -1    0    0    0    0 -0.00000000000E+00 -0.00000000000E+00 -0.45593999997E+02  0.45594000000E+02  0.51100000000E-03 0. -1.
    9900012    2    1    2    0    0 -0.93131411130E+00  0.61003948576E+00 -0.39178384545E+00  0.90007750565E+02  0.90000012072E+02 0.  0.
        -12    1    1    2    0    0  0.93131411130E+00 -0.61003948576E+00  0.39178384545E+00  0.11802494353E+01  0.00000000000E+00 0.  1.
         11    1    3    3    0    0  0.30115884549E+01 -0.23684213537E+01  0.56483147117E+01  0.68251405900E+01  0.51100000000E-03 0. -1.
        -11    1    3    3    0    0 -0.16935612760E+02  0.39637072811E+02  0.31504654051E+01  0.43218490870E+02  0.51100000000E-03 0.  1.
         12    1    3    3    0    0  0.12992710194E+02 -0.36658611971E+02 -0.91905639623E+01  0.39964119104E+02  0.00000000000E+00 0. -1.
</event>
<event>
 7    1  0.1756449E-015  0.9000749E+02  0.7816164E-02  0.1186340E+00
        -11   -1    0    0    0    0  0.00000000000E+00  0.00000000000E+00  0.45593999997E+02  0.45594000000E+02  0.51100000000E-03 0. -1.
         11   -1    0    0    0    0 -0.00000000000E+00 -0.00000000000E+00 -0.45593999997E+02  0.45594000000E+02  0.51100000000E-03 0.  1.
    9900012    2    1    2    0    0 -0.38154373155E-01 -0.11606821984E+01 -0.21207639658E+00  0.90007485146E+02  0.89999743150E+02 0.  0.
        -12    1    1    2    0    0  0.38154373155E-01  0.11606821984E+01  0.21207639658E+00  0.11805148537E+01  0.00000000000E+00 0.  1.
         11    1    3    3    0    0  0.18826953050E+02  0.21015342794E+02  0.21652639011E+02  0.35565932721E+02  0.51100000000E-03 0. -1.
        -11    1    3    3    0    0 -0.12989196154E+01  0.10018073510E+02  0.25057169353E+01  0.10408054892E+02  0.51100000000E-03 0.  1.
        -12    1    3    3    0    0 -0.17566187808E+02 -0.32194098503E+02 -0.24370432342E+02  0.44033497534E+02  0.00000000000E+00 0.  1.
</event>
<event>
 7    1  0.1756449E-015  0.9000787E+02  0.7816164E-02  0.1186339E+00
        -11   -1    0    0    0    0  0.00000000000E+00  0.00000000000E+00  0.45593999997E+02  0.45594000000E+02  0.51100000000E-03 0. -1.
         11   -1    0    0    0    0 -0.00000000000E+00 -0.00000000000E+00 -0.45593999997E+02  0.45594000000E+02  0.51100000000E-03 0.  1.
    9900012    2    1    2    0    0 -0.11670991422E+01  0.14206573377E+00 -0.10204983573E+00  0.90007865580E+02  0.90000128606E+02 0.  0.
        -12    1    1    2    0    0  0.11670991422E+01 -0.14206573377E+00  0.10204983573E+00  0.11801344200E+01  0.00000000000E+00 0.  1.
         11    1    3    3    0    0 -0.40451560823E+01 -0.66232883512E+01 -0.86673190806E+01  0.11634159042E+02  0.51100000000E-03 0. -1.
        -11    1    3    3    0    0  0.67354674626E+01 -0.30597868034E+02  0.22216736354E+02  0.38408064578E+02  0.51100000000E-03 0.  1.
         12    1    3    3    0    0 -0.38574105225E+01  0.37363222119E+02 -0.13651467109E+02  0.39965641960E+02  0.00000000000E+00 0. -1.
</event>
<event>
 7    1  0.1756449E-015  0.9000782E+02  0.7816164E-02  0.1186339E+00
        -11   -1    0    0    0    0  0.00000000000E+00  0.00000000000E+00  0.45593999997E+02  0.45594000000E+02  0.51100000000E-03 0.  1.
         11   -1    0    0    0    0 -0.00000000000E+00 -0.00000000000E+00 -0.45593999997E+02  0.45594000000E+02  0.51100000000E-03 0. -1.
    9900012    2    1    2    0    0  0.11614480273E+01  0.16898009289E+00  0.12368233560E+00  0.90007824966E+02  0.90000087455E+02 0.  0.
        -12    1    1    2    0    0 -0.11614480273E+01 -0.16898009289E+00 -0.12368233560E+00  0.11801750345E+01  0.00000000000E+00 0.  1.
         11    1    3    3    0    0  0.26830536338E+01 -0.89530671447E+01  0.73624834754E+00  0.93754066573E+01  0.51100000000E-03 0. -1.
        -11    1    3    3    0    0  0.74636943903E+01  0.72303990503E+01  0.38798394750E+02  0.40165916395E+02  0.51100000000E-03 0.  1.
         12    1    3    3    0    0 -0.89852999969E+01  0.18916481874E+01 -0.39410960762E+02  0.40466501913E+02  0.00000000000E+00 0. -1.
</event>
<event>
 7    1  0.1756449E-015  0.9000773E+02  0.7816164E-02  0.1186339E+00
        -11   -1    0    0    0    0  0.00000000000E+00  0.00000000000E+00  0.45593999997E+02  0.45594000000E+02  0.51100000000E-03 0. -1.
         11   -1    0    0    0    0 -0.00000000000E+00 -0.00000000000E+00 -0.45593999997E+02  0.45594000000E+02  0.51100000000E-03 0.  1.
    9900012    2    1    2    0    0  0.47675427052E+00 -0.16798424029E+00  0.10665475095E+01  0.90007730146E+02  0.89999991383E+02 0.  0.
        -12    1    1    2    0    0 -0.47675427052E+00  0.16798424029E+00 -0.10665475095E+01  0.11802698545E+01  0.00000000000E+00 0.  1.
         11    1    3    3    0    0 -0.20958249760E+02  0.27608950532E+02  0.23306430266E+02  0.41769511303E+02  0.51100000000E-03 0. -1.
        -11    1    3    3    0    0  0.81356143758E+01  0.33705428038E+01 -0.30986177505E+01  0.93354278043E+01  0.51100000000E-03 0.  1.
        -12    1    3    3    0    0  0.13299389655E+02 -0.31147477576E+02 -0.19141265006E+02  0.38902791038E+02  0.00000000000E+00 0.  1.
</event>
<event>
 7    1  0.1756449E-015  0.9000788E+02  0.7816164E-02  0.1186339E+00
        -11   -1    0    0    0    0  0.00000000000E+00  0.00000000000E+00  0.45593999997E+02  0.45594000000E+02  0.51100000000E-03 0.  1.
         11   -1    0    0    0    0 -0.00000000000E+00 -0.00000000000E+00 -0.45593999997E+02  0.45594000000E+02  0.51100000000E-03 0. -1.
    9900012    2    1    2    0    0  0.69557846289E+00 -0.93289819853E+00  0.19635137613E+00  0.90007880383E+02  0.90000143604E+02 0.  0.
        -12    1    1    2    0    0 -0.69557846289E+00  0.93289819853E+00 -0.19635137613E+00  0.11801196167E+01  0.00000000000E+00 0.  1.
         11    1    3    3    0    0  0.67577118871E+01 -0.64451278644E+01  0.30920646746E+01  0.98370324464E+01  0.51100000000E-03 0. -1.
        -11    1    3    3    0    0 -0.12909206328E+01 -0.34985362294E+02  0.11619071609E+02  0.36886920124E+02  0.51100000000E-03 0.  1.
         12    1    3    3    0    0 -0.47712127914E+01  0.40497591960E+02 -0.14514784908E+02  0.43283927813E+02  0.00000000000E+00 0. -1.
</event>
<event>
 7    1  0.1756449E-015  0.9000759E+02  0.7816164E-02  0.1186339E+00
        -11   -1    0    0    0    0  0.00000000000E+00  0.00000000000E+00  0.45593999997E+02  0.45594000000E+02  0.51100000000E-03 0.  1.
         11   -1    0    0    0    0 -0.00000000000E+00 -0.00000000000E+00 -0.45593999997E+02  0.45594000000E+02  0.51100000000E-03 0. -1.
    9900012    2    1    2    0    0  0.98038057574E+00  0.50019987780E+00 -0.42663780831E+00  0.90007590829E+02  0.89999850228E+02 0.  0.
        -12    1    1    2    0    0 -0.98038057574E+00 -0.50019987780E+00  0.42663780831E+00  0.11804091708E+01  0.00000000000E+00 0.  1.
         11    1    3    3    0    0 -0.13460513111E+01  0.18241682238E+02 -0.31320058606E+02  0.36270055092E+02  0.51100000000E-03 0. -1.
        -11    1    3    3    0    0  0.56273420050E+01  0.40745554535E+01 -0.70164472809E+01  0.98741841634E+01  0.51100000000E-03 0.  1.
        -12    1    3    3    0    0 -0.33009101182E+01 -0.21816037814E+02  0.37909868079E+02  0.43863351574E+02  0.00000000000E+00 0.  1.
</event>
<event>
 7    1  0.1756449E-015  0.9000771E+02  0.7816164E-02  0.1186339E+00
        -11   -1    0    0    0    0  0.00000000000E+00  0.00000000000E+00  0.45593999997E+02  0.45594000000E+02  0.51100000000E-03 0.  1.
         11   -1    0    0    0    0 -0.00000000000E+00 -0.00000000000E+00 -0.45593999997E+02  0.45594000000E+02  0.51100000000E-03 0. -1.
    9900012    2    1    2    0    0  0.17781782165E+00 -0.32599071662E+00 -0.11203552499E+01  0.90007709777E+02  0.89999970746E+02 0.  0.
        -12    1    1    2    0    0 -0.17781782165E+00  0.32599071662E+00  0.11203552499E+01  0.11802902232E+01  0.00000000000E+00 0.  1.
         11    1    3    3    0    0 -0.17451749808E+02  0.28327360079E+02 -0.16377761684E+02  0.37084147266E+02  0.51100000000E-03 0. -1.
        -11    1    3    3    0    0  0.54419994035E+00  0.38238019703E+01 -0.84113094370E+01  0.92556869971E+01  0.51100000000E-03 0.  1.
        -12    1    3    3    0    0  0.17085367689E+02 -0.32477152766E+02  0.23668715871E+02  0.43667875513E+02  0.00000000000E+00 0.  1.
</event>
<event>
 7    1  0.1756449E-015  0.9000774E+02  0.7816164E-02  0.1186339E+00
        -11   -1    0    0    0    0  0.00000000000E+00  0.00000000000E+00  0.45593999997E+02  0.45594000000E+02  0.51100000000E-03 0. -1.
         11   -1    0    0    0    0 -0.00000000000E+00 -0.00000000000E+00 -0.45593999997E+02  0.45594000000E+02  0.51100000000E-03 0.  1.
    9900012    2    1    2    0    0  0.29357935964E+00 -0.11429210526E+01  0.23679672891E-01  0.90007738122E+02  0.89999999466E+02 0.  0.
        -12    1    1    2    0    0 -0.29357935964E+00  0.11429210526E+01 -0.23679672891E-01  0.11802618776E+01  0.00000000000E+00 0.  1.
         11    1    3    3    0    0  0.39097986514E+01  0.50880794227E+01  0.29184826649E+02  0.29881920696E+02  0.51100000000E-03 0. -1.
        -11    1    3    3    0    0  0.94468553519E+01 -0.15657782083E+02  0.77432479105E+01  0.19858678311E+02  0.51100000000E-03 0.  1.
        -12    1    3    3    0    0 -0.13063074644E+02  0.94267816075E+01 -0.36904394886E+02  0.40267139115E+02  0.00000000000E+00 0.  1.
</event>
<event>
 7    1  0.1756449E-015  0.9000772E+02  0.7816164E-02  0.1186339E+00
        -11   -1    0    0    0    0  0.00000000000E+00  0.00000000000E+00  0.45593999997E+02  0.45594000000E+02  0.51100000000E-03 0.  1.
         11   -1    0    0    0    0 -0.00000000000E+00 -0.00000000000E+00 -0.45593999997E+02  0.45594000000E+02  0.51100000000E-03 0. -1.
    9900012    2    1    2    0    0 -0.80446105752E+00  0.66618335696E-01 -0.86108848990E+00  0.90007716567E+02  0.89999977625E+02 0.  0.
        -12    1    1    2    0    0  0.80446105752E+00 -0.66618335696E-01  0.86108848990E+00  0.11802834334E+01  0.00000000000E+00 0.  1.
         11    1    3    3    0    0 -0.54836773739E+01 -0.41282357094E+01  0.47895980674E+01  0.83697847954E+01  0.51100000000E-03 0. -1.
        -11    1    3    3    0    0 -0.17437501398E+02 -0.29992527434E+02  0.12741686976E+02  0.36959014382E+02  0.51100000000E-03 0.  1.
         12    1    3    3    0    0  0.22116717714E+02  0.34187381479E+02 -0.18392373533E+02  0.44678917389E+02  0.00000000000E+00 0. -1.
</event>
<event>
 7    1  0.1756449E-015  0.9000772E+02  0.7816164E-02  0.1186339E+00
        -11   -1    0    0    0    0  0.00000000000E+00  0.00000000000E+00  0.45593999997E+02  0.45594000000E+02  0.51100000000E-03 0. -1.
         11   -1    0    0    0    0 -0.00000000000E+00 -0.00000000000E+00 -0.45593999997E+02  0.45594000000E+02  0.51100000000E-03 0.  1.
    9900012    2    1    2    0    0 -0.23924971412E+00  0.11278895107E+00  0.11502633066E+01  0.90007717217E+02  0.89999978284E+02 0.  0.
        -12    1    1    2    0    0  0.23924971412E+00 -0.11278895107E+00 -0.11502633066E+01  0.11802827829E+01  0.00000000000E+00 0.  1.
         11    1    3    3    0    0  0.17640687782E+02 -0.26785250299E+01  0.30654244467E+02  0.35469015575E+02  0.51100000000E-03 0. -1.
        -11    1    3    3    0    0  0.11909211610E+02  0.16038263969E+01  0.78069374267E+00  0.12042053947E+02  0.51100000000E-03 0.  1.
        -12    1    3    3    0    0 -0.29789149107E+02  0.11874875841E+01 -0.30284674903E+02  0.42496647694E+02  0.00000000000E+00 0.  1.
</event>
<event>
 7    1  0.1756449E-015  0.9000777E+02  0.7816164E-02  0.1186339E+00
        -11   -1    0    0    0    0  0.00000000000E+00  0.00000000000E+00  0.45593999997E+02  0.45594000000E+02  0.51100000000E-03 0. -1.
         11   -1    0    0    0    0 -0.00000000000E+00 -0.00000000000E+00 -0.45593999997E+02  0.45594000000E+02  0.51100000000E-03 0.  1.
    9900012    2    1    2    0    0  0.11389235541E+01 -0.13902968713E+00  0.27653154423E+00  0.90007768747E+02  0.90000030494E+02 0.  0.
        -12    1    1    2    0    0 -0.11389235541E+01  0.13902968713E+00 -0.27653154423E+00  0.11802312531E+01  0.00000000000E+00 0.  1.
         11    1    3    3    0    0  0.46909923331E+01  0.69762040497E+01 -0.36298785947E+01  0.91569018170E+01  0.51100000000E-03 0. -1.
        -11    1    3    3    0    0 -0.29212547010E+02  0.54074273553E+01  0.29963696186E+02  0.42195216113E+02  0.51100000000E-03 0.  1.
         12    1    3    3    0    0  0.25660478231E+02 -0.12522661092E+02 -0.26057286047E+02  0.38655650817E+02  0.00000000000E+00 0. -1.
</event>
<event>
 7    1  0.1756449E-015  0.9000772E+02  0.7816164E-02  0.1186339E+00
        -11   -1    0    0    0    0  0.00000000000E+00  0.00000000000E+00  0.45593999997E+02  0.45594000000E+02  0.51100000000E-03 0. -1.
         11   -1    0    0    0    0 -0.00000000000E+00 -0.00000000000E+00 -0.45593999997E+02  0.45594000000E+02  0.51100000000E-03 0.  1.
    9900012    2    1    2    0    0  0.88878898086E+00 -0.75611795974E+00  0.17718743321E+00  0.90007722233E+02  0.89999983366E+02 0.  0.
        -12    1    1    2    0    0 -0.88878898086E+00  0.75611795974E+00 -0.17718743321E+00  0.11802777673E+01  0.00000000000E+00 0.  1.
         11    1    3    3    0    0 -0.11740142475E+01 -0.40859148613E+02 -0.99974616211E+01  0.42080845690E+02  0.51100000000E-03 0. -1.
        -11    1    3    3    0    0 -0.10965624127E+01  0.86951029839E+01 -0.76868788832E+01  0.11657417049E+02  0.51100000000E-03 0.  1.
        -12    1    3    3    0    0  0.31593656410E+01  0.31407927669E+02  0.17861527938E+02  0.36269459494E+02  0.00000000000E+00 0.  1.
</event>
<event>
 7    1  0.1756449E-015  0.9000772E+02  0.7816164E-02  0.1186339E+00
        -11   -1    0    0    0    0  0.00000000000E+00  0.00000000000E+00  0.45593999997E+02  0.45594000000E+02  0.51100000000E-03 0. -1.
         11   -1    0    0    0    0 -0.00000000000E+00 -0.00000000000E+00 -0.45593999997E+02  0.45594000000E+02  0.51100000000E-03 0.  1.
    9900012    2    1    2    0    0  0.46678800962E+00 -0.21130854953E+00  0.10632535998E+01  0.90007724368E+02  0.89999985530E+02 0.  0.
        -12    1    1    2    0    0 -0.46678800962E+00  0.21130854953E+00 -0.10632535998E+01  0.11802756316E+01  0.00000000000E+00 0.  1.
         11    1    3    3    0    0  0.69948895828E+01  0.67457635694E+01  0.45880853803E+01  0.10746363763E+02  0.51100000000E-03 0. -1.
        -11    1    3    3    0    0  0.18803887829E+02 -0.23239242194E+02 -0.27615631644E+02  0.40697317929E+02  0.51100000000E-03 0.  1.
         12    1    3    3    0    0 -0.25331989403E+02  0.16282170075E+02  0.24090799864E+02  0.38564042676E+02  0.00000000000E+00 0. -1.
</event>
<event>
 7    1  0.1756449E-015  0.9000793E+02  0.7816164E-02  0.1186339E+00
        -11   -1    0    0    0    0  0.00000000000E+00  0.00000000000E+00  0.45593999997E+02  0.45594000000E+02  0.51100000000E-03 0.  1.
         11   -1    0    0    0    0 -0.00000000000E+00 -0.00000000000E+00 -0.45593999997E+02  0.45594000000E+02  0.51100000000E-03 0. -1.
    9900012    2    1    2    0    0  0.29359553443E+00 -0.32073123765E+00 -0.10970357788E+01  0.90007934593E+02  0.90000198530E+02 0.  0.
        -12    1    1    2    0    0 -0.29359553443E+00  0.32073123765E+00  0.10970357788E+01  0.11800654069E+01  0.00000000000E+00 0.  1.
         11    1    3    3    0    0 -0.81957912951E+01  0.16233839931E+01 -0.31721279936E+01  0.89369327406E+01  0.51100000000E-03 0. -1.
        -11    1    3    3    0    0 -0.30531963294E+02 -0.20219811679E+02  0.82602480833E+01  0.37540288566E+02  0.51100000000E-03 0.  1.
         12    1    3    3    0    0  0.39021350124E+02  0.18275696448E+02 -0.61851558685E+01  0.43530713287E+02  0.00000000000E+00 0. -1.
</event>
<event>
 7    1  0.1756449E-015  0.9000769E+02  0.7816164E-02  0.1186339E+00
        -11   -1    0    0    0    0  0.00000000000E+00  0.00000000000E+00  0.45593999997E+02  0.45594000000E+02  0.51100000000E-03 0. -1.
         11   -1    0    0    0    0 -0.00000000000E+00 -0.00000000000E+00 -0.45593999997E+02  0.45594000000E+02  0.51100000000E-03 0.  1.
    9900012    2    1    2    0    0 -0.78785466140E+00 -0.65940046637E+00 -0.58104928412E+00  0.90007685545E+02  0.89999946194E+02 0.  0.
        -12    1    1    2    0    0  0.78785466140E+00  0.65940046637E+00  0.58104928412E+00  0.11803144552E+01  0.00000000000E+00 0.  1.
         11    1    3    3    0    0 -0.99975805975E+01 -0.22249675458E+01  0.15842430093E+01  0.10363972431E+02  0.51100000000E-03 0. -1.
        -11    1    3    3    0    0 -0.70704435215E+01  0.37191990301E+02 -0.11131425463E+02  0.39460663290E+02  0.51100000000E-03 0.  1.
         12    1    3    3    0    0  0.16280169458E+02 -0.35626423222E+02  0.89661331697E+01  0.40183049824E+02  0.00000000000E+00 0. -1.
</event>
<event>
 7    1  0.1756449E-015  0.9000778E+02  0.7816164E-02  0.1186339E+00
        -11   -1    0    0    0    0  0.00000000000E+00  0.00000000000E+00  0.45593999997E+02  0.45594000000E+02  0.51100000000E-03 0. -1.
         11   -1    0    0    0    0 -0.00000000000E+00 -0.00000000000E+00 -0.45593999997E+02  0.45594000000E+02  0.51100000000E-03 0.  1.
    9900012    2    1    2    0    0  0.66705640840E+00 -0.22948333671E-01 -0.97335948255E+00  0.90007779868E+02  0.90000041762E+02 0.  0.
        -12    1    1    2    0    0 -0.66705640840E+00  0.22948333671E-01  0.97335948255E+00  0.11802201321E+01  0.00000000000E+00 0.  1.
         11    1    3    3    0    0  0.16481726031E+02 -0.11383988860E+02  0.32679802673E+02  0.38330301307E+02  0.51100000000E-03 0. -1.
        -11    1    3    3    0    0 -0.59835200399E+01  0.17684286928E+01  0.66375726811E+01  0.91097323489E+01  0.51100000000E-03 0.  1.
        -12    1    3    3    0    0 -0.98311495823E+01  0.95926118334E+01 -0.40290734836E+02  0.42567746212E+02  0.00000000000E+00 0.  1.
</event>
<event>
 7    1  0.1756449E-015  0.9000771E+02  0.7816164E-02  0.1186339E+00
        -11   -1    0    0    0    0  0.00000000000E+00  0.00000000000E+00  0.45593999997E+02  0.45594000000E+02  0.51100000000E-03 0.  1.
         11   -1    0    0    0    0 -0.00000000000E+00 -0.00000000000E+00 -0.45593999997E+02  0.45594000000E+02  0.51100000000E-03 0. -1.
    9900012    2    1    2    0    0 -0.29089637435E+00  0.10077232792E+01 -0.54126602607E+00  0.90007705198E+02  0.89999966107E+02 0.  0.
        -12    1    1    2    0    0  0.29089637435E+00 -0.10077232792E+01  0.54126602607E+00  0.11802948017E+01  0.00000000000E+00 0.  1.
         11    1    3    3    0    0 -0.18356972775E+02 -0.32243567321E+02  0.87861225747E+01  0.38129018257E+02  0.51100000000E-03 0. -1.
        -11    1    3    3    0    0  0.32159427225E+01 -0.20264426705E+01 -0.12888629423E+02  0.13437467252E+02  0.51100000000E-03 0.  1.
        -12    1    3    3    0    0  0.14850133678E+02  0.35277733271E+02  0.35612408222E+01  0.38441219689E+02  0.00000000000E+00 0.  1.
</event>
<event>
 7    1  0.1756449E-015  0.9000768E+02  0.7816164E-02  0.1186339E+00
        -11   -1    0    0    0    0  0.00000000000E+00  0.00000000000E+00  0.45593999997E+02  0.45594000000E+02  0.51100000000E-03 0.  1.
         11   -1    0    0    0    0 -0.00000000000E+00 -0.00000000000E+00 -0.45593999997E+02  0.45594000000E+02  0.51100000000E-03 0. -1.
    9900012    2    1    2    0    0 -0.83112765962E+00 -0.79984219502E+00  0.25027113118E+00  0.90007679551E+02  0.89999940121E+02 0.  0.
        -12    1    1    2    0    0  0.83112765962E+00  0.79984219502E+00 -0.25027113118E+00  0.11803204491E+01  0.00000000000E+00 0.  1.
         11    1    3    3    0    0  0.15637551756E+00 -0.10795923407E+02  0.44995234194E+01  0.11697099076E+02  0.51100000000E-03 0. -1.
        -11    1    3    3    0    0 -0.14796414112E+02  0.31545513568E+02  0.22351603790E+02  0.41396225542E+02  0.51100000000E-03 0.  1.
         12    1    3    3    0    0  0.13808910935E+02 -0.21549432356E+02 -0.26600856079E+02  0.36914354934E+02  0.00000000000E+00 0. -1.
</event>
<event>
 7    1  0.1756449E-015  0.9000778E+02  0.7816164E-02  0.1186339E+00
        -11   -1    0    0    0    0  0.00000000000E+00  0.00000000000E+00  0.45593999997E+02  0.45594000000E+02  0.51100000000E-03 0. -1.
         11   -1    0    0    0    0 -0.00000000000E+00 -0.00000000000E+00 -0.45593999997E+02  0.45594000000E+02  0.51100000000E-03 0.  1.
    9900012    2    1    2    0    0  0.35388747488E-02  0.80500568943E+00  0.86305466072E+00  0.90007783905E+02  0.90000045852E+02 0.  0.
        -12    1    1    2    0    0 -0.35388747488E-02 -0.80500568943E+00 -0.86305466072E+00  0.11802160951E+01  0.00000000000E+00 0.  1.
         11    1    3    3    0    0 -0.21608516336E+01 -0.81379529646E+01  0.17941331932E+01  0.86089762698E+01  0.51100000000E-03 0. -1.
        -11    1    3    3    0    0 -0.16458398537E+02  0.32995329979E+02  0.22328517682E+02  0.43106071324E+02  0.51100000000E-03 0.  1.
         12    1    3    3    0    0  0.18622789045E+02 -0.24052371325E+02 -0.23259596215E+02  0.38292736312E+02  0.00000000000E+00 0. -1.
</event>
<event>
 7    1  0.1756449E-015  0.9000774E+02  0.7816164E-02  0.1186339E+00
        -11   -1    0    0    0    0  0.00000000000E+00  0.00000000000E+00  0.45593999997E+02  0.45594000000E+02  0.51100000000E-03 0.  1.
         11   -1    0    0    0    0 -0.00000000000E+00 -0.00000000000E+00 -0.45593999997E+02  0.45594000000E+02  0.51100000000E-03 0. -1.
    9900012    2    1    2    0    0 -0.10828485119E+01  0.29322309494E+00 -0.36670166895E+00  0.90007741216E+02  0.90000002600E+02 0.  0.
        -12    1    1    2    0    0  0.10828485119E+01 -0.29322309494E+00  0.36670166895E+00  0.11802587840E+01  0.00000000000E+00 0.  1.
         11    1    3    3    0    0 -0.56033099384E+01  0.67373469467E+01 -0.13214434472E+01  0.88620053708E+01  0.51100000000E-03 0. -1.
        -11    1    3    3    0    0  0.25332220034E+02  0.25920948153E+02  0.16273531758E+02  0.39729645872E+02  0.51100000000E-03 0.  1.
         12    1    3    3    0    0 -0.20811758608E+02 -0.32365072005E+02 -0.15318789979E+02  0.41416089973E+02  0.00000000000E+00 0. -1.
</event>
<event>
 7    1  0.1756449E-015  0.9000758E+02  0.7816164E-02  0.1186339E+00
        -11   -1    0    0    0    0  0.00000000000E+00  0.00000000000E+00  0.45593999997E+02  0.45594000000E+02  0.51100000000E-03 0.  1.
         11   -1    0    0    0    0 -0.00000000000E+00 -0.00000000000E+00 -0.45593999997E+02  0.45594000000E+02  0.51100000000E-03 0. -1.
    9900012    2    1    2    0    0 -0.31068041865E+00  0.11050292348E+01 -0.27526653821E+00  0.90007583294E+02  0.89999842594E+02 0.  0.
        -12    1    1    2    0    0  0.31068041865E+00 -0.11050292348E+01  0.27526653821E+00  0.11804167058E+01  0.00000000000E+00 0.  1.
         11    1    3    3    0    0  0.45888177481E+01  0.89040010366E+01 -0.58500607119E+01  0.11600072990E+02  0.51100000000E-03 0. -1.
        -11    1    3    3    0    0  0.28111539499E+02 -0.19604370922E+02  0.20903863306E+02  0.40144258788E+02  0.51100000000E-03 0.  1.
         12    1    3    3    0    0 -0.33011037665E+02  0.11805399121E+02 -0.15329069132E+02  0.38263251516E+02  0.00000000000E+00 0. -1.
</event>
<event>
 7    1  0.1756449E-015  0.9000774E+02  0.7816164E-02  0.1186339E+00
        -11   -1    0    0    0    0  0.00000000000E+00  0.00000000000E+00  0.45593999997E+02  0.45594000000E+02  0.51100000000E-03 0. -1.
         11   -1    0    0    0    0 -0.00000000000E+00 -0.00000000000E+00 -0.45593999997E+02  0.45594000000E+02  0.51100000000E-03 0.  1.
    9900012    2    1    2    0    0 -0.83866978659E+00 -0.48032251696E+00  0.67745258434E+00  0.90007737853E+02  0.89999999193E+02 0.  0.
        -12    1    1    2    0    0  0.83866978659E+00  0.48032251696E+00 -0.67745258434E+00  0.11802621468E+01  0.00000000000E+00 0.  1.
         11    1    3    3    0    0  0.16060674540E+01  0.81022275825E+01 -0.13801097578E+01  0.83743804350E+01  0.51100000000E-03 0. -1.
        -11    1    3    3    0    0  0.42646816347E+01 -0.24412983114E+02 -0.33773463603E+02  0.41890668388E+02  0.51100000000E-03 0.  1.
         12    1    3    3    0    0 -0.67094188753E+01  0.15830433015E+02  0.35831025945E+02  0.39742689030E+02  0.00000000000E+00 0. -1.
</event>
<event>
 7    1  0.1756449E-015  0.9000776E+02  0.7816164E-02  0.1186339E+00
        -11   -1    0    0    0    0  0.00000000000E+00  0.00000000000E+00  0.45593999997E+02  0.45594000000E+02  0.51100000000E-03 0.  1.
         11   -1    0    0    0    0 -0.00000000000E+00 -0.00000000000E+00 -0.45593999997E+02  0.45594000000E+02  0.51100000000E-03 0. -1.
    9900012    2    1    2    0    0 -0.89960511972E+00  0.69664340899E+00 -0.31363698094E+00  0.90007758683E+02  0.90000020298E+02 0.  0.
        -12    1    1    2    0    0  0.89960511972E+00 -0.69664340899E+00  0.31363698094E+00  0.11802413171E+01  0.00000000000E+00 0.  1.
         11    1    3    3    0    0  0.24289598713E+02  0.22477495137E+02  0.18297666483E+02  0.37815697696E+02  0.51100000000E-03 0. -1.
        -11    1    3    3    0    0  0.11998488412E+01  0.79398548926E+01  0.58963256499E+00  0.80516209412E+01  0.51100000000E-03 0.  1.
        -12    1    3    3    0    0 -0.26389052674E+02 -0.29720706621E+02 -0.19200936028E+02  0.44140440046E+02  0.00000000000E+00 0.  1.
</event>
<event>
 7    1  0.1756449E-015  0.9000776E+02  0.7816164E-02  0.1186339E+00
        -11   -1    0    0    0    0  0.00000000000E+00  0.00000000000E+00  0.45593999997E+02  0.45594000000E+02  0.51100000000E-03 0. -1.
         11   -1    0    0    0    0 -0.00000000000E+00 -0.00000000000E+00 -0.45593999997E+02  0.45594000000E+02  0.51100000000E-03 0.  1.
    9900012    2    1    2    0    0  0.31340011582E-01 -0.70250496366E+00 -0.94787149325E+00  0.90007764520E+02  0.90000026212E+02 0.  0.
        -12    1    1    2    0    0 -0.31340011582E-01  0.70250496366E+00  0.94787149325E+00  0.11802354799E+01  0.00000000000E+00 0.  1.
         11    1    3    3    0    0 -0.28795461893E+01 -0.82490180482E+01 -0.34738954297E+01  0.94024483372E+01  0.51100000000E-03 0. -1.
        -11    1    3    3    0    0  0.14519460659E+02 -0.32101780228E+02  0.13708937066E+02  0.37805740138E+02  0.51100000000E-03 0.  1.
         12    1    3    3    0    0 -0.11608574458E+02  0.39648293313E+02 -0.11182913130E+02  0.42799576045E+02  0.00000000000E+00 0. -1.
</event>
<event>
 7    1  0.1756449E-015  0.9000775E+02  0.7816164E-02  0.1186339E+00
        -11   -1    0    0    0    0  0.00000000000E+00  0.00000000000E+00  0.45593999997E+02  0.45594000000E+02  0.51100000000E-03 0. -1.
         11   -1    0    0    0    0 -0.00000000000E+00 -0.00000000000E+00 -0.45593999997E+02  0.45594000000E+02  0.51100000000E-03 0.  1.
    9900012    2    1    2    0    0 -0.10507798684E+01 -0.50907668816E+00  0.17228716545E+00  0.90007754147E+02  0.90000015702E+02 0.  0.
        -12    1    1    2    0    0  0.10507798684E+01  0.50907668816E+00 -0.17228716545E+00  0.11802458530E+01  0.00000000000E+00 0.  1.
         11    1    3    3    0    0  0.15031971920E+01  0.85156455050E+01  0.30973344407E+01  0.91852763194E+01  0.51100000000E-03 0. -1.
        -11    1    3    3    0    0  0.32962421881E+02  0.13659769963E+02 -0.12130195943E+02  0.37686233900E+02  0.51100000000E-03 0.  1.
         12    1    3    3    0    0 -0.35516398941E+02 -0.22684492156E+02  0.92051486677E+01  0.43136243927E+02  0.00000000000E+00 0. -1.
</event>
<event>
 7    1  0.1953865E-015  0.9000705E+02  0.7816164E-02  0.1186340E+00
        -11   -1    0    0    0    0  0.00000000000E+00  0.00000000000E+00  0.45593999997E+02  0.45594000000E+02  0.51100000000E-03 0.  1.
         11   -1    0    0    0    0 -0.00000000000E+00 -0.00000000000E+00 -0.45593999997E+02  0.45594000000E+02  0.51100000000E-03 0. -1.
    9900012    2    1    2    0    0  0.10014931222E+01  0.52454367130E+00 -0.34134811791E+00  0.90007045693E+02  0.89999297894E+02 0.  0.
        -12    1    1    2    0    0 -0.10014931222E+01 -0.52454367130E+00  0.34134811791E+00  0.11809543067E+01  0.00000000000E+00 0.  1.
         11    1    3    3    0    0 -0.58730408769E+01  0.73331771203E+01  0.49094401463E+00  0.94079286831E+01  0.51100000000E-03 0. -1.
        -11    1    3    3    0    0 -0.55698950624E+01 -0.41673182691E+02  0.73637219883E+01  0.42683747356E+02  0.51100000000E-03 0.  1.
         12    1    3    3    0    0  0.12444429061E+02  0.34864549242E+02 -0.81960141209E+01  0.37915369654E+02  0.00000000000E+00 0. -1.
</event>
<event>
 7    1  0.3111691E-015  0.9000777E+02  0.7816164E-02  0.1186339E+00
        -11   -1    0    0    0    0  0.00000000000E+00  0.00000000000E+00  0.45593999997E+02  0.45594000000E+02  0.51100000000E-03 0. -1.
         11   -1    0    0    0    0 -0.00000000000E+00 -0.00000000000E+00 -0.45593999997E+02  0.45594000000E+02  0.51100000000E-03 0.  1.
    9900012    2    1    2    0    0 -0.63107738226E+00  0.59440405473E+00  0.80085099548E+00  0.90007772412E+02  0.90000034208E+02 0.  0.
        -12    1    1    2    0    0  0.63107738226E+00 -0.59440405473E+00 -0.80085099548E+00  0.11802275881E+01  0.00000000000E+00 0.  1.
         11    1    3    3    0    0  0.18720392989E+01 -0.40855256851E+01 -0.85788848228E+01  0.96846949526E+01  0.51100000000E-03 0. -1.
        -11    1    3    3    0    0 -0.16571031496E+02 -0.11388046362E+02 -0.29654608268E+02  0.35828514853E+02  0.51100000000E-03 0.  1.
         12    1    3    3    0    0  0.14067914815E+02  0.16067976101E+02  0.39034344086E+02  0.44494562606E+02  0.00000000000E+00 0. -1.
</event>
<event>
 7    1  0.1756449E-015  0.9000759E+02  0.7816164E-02  0.1186339E+00
        -11   -1    0    0    0    0  0.00000000000E+00  0.00000000000E+00  0.45593999997E+02  0.45594000000E+02  0.51100000000E-03 0.  1.
         11   -1    0    0    0    0 -0.00000000000E+00 -0.00000000000E+00 -0.45593999997E+02  0.45594000000E+02  0.51100000000E-03 0. -1.
    9900012    2    1    2    0    0  0.18661933635E+00  0.11648856582E+01 -0.39899652294E-01  0.90007585939E+02  0.89999845273E+02 0.  0.
        -12    1    1    2    0    0 -0.18661933635E+00 -0.11648856582E+01  0.39899652294E-01  0.11804140611E+01  0.00000000000E+00 0.  1.
         11    1    3    3    0    0  0.14829626630E+02  0.85484595017E+01  0.26445050654E+02  0.31501344261E+02  0.51100000000E-03 0. -1.
        -11    1    3    3    0    0  0.12593551340E+02 -0.18802165042E+02 -0.11889462795E+02  0.25563221069E+02  0.51100000000E-03 0.  1.
        -12    1    3    3    0    0 -0.27236558634E+02  0.11418591199E+02 -0.14595487512E+02  0.32943020609E+02  0.00000000000E+00 0.  1.
</event>
<event>
 7    1  0.1756449E-015  0.9000779E+02  0.7816164E-02  0.1186339E+00
        -11   -1    0    0    0    0  0.00000000000E+00  0.00000000000E+00  0.45593999997E+02  0.45594000000E+02  0.51100000000E-03 0. -1.
         11   -1    0    0    0    0 -0.00000000000E+00 -0.00000000000E+00 -0.45593999997E+02  0.45594000000E+02  0.51100000000E-03 0.  1.
    9900012    2    1    2    0    0 -0.95214798846E+00 -0.67971672891E+00 -0.15586150601E+00  0.90007790937E+02  0.90000052977E+02 0.  0.
        -12    1    1    2    0    0  0.95214798846E+00  0.67971672891E+00  0.15586150601E+00  0.11802090631E+01  0.00000000000E+00 0.  1.
         11    1    3    3    0    0  0.54308166549E+01  0.52074322090E+00  0.69373812238E+01  0.88256558706E+01  0.51100000000E-03 0. -1.
        -11    1    3    3    0    0  0.31778020714E+02 -0.11635959783E+02  0.13675272399E+02  0.36500016932E+02  0.51100000000E-03 0.  1.
         12    1    3    3    0    0 -0.38160985358E+02  0.10435499834E+02 -0.20768515129E+02  0.44682118134E+02  0.00000000000E+00 0. -1.
</event>
<event>
 7    1  0.1756449E-015  0.9000769E+02  0.7816164E-02  0.1186339E+00
        -11   -1    0    0    0    0  0.00000000000E+00  0.00000000000E+00  0.45593999997E+02  0.45594000000E+02  0.51100000000E-03 0.  1.
         11   -1    0    0    0    0 -0.00000000000E+00 -0.00000000000E+00 -0.45593999997E+02  0.45594000000E+02  0.51100000000E-03 0. -1.
    9900012    2    1    2    0    0  0.54985563915E+00 -0.10363411453E+01  0.12952613600E+00  0.90007694441E+02  0.89999955207E+02 0.  0.
        -12    1    1    2    0    0 -0.54985563915E+00  0.10363411453E+01 -0.12952613600E+00  0.11803055593E+01  0.00000000000E+00 0.  1.
         11    1    3    3    0    0  0.40458165814E+01  0.52479208118E+01  0.75767829121E+01  0.10065631834E+02  0.51100000000E-03 0. -1.
        -11    1    3    3    0    0  0.28795765331E+02  0.13883071762E+02  0.15460056233E+02  0.35509845417E+02  0.51100000000E-03 0.  1.
         12    1    3    3    0    0 -0.32291726274E+02 -0.20167333719E+02 -0.22907313009E+02  0.44432217189E+02  0.00000000000E+00 0. -1.
</event>
<event>
 7    1  0.1756449E-015  0.9000785E+02  0.7816164E-02  0.1186339E+00
        -11   -1    0    0    0    0  0.00000000000E+00  0.00000000000E+00  0.45593999997E+02  0.45594000000E+02  0.51100000000E-03 0.  1.
         11   -1    0    0    0    0 -0.00000000000E+00 -0.00000000000E+00 -0.45593999997E+02  0.45594000000E+02  0.51100000000E-03 0. -1.
    9900012    2    1    2    0    0 -0.24192622876E+00  0.11548420953E+01 -0.23905918454E-01  0.90007847443E+02  0.90000110229E+02 0.  0.
        -12    1    1    2    0    0  0.24192622876E+00 -0.11548420953E+01  0.23905918454E-01  0.11801525571E+01  0.00000000000E+00 0.  1.
         11    1    3    3    0    0 -0.22272603843E+02  0.25960213595E+02 -0.13192548329E+02  0.36661217977E+02  0.51100000000E-03 0. -1.
        -11    1    3    3    0    0 -0.29054442417E+00  0.10185476995E+02  0.24117915042E+01  0.10471155438E+02  0.51100000000E-03 0.  1.
        -12    1    3    3    0    0  0.22321222039E+02 -0.34990848495E+02  0.10756850907E+02  0.42875474028E+02  0.00000000000E+00 0.  1.
</event>
<event>
 7    1  0.1756449E-015  0.9000781E+02  0.7816164E-02  0.1186339E+00
        -11   -1    0    0    0    0  0.00000000000E+00  0.00000000000E+00  0.45593999997E+02  0.45594000000E+02  0.51100000000E-03 0. -1.
         11   -1    0    0    0    0 -0.00000000000E+00 -0.00000000000E+00 -0.45593999997E+02  0.45594000000E+02  0.51100000000E-03 0.  1.
    9900012    2    1    2    0    0 -0.41137382389E+00  0.97791164779E+00  0.51701800806E+00  0.90007810509E+02  0.90000072808E+02 0.  0.
        -12    1    1    2    0    0  0.41137382389E+00 -0.97791164779E+00 -0.51701800806E+00  0.11801894909E+01  0.00000000000E+00 0.  1.
         11    1    3    3    0    0  0.36337544153E+02 -0.67868033986E+01  0.12949021622E+02  0.39168290449E+02  0.51100000000E-03 0. -1.
        -11    1    3    3    0    0  0.30592074807E+01  0.89418614317E+01 -0.18193929314E+01  0.96242312511E+01  0.51100000000E-03 0.  1.
        -12    1    3    3    0    0 -0.39808125458E+02 -0.11771463854E+01 -0.10612610683E+02  0.41215288809E+02  0.00000000000E+00 0.  1.
</event>
<event>
 7    1  0.1756449E-015  0.9000784E+02  0.7816164E-02  0.1186339E+00
        -11   -1    0    0    0    0  0.00000000000E+00  0.00000000000E+00  0.45593999997E+02  0.45594000000E+02  0.51100000000E-03 0.  1.
         11   -1    0    0    0    0 -0.00000000000E+00 -0.00000000000E+00 -0.45593999997E+02  0.45594000000E+02  0.51100000000E-03 0. -1.
    9900012    2    1    2    0    0 -0.29197304197E-01  0.55799240335E+00 -0.10395022328E+01  0.90007842003E+02  0.90000104718E+02 0.  0.
        -12    1    1    2    0    0  0.29197304197E-01 -0.55799240335E+00  0.10395022328E+01  0.11801579966E+01  0.00000000000E+00 0.  1.
         11    1    3    3    0    0  0.92856164851E+01 -0.20122311139E+02  0.96913498560E+01  0.24187855245E+02  0.51100000000E-03 0. -1.
        -11    1    3    3    0    0  0.90662766438E+01  0.23886005899E+02  0.18218129880E+02  0.31378956429E+02  0.51100000000E-03 0.  1.
         12    1    3    3    0    0 -0.18381090433E+02 -0.32057023567E+01 -0.28948981969E+02  0.34441030329E+02  0.00000000000E+00 0. -1.
</event>
<event>
 7    1  0.1756449E-015  0.9000773E+02  0.7816164E-02  0.1186339E+00
        -11   -1    0    0    0    0  0.00000000000E+00  0.00000000000E+00  0.45593999997E+02  0.45594000000E+02  0.51100000000E-03 0. -1.
         11   -1    0    0    0    0 -0.00000000000E+00 -0.00000000000E+00 -0.45593999997E+02  0.45594000000E+02  0.51100000000E-03 0.  1.
    9900012    2    1    2    0    0 -0.10960225953E+01  0.37490360167E+00 -0.22632778320E+00  0.90007727783E+02  0.89999988990E+02 0.  0.
        -12    1    1    2    0    0  0.10960225953E+01 -0.37490360167E+00  0.22632778320E+00  0.11802722166E+01  0.00000000000E+00 0.  1.
         11    1    3    3    0    0 -0.35151902427E+02  0.14668380725E+02  0.44566524952E+01  0.38349437924E+02  0.51100000000E-03 0. -1.
        -11    1    3    3    0    0 -0.57546379863E+01  0.30259994297E+01 -0.50651246664E+01  0.82418456094E+01  0.51100000000E-03 0.  1.
        -12    1    3    3    0    0  0.39810517818E+02 -0.17319476553E+02  0.38214438798E+00  0.43416444250E+02  0.00000000000E+00 0.  1.
</event>
<event>
 7    1  0.1756449E-015  0.9000766E+02  0.7816164E-02  0.1186339E+00
        -11   -1    0    0    0    0  0.00000000000E+00  0.00000000000E+00  0.45593999997E+02  0.45594000000E+02  0.51100000000E-03 0. -1.
         11   -1    0    0    0    0 -0.00000000000E+00 -0.00000000000E+00 -0.45593999997E+02  0.45594000000E+02  0.51100000000E-03 0.  1.
    9900012    2    1    2    0    0 -0.41399395320E+00  0.99362913091E+00 -0.48425593921E+00  0.90007663752E+02  0.89999924114E+02 0.  0.
        -12    1    1    2    0    0  0.41399395320E+00 -0.99362913091E+00  0.48425593921E+00  0.11803362477E+01  0.00000000000E+00 0.  1.
         11    1    3    3    0    0 -0.20095654269E+01 -0.29516649200E+02  0.22629443730E+02  0.37247317447E+02  0.51100000000E-03 0. -1.
        -11    1    3    3    0    0  0.10928399346E+02  0.19929570847E+02  0.31505371955E+01  0.22946537675E+02  0.51100000000E-03 0.  1.
        -12    1    3    3    0    0 -0.93328278723E+01  0.10580707484E+02 -0.26264236864E+02  0.29813808630E+02  0.00000000000E+00 0.  1.
</event>
<event>
 7    1  0.1756449E-015  0.9000821E+02  0.7816164E-02  0.1186338E+00
        -11   -1    0    0    0    0  0.00000000000E+00  0.00000000000E+00  0.45593999997E+02  0.45594000000E+02  0.51100000000E-03 0.  1.
         11   -1    0    0    0    0 -0.00000000000E+00 -0.00000000000E+00 -0.45593999997E+02  0.45594000000E+02  0.51100000000E-03 0. -1.
    9900012    2    1    2    0    0 -0.11563380394E+01  0.20411601880E+00 -0.11454494194E+00  0.90008211225E+02  0.90000478812E+02 0.  0.
        -12    1    1    2    0    0  0.11563380394E+01 -0.20411601880E+00  0.11454494194E+00  0.11797887753E+01  0.00000000000E+00 0.  1.
         11    1    3    3    0    0 -0.19003839242E+02  0.38962690235E+02 -0.11977767867E+02  0.44974482317E+02  0.51100000000E-03 0. -1.
        -11    1    3    3    0    0  0.71216057709E+01 -0.87531964305E+01  0.83779024914E+00  0.11315370488E+02  0.51100000000E-03 0.  1.
        -12    1    3    3    0    0  0.10725895431E+02 -0.30005377786E+02  0.11025432676E+02  0.33718358421E+02  0.00000000000E+00 0.  1.
</event>
<event>
 7    1  0.1756449E-015  0.9000773E+02  0.7816164E-02  0.1186339E+00
        -11   -1    0    0    0    0  0.00000000000E+00  0.00000000000E+00  0.45593999997E+02  0.45594000000E+02  0.51100000000E-03 0. -1.
         11   -1    0    0    0    0 -0.00000000000E+00 -0.00000000000E+00 -0.45593999997E+02  0.45594000000E+02  0.51100000000E-03 0.  1.
    9900012    2    1    2    0    0 -0.10221559979E+00 -0.63042881137E+00 -0.99254450288E+00  0.90007731766E+02  0.89999993025E+02 0.  0.
        -12    1    1    2    0    0  0.10221559979E+00  0.63042881137E+00  0.99254450288E+00  0.11802682345E+01  0.00000000000E+00 0.  1.
         11    1    3    3    0    0  0.77300984337E+01 -0.34588309440E+02  0.75683734465E+01  0.36240665675E+02  0.51100000000E-03 0. -1.
        -11    1    3    3    0    0 -0.20876046573E+01 -0.57526955259E+01  0.82430590199E+01  0.10266431770E+02  0.51100000000E-03 0.  1.
        -12    1    3    3    0    0 -0.57447093762E+01  0.39710576154E+02 -0.16803976969E+02  0.43500634321E+02  0.00000000000E+00 0.  1.
</event>
<event>
 7    1  0.1756449E-015  0.9000777E+02  0.7816164E-02  0.1186339E+00
        -11   -1    0    0    0    0  0.00000000000E+00  0.00000000000E+00  0.45593999997E+02  0.45594000000E+02  0.51100000000E-03 0.  1.
         11   -1    0    0    0    0 -0.00000000000E+00 -0.00000000000E+00 -0.45593999997E+02  0.45594000000E+02  0.51100000000E-03 0. -1.
    9900012    2    1    2    0    0  0.34100617423E+00  0.53022536684E+00 -0.99775605480E+00  0.90007770660E+02  0.90000032433E+02 0.  0.
        -12    1    1    2    0    0 -0.34100617423E+00 -0.53022536684E+00  0.99775605480E+00  0.11802293402E+01  0.00000000000E+00 0.  1.
         11    1    3    3    0    0 -0.49400079813E+01 -0.94383825241E+00 -0.25531770360E+01  0.56403211558E+01  0.51100000000E-03 0. -1.
        -11    1    3    3    0    0  0.95767211668E+01 -0.82024862168E+01  0.41328568617E+02  0.43209315577E+02  0.51100000000E-03 0.  1.
         12    1    3    3    0    0 -0.42957070113E+01  0.96765498360E+01 -0.39773147636E+02  0.41158133927E+02  0.00000000000E+00 0. -1.
</event>
<event>
 7    1  0.1756449E-015  0.9000774E+02  0.7816164E-02  0.1186339E+00
        -11   -1    0    0    0    0  0.00000000000E+00  0.00000000000E+00  0.45593999997E+02  0.45594000000E+02  0.51100000000E-03 0.  1.
         11   -1    0    0    0    0 -0.00000000000E+00 -0.00000000000E+00 -0.45593999997E+02  0.45594000000E+02  0.51100000000E-03 0. -1.
    9900012    2    1    2    0    0 -0.50946759490E+00  0.95786620691E+00 -0.46471334462E+00  0.90007735880E+02  0.89999997193E+02 0.  0.
        -12    1    1    2    0    0  0.50946759490E+00 -0.95786620691E+00  0.46471334462E+00  0.11802641201E+01  0.00000000000E+00 0.  1.
         11    1    3    3    0    0 -0.39871449173E+02 -0.18659522251E+02 -0.25354046888E+01  0.44094653950E+02  0.51100000000E-03 0. -1.
        -11    1    3    3    0    0  0.10424935084E+02  0.12059667800E+02  0.11342995603E+00  0.15941384054E+02  0.51100000000E-03 0.  1.
        -12    1    3    3    0    0  0.28937046495E+02  0.75577206574E+01  0.19572613881E+01  0.29971697875E+02  0.00000000000E+00 0.  1.
</event>
<event>
 7    1  0.1842498E-015  0.9000777E+02  0.7816164E-02  0.1186339E+00
        -11   -1    0    0    0    0  0.00000000000E+00  0.00000000000E+00  0.45593999997E+02  0.45594000000E+02  0.51100000000E-03 0. -1.
         11   -1    0    0    0    0 -0.00000000000E+00 -0.00000000000E+00 -0.45593999997E+02  0.45594000000E+02  0.51100000000E-03 0.  1.
    9900012    2    1    2    0    0 -0.63972430640E+00  0.45011024974E+00  0.88380191157E+00  0.90007766022E+02  0.90000027733E+02 0.  0.
        -12    1    1    2    0    0  0.63972430640E+00 -0.45011024974E+00 -0.88380191157E+00  0.11802339785E+01  0.00000000000E+00 0.  1.
         11    1    3    3    0    0  0.51758625237E+01 -0.71833516547E+01  0.20087089352E+01  0.90788218238E+01  0.51100000000E-03 0. -1.
        -11    1    3    3    0    0  0.21755478594E+02  0.35078582817E+02  0.48841605366E+01  0.41565163848E+02  0.51100000000E-03 0.  1.
         12    1    3    3    0    0 -0.27571065424E+02 -0.27445120912E+02 -0.60090675602E+01  0.39363780350E+02  0.00000000000E+00 0. -1.
</event>
<event>
 7    1  0.1756449E-015  0.9000766E+02  0.7816164E-02  0.1186339E+00
        -11   -1    0    0    0    0  0.00000000000E+00  0.00000000000E+00  0.45593999997E+02  0.45594000000E+02  0.51100000000E-03 0. -1.
         11   -1    0    0    0    0 -0.00000000000E+00 -0.00000000000E+00 -0.45593999997E+02  0.45594000000E+02  0.51100000000E-03 0.  1.
    9900012    2    1    2    0    0 -0.25509659864E-01  0.11754141727E+01 -0.10463909316E+00  0.90007661676E+02  0.89999922010E+02 0.  0.
        -12    1    1    2    0    0  0.25509659864E-01 -0.11754141727E+01  0.10463909316E+00  0.11803383243E+01  0.00000000000E+00 0.  1.
         11    1    3    3    0    0  0.45269492251E+00  0.21030035897E+01 -0.73126345279E+01  0.76224786514E+01  0.51100000000E-03 0. -1.
        -11    1    3    3    0    0  0.23782468555E+02  0.25439917669E+02 -0.17388213202E+02  0.38924865834E+02  0.51100000000E-03 0.  1.
         12    1    3    3    0    0 -0.24260673137E+02 -0.26367507086E+02  0.24596208636E+02  0.43460317190E+02  0.00000000000E+00 0. -1.
</event>
<event>
 7    1  0.1756449E-015  0.9000769E+02  0.7816164E-02  0.1186339E+00
        -11   -1    0    0    0    0  0.00000000000E+00  0.00000000000E+00  0.45593999997E+02  0.45594000000E+02  0.51100000000E-03 0.  1.
         11   -1    0    0    0    0 -0.00000000000E+00 -0.00000000000E+00 -0.45593999997E+02  0.45594000000E+02  0.51100000000E-03 0. -1.
    9900012    2    1    2    0    0 -0.36929905595E+00  0.10039039307E+01 -0.49892765472E+00  0.90007689151E+02  0.89999949848E+02 0.  0.
        -12    1    1    2    0    0  0.36929905595E+00 -0.10039039307E+01  0.49892765472E+00  0.11803108487E+01  0.00000000000E+00 0.  1.
         11    1    3    3    0    0 -0.62368611378E+01 -0.10012793606E+02  0.11888480526E+02  0.16747848881E+02  0.51100000000E-03 0. -1.
        -11    1    3    3    0    0  0.10256361945E+02  0.39857709958E+02  0.98508713028E+00  0.41167953561E+02  0.51100000000E-03 0.  1.
         12    1    3    3    0    0 -0.43887998631E+01 -0.28841012421E+02 -0.13372495311E+02  0.32091886710E+02  0.00000000000E+00 0. -1.
</event>
<event>
 7    1  0.1756449E-015  0.9000776E+02  0.7816164E-02  0.1186339E+00
        -11   -1    0    0    0    0  0.00000000000E+00  0.00000000000E+00  0.45593999997E+02  0.45594000000E+02  0.51100000000E-03 0.  1.
         11   -1    0    0    0    0 -0.00000000000E+00 -0.00000000000E+00 -0.45593999997E+02  0.45594000000E+02  0.51100000000E-03 0. -1.
    9900012    2    1    2    0    0 -0.91350237067E-01 -0.44953862110E+00 -0.10874415185E+01  0.90007763204E+02  0.90000024879E+02 0.  0.
        -12    1    1    2    0    0  0.91350237067E-01  0.44953862110E+00  0.10874415185E+01  0.11802367957E+01  0.00000000000E+00 0.  1.
         11    1    3    3    0    0 -0.64992373703E+01  0.35345897059E+02  0.51241992692E+00  0.35942107614E+02  0.51100000000E-03 0. -1.
        -11    1    3    3    0    0  0.13832544151E+01  0.79894105197E+01 -0.55361740463E+01  0.98180087880E+01  0.51100000000E-03 0.  1.
        -12    1    3    3    0    0  0.50246327181E+01 -0.43784846200E+02  0.39363126008E+01  0.44247646803E+02  0.00000000000E+00 0.  1.
</event>
<event>
 7    1  0.1756449E-015  0.9000770E+02  0.7816164E-02  0.1186339E+00
        -11   -1    0    0    0    0  0.00000000000E+00  0.00000000000E+00  0.45593999997E+02  0.45594000000E+02  0.51100000000E-03 0.  1.
         11   -1    0    0    0    0 -0.00000000000E+00 -0.00000000000E+00 -0.45593999997E+02  0.45594000000E+02  0.51100000000E-03 0. -1.
    9900012    2    1    2    0    0 -0.10061244183E+01 -0.43201186457E+00  0.44068030056E+00  0.90007695072E+02  0.89999955847E+02 0.  0.
        -12    1    1    2    0    0  0.10061244183E+01  0.43201186457E+00 -0.44068030056E+00  0.11803049282E+01  0.00000000000E+00 0.  1.
         11    1    3    3    0    0 -0.79476054714E+00 -0.10211387714E+02  0.11862998306E+01  0.10310741531E+02  0.51100000000E-03 0. -1.
        -11    1    3    3    0    0  0.12961157067E+02 -0.25447698243E+02  0.21728235259E+02  0.35884441560E+02  0.51100000000E-03 0.  1.
         12    1    3    3    0    0 -0.13172520938E+02  0.35227074093E+02 -0.22473854789E+02  0.43812511980E+02  0.00000000000E+00 0. -1.
</event>
<event>
 7    1  0.1756449E-015  0.9000771E+02  0.7816164E-02  0.1186339E+00
        -11   -1    0    0    0    0  0.00000000000E+00  0.00000000000E+00  0.45593999997E+02  0.45594000000E+02  0.51100000000E-03 0.  1.
         11   -1    0    0    0    0 -0.00000000000E+00 -0.00000000000E+00 -0.45593999997E+02  0.45594000000E+02  0.51100000000E-03 0. -1.
    9900012    2    1    2    0    0  0.22732312350E+00  0.10365664693E+01 -0.51665326015E+00  0.90007713408E+02  0.89999974425E+02 0.  0.
        -12    1    1    2    0    0 -0.22732312350E+00 -0.10365664693E+01  0.51665326015E+00  0.11802865919E+01  0.00000000000E+00 0.  1.
         11    1    3    3    0    0  0.68820546259E+01 -0.47656464559E+01  0.18235138461E+01  0.85673371023E+01  0.51100000000E-03 0. -1.
        -11    1    3    3    0    0 -0.20378712953E+02 -0.20886969187E+02  0.26791975877E+02  0.39615241955E+02  0.51100000000E-03 0.  1.
         12    1    3    3    0    0  0.13723981451E+02  0.26689182112E+02 -0.29132142984E+02  0.41825134351E+02  0.00000000000E+00 0. -1.
</event>
<event>
 7    1  0.1756449E-015  0.9000779E+02  0.7816164E-02  0.1186339E+00
        -11   -1    0    0    0    0  0.00000000000E+00  0.00000000000E+00  0.45593999997E+02  0.45594000000E+02  0.51100000000E-03 0. -1.
         11   -1    0    0    0    0 -0.00000000000E+00 -0.00000000000E+00 -0.45593999997E+02  0.45594000000E+02  0.51100000000E-03 0.  1.
    9900012    2    1    2    0    0  0.77722472850E+00 -0.62188860244E+00  0.63409862196E+00  0.90007786132E+02  0.90000048109E+02 0.  0.
        -12    1    1    2    0    0 -0.77722472850E+00  0.62188860244E+00 -0.63409862196E+00  0.11802138682E+01  0.00000000000E+00 0.  1.
         11    1    3    3    0    0  0.16068645170E+02 -0.39044355151E+02  0.13624711212E+02  0.44365479628E+02  0.51100000000E-03 0. -1.
        -11    1    3    3    0    0  0.10279866206E+01  0.92485188419E+01  0.10910896063E+01  0.93692227026E+01  0.51100000000E-03 0.  1.
        -12    1    3    3    0    0 -0.16319407062E+02  0.29173947707E+02 -0.14081702196E+02  0.36273083801E+02  0.00000000000E+00 0.  1.
</event>
<event>
 7    1  0.1756449E-015  0.9000768E+02  0.7816164E-02  0.1186339E+00
        -11   -1    0    0    0    0  0.00000000000E+00  0.00000000000E+00  0.45593999997E+02  0.45594000000E+02  0.51100000000E-03 0. -1.
         11   -1    0    0    0    0 -0.00000000000E+00 -0.00000000000E+00 -0.45593999997E+02  0.45594000000E+02  0.51100000000E-03 0.  1.
    9900012    2    1    2    0    0  0.11269499890E+01  0.34124734308E+00 -0.81761005496E-01  0.90007681870E+02  0.89999942470E+02 0.  0.
        -12    1    1    2    0    0 -0.11269499890E+01 -0.34124734308E+00  0.81761005496E-01  0.11803181304E+01  0.00000000000E+00 0.  1.
         11    1    3    3    0    0 -0.71875705059E+01 -0.51791003305E+01  0.37827289570E+01  0.96329273138E+01  0.51100000000E-03 0. -1.
        -11    1    3    3    0    0  0.12549138803E+02  0.19860644667E+02  0.33048760238E+02  0.40548078189E+02  0.51100000000E-03 0.  1.
         12    1    3    3    0    0 -0.42346183079E+01 -0.14340296994E+02 -0.36913250200E+02  0.39826676367E+02  0.00000000000E+00 0. -1.
</event>
<event>
 7    1  0.1756449E-015  0.9000770E+02  0.7816164E-02  0.1186339E+00
        -11   -1    0    0    0    0  0.00000000000E+00  0.00000000000E+00  0.45593999997E+02  0.45594000000E+02  0.51100000000E-03 0.  1.
         11   -1    0    0    0    0 -0.00000000000E+00 -0.00000000000E+00 -0.45593999997E+02  0.45594000000E+02  0.51100000000E-03 0. -1.
    9900012    2    1    2    0    0 -0.10646421861E+01  0.35866763684E+00 -0.36193102629E+00  0.90007703628E+02  0.89999964516E+02 0.  0.
        -12    1    1    2    0    0  0.10646421861E+01 -0.35866763684E+00  0.36193102629E+00  0.11802963721E+01  0.00000000000E+00 0.  1.
         11    1    3    3    0    0  0.29615800736E+01 -0.41041177362E+01  0.41021722771E+01  0.65147952060E+01  0.51100000000E-03 0. -1.
        -11    1    3    3    0    0 -0.81498102671E+01  0.60364264319E+01  0.38749378490E+02  0.40054615028E+02  0.51100000000E-03 0.  1.
         12    1    3    3    0    0  0.41235880075E+01 -0.15736410588E+01 -0.43213481793E+02  0.43438293393E+02  0.00000000000E+00 0. -1.
</event>
<event>
 7    1  0.1756449E-015  0.9000725E+02  0.7816164E-02  0.1186340E+00
        -11   -1    0    0    0    0  0.00000000000E+00  0.00000000000E+00  0.45593999997E+02  0.45594000000E+02  0.51100000000E-03 0.  1.
         11   -1    0    0    0    0 -0.00000000000E+00 -0.00000000000E+00 -0.45593999997E+02  0.45594000000E+02  0.51100000000E-03 0. -1.
    9900012    2    1    2    0    0  0.40738768726E+00 -0.73955554003E+00  0.82538211938E+00  0.90007253301E+02  0.89999508243E+02 0.  0.
        -12    1    1    2    0    0 -0.40738768726E+00  0.73955554003E+00 -0.82538211938E+00  0.11807466991E+01  0.00000000000E+00 0.  1.
         11    1    3    3    0    0  0.15778579774E+01  0.89349918038E+01 -0.50036142408E+01  0.10361460807E+02  0.51100000000E-03 0. -1.
        -11    1    3    3    0    0 -0.34980136692E+02  0.10660501747E+02  0.14348160248E+02  0.39282642009E+02  0.51100000000E-03 0.  1.
         12    1    3    3    0    0  0.33809666402E+02 -0.20335049090E+02 -0.85191638873E+01  0.40363150484E+02  0.00000000000E+00 0. -1.
</event>
<event>
 7    1  0.1756449E-015  0.9000758E+02  0.7816164E-02  0.1186339E+00
        -11   -1    0    0    0    0  0.00000000000E+00  0.00000000000E+00  0.45593999997E+02  0.45594000000E+02  0.51100000000E-03 0.  1.
         11   -1    0    0    0    0 -0.00000000000E+00 -0.00000000000E+00 -0.45593999997E+02  0.45594000000E+02  0.51100000000E-03 0. -1.
    9900012    2    1    2    0    0  0.42249998019E+00 -0.82381928087E+00 -0.73226383563E+00  0.90007578564E+02  0.89999837801E+02 0.  0.
        -12    1    1    2    0    0 -0.42249998019E+00  0.82381928087E+00  0.73226383563E+00  0.11804214357E+01  0.00000000000E+00 0.  1.
         11    1    3    3    0    0 -0.21058461600E+02  0.72489890224E+01 -0.27062447064E+02  0.35048290802E+02  0.51100000000E-03 0. -1.
        -11    1    3    3    0    0  0.21558141806E+01  0.15117467524E+02  0.57977031850E+00  0.15281410047E+02  0.51100000000E-03 0.  1.
        -12    1    3    3    0    0  0.19325147400E+02 -0.23190275827E+02  0.25750412910E+02  0.39677877715E+02  0.00000000000E+00 0.  1.
</event>
<event>
 7    1  0.1756449E-015  0.9000775E+02  0.7816164E-02  0.1186339E+00
        -11   -1    0    0    0    0  0.00000000000E+00  0.00000000000E+00  0.45593999997E+02  0.45594000000E+02  0.51100000000E-03 0.  1.
         11   -1    0    0    0    0 -0.00000000000E+00 -0.00000000000E+00 -0.45593999997E+02  0.45594000000E+02  0.51100000000E-03 0. -1.
    9900012    2    1    2    0    0  0.50810714567E+00 -0.10147133737E+01  0.32431344813E+00  0.90007747775E+02  0.90000009245E+02 0.  0.
        -12    1    1    2    0    0 -0.50810714567E+00  0.10147133737E+01 -0.32431344813E+00  0.11802522251E+01  0.00000000000E+00 0.  1.
         11    1    3    3    0    0  0.91229478669E+01 -0.75923061019E+01 -0.22006782891E+02  0.25003395433E+02  0.51100000000E-03 0. -1.
        -11    1    3    3    0    0  0.31043959062E+01 -0.18041957170E+02  0.31333927447E+02  0.36290005539E+02  0.51100000000E-03 0.  1.
         12    1    3    3    0    0 -0.11719236627E+02  0.24619549899E+02 -0.90028311086E+01  0.28714346803E+02  0.00000000000E+00 0. -1.
</event>
<event>
 7    1  0.1756449E-015  0.9000768E+02  0.7816164E-02  0.1186339E+00
        -11   -1    0    0    0    0  0.00000000000E+00  0.00000000000E+00  0.45593999997E+02  0.45594000000E+02  0.51100000000E-03 0.  1.
         11   -1    0    0    0    0 -0.00000000000E+00 -0.00000000000E+00 -0.45593999997E+02  0.45594000000E+02  0.51100000000E-03 0. -1.
    9900012    2    1    2    0    0 -0.34167657158E+00  0.74320971353E+00 -0.85091118637E+00  0.90007680804E+02  0.89999941390E+02 0.  0.
        -12    1    1    2    0    0  0.34167657158E+00 -0.74320971353E+00  0.85091118637E+00  0.11803191962E+01  0.00000000000E+00 0.  1.
         11    1    3    3    0    0  0.54788704115E+01 -0.43018004445E+01 -0.37936473288E+01  0.79319145461E+01  0.51100000000E-03 0. -1.
        -11    1    3    3    0    0  0.35010644254E+02 -0.46267198648E+01  0.15072024960E+02  0.38396844720E+02  0.51100000000E-03 0.  1.
         12    1    3    3    0    0 -0.40831191237E+02  0.96717300228E+01 -0.12129288818E+02  0.43678921538E+02  0.00000000000E+00 0. -1.
</event>
<event>
 7    1  0.1756449E-015  0.9000776E+02  0.7816164E-02  0.1186339E+00
        -11   -1    0    0    0    0  0.00000000000E+00  0.00000000000E+00  0.45593999997E+02  0.45594000000E+02  0.51100000000E-03 0.  1.
         11   -1    0    0    0    0 -0.00000000000E+00 -0.00000000000E+00 -0.45593999997E+02  0.45594000000E+02  0.51100000000E-03 0. -1.
    9900012    2    1    2    0    0 -0.55031030580E+00  0.54437224102E+00 -0.89095010407E+00  0.90007756526E+02  0.90000018112E+02 0.  0.
        -12    1    1    2    0    0  0.55031030580E+00 -0.54437224102E+00  0.89095010407E+00  0.11802434738E+01  0.00000000000E+00 0.  1.
         11    1    3    3    0    0  0.36861648860E+01 -0.36919805607E+02 -0.17284265315E+02  0.40931719795E+02  0.51100000000E-03 0. -1.
        -11    1    3    3    0    0  0.94134081742E+01  0.42141310619E+01  0.37619628459E+01  0.10978320399E+02  0.51100000000E-03 0.  1.
        -12    1    3    3    0    0 -0.13649883366E+02  0.33250046786E+02  0.12631352365E+02  0.38097716333E+02  0.00000000000E+00 0.  1.
</event>
<event>
 7    1  0.1756449E-015  0.9000776E+02  0.7816164E-02  0.1186339E+00
        -11   -1    0    0    0    0  0.00000000000E+00  0.00000000000E+00  0.45593999997E+02  0.45594000000E+02  0.51100000000E-03 0.  1.
         11   -1    0    0    0    0 -0.00000000000E+00 -0.00000000000E+00 -0.45593999997E+02  0.45594000000E+02  0.51100000000E-03 0. -1.
    9900012    2    1    2    0    0 -0.63577440330E+00  0.54869672902E+00 -0.82927319450E+00  0.90007757981E+02  0.90000019586E+02 0.  0.
        -12    1    1    2    0    0  0.63577440330E+00 -0.54869672902E+00  0.82927319450E+00  0.11802420190E+01  0.00000000000E+00 0.  1.
         11    1    3    3    0    0  0.26379949557E+02 -0.16017715703E+02  0.23822830605E+02  0.38987128815E+02  0.51100000000E-03 0. -1.
        -11    1    3    3    0    0  0.55163821750E+01  0.65578565747E+01  0.67283706188E+00  0.85958516232E+01  0.51100000000E-03 0.  1.
        -12    1    3    3    0    0 -0.32532106135E+02  0.10008555857E+02 -0.25324940861E+02  0.42424777543E+02  0.00000000000E+00 0.  1.
</event>
<event>
 7    1  0.1756449E-015  0.9000755E+02  0.7816164E-02  0.1186339E+00
        -11   -1    0    0    0    0  0.00000000000E+00  0.00000000000E+00  0.45593999997E+02  0.45594000000E+02  0.51100000000E-03 0. -1.
         11   -1    0    0    0    0 -0.00000000000E+00 -0.00000000000E+00 -0.45593999997E+02  0.45594000000E+02  0.51100000000E-03 0.  1.
    9900012    2    1    2    0    0 -0.17264280903E+00  0.15908331803E+00  0.11568752810E+01  0.90007545233E+02  0.89999804030E+02 0.  0.
        -12    1    1    2    0    0  0.17264280903E+00 -0.15908331803E+00 -0.11568752810E+01  0.11804547672E+01  0.00000000000E+00 0.  1.
         11    1    3    3    0    0 -0.68883964728E+01  0.35544613144E+02  0.55403990212E+01  0.36627387992E+02  0.51100000000E-03 0. -1.
        -11    1    3    3    0    0  0.49847884755E+01  0.81535703758E+01  0.25840728319E+00  0.95601046335E+01  0.51100000000E-03 0.  1.
        -12    1    3    3    0    0  0.17309651883E+01 -0.43539100202E+02 -0.46419310234E+01  0.43820052607E+02  0.00000000000E+00 0.  1.
</event>
<event>
 7    1  0.1756449E-015  0.9000780E+02  0.7816164E-02  0.1186339E+00
        -11   -1    0    0    0    0  0.00000000000E+00  0.00000000000E+00  0.45593999997E+02  0.45594000000E+02  0.51100000000E-03 0. -1.
         11   -1    0    0    0    0 -0.00000000000E+00 -0.00000000000E+00 -0.45593999997E+02  0.45594000000E+02  0.51100000000E-03 0.  1.
    9900012    2    1    2    0    0 -0.46488361340E+00 -0.99452635777E+00  0.43321560016E+00  0.90007798658E+02  0.90000060801E+02 0.  0.
        -12    1    1    2    0    0  0.46488361340E+00  0.99452635777E+00 -0.43321560016E+00  0.11802013415E+01  0.00000000000E+00 0.  1.
         11    1    3    3    0    0  0.57636871347E+01  0.36385058363E+02  0.69282069727E+01  0.37484565005E+02  0.51100000000E-03 0. -1.
        -11    1    3    3    0    0  0.96171366299E+01  0.91551407787E+00  0.27829368518E+01  0.10053468096E+02  0.51100000000E-03 0.  1.
        -12    1    3    3    0    0 -0.15845707378E+02 -0.38295098799E+02 -0.92779282243E+01  0.42469765557E+02  0.00000000000E+00 0.  1.
</event>
<event>
 7    1  0.1756449E-015  0.9000803E+02  0.7816164E-02  0.1186338E+00
        -11   -1    0    0    0    0  0.00000000000E+00  0.00000000000E+00  0.45593999997E+02  0.45594000000E+02  0.51100000000E-03 0. -1.
         11   -1    0    0    0    0 -0.00000000000E+00 -0.00000000000E+00 -0.45593999997E+02  0.45594000000E+02  0.51100000000E-03 0.  1.
    9900012    2    1    2    0    0  0.68425213388E+00  0.27855141687E+00  0.92007877057E+00  0.90008026772E+02  0.90000291925E+02 0.  0.
        -12    1    1    2    0    0 -0.68425213388E+00 -0.27855141687E+00 -0.92007877057E+00  0.11799732279E+01  0.00000000000E+00 0.  1.
         11    1    3    3    0    0 -0.76807609166E+01 -0.23726471041E+02  0.26790391839E+02  0.36601429090E+02  0.51100000000E-03 0. -1.
        -11    1    3    3    0    0  0.29072857024E+01  0.97797694856E+00  0.99851218953E+01  0.10445640650E+02  0.51100000000E-03 0.  1.
        -12    1    3    3    0    0  0.54577273481E+01  0.23027045509E+02 -0.35855434963E+02  0.42960957032E+02  0.00000000000E+00 0.  1.
</event>
<event>
 7    1  0.1756449E-015  0.9000777E+02  0.7816164E-02  0.1186339E+00
        -11   -1    0    0    0    0  0.00000000000E+00  0.00000000000E+00  0.45593999997E+02  0.45594000000E+02  0.51100000000E-03 0. -1.
         11   -1    0    0    0    0 -0.00000000000E+00 -0.00000000000E+00 -0.45593999997E+02  0.45594000000E+02  0.51100000000E-03 0.  1.
    9900012    2    1    2    0    0  0.10056665442E+00 -0.11110995246E+01  0.38506867084E+00  0.90007773883E+02  0.90000035698E+02 0.  0.
        -12    1    1    2    0    0 -0.10056665442E+00  0.11110995246E+01 -0.38506867084E+00  0.11802261168E+01  0.00000000000E+00 0.  1.
         11    1    3    3    0    0 -0.49971197605E+01  0.51737247648E+01  0.59153230002E+01  0.93128771226E+01  0.51100000000E-03 0. -1.
        -11    1    3    3    0    0  0.90975404841E+01  0.29068024671E+02  0.20409592418E+02  0.36664243672E+02  0.51100000000E-03 0.  1.
         12    1    3    3    0    0 -0.39998540692E+01 -0.35352848960E+02 -0.25939846747E+02  0.44030653089E+02  0.00000000000E+00 0. -1.
</event>
<event>
 7    1  0.1756449E-015  0.9000767E+02  0.7816164E-02  0.1186339E+00
        -11   -1    0    0    0    0  0.00000000000E+00  0.00000000000E+00  0.45593999997E+02  0.45594000000E+02  0.51100000000E-03 0. -1.
         11   -1    0    0    0    0 -0.00000000000E+00 -0.00000000000E+00 -0.45593999997E+02  0.45594000000E+02  0.51100000000E-03 0.  1.
    9900012    2    1    2    0    0 -0.57431101505E+00  0.98420880311E+00  0.30769206574E+00  0.90007671860E+02  0.89999932329E+02 0.  0.
        -12    1    1    2    0    0  0.57431101505E+00 -0.98420880311E+00 -0.30769206574E+00  0.11803281397E+01  0.00000000000E+00 0.  1.
         11    1    3    3    0    0 -0.89450039468E+01 -0.44741177864E+01 -0.28945395390E+01  0.10411973155E+02  0.51100000000E-03 0. -1.
        -11    1    3    3    0    0 -0.29756234228E+02 -0.11059241604E+02 -0.13910127595E+02  0.34658793260E+02  0.51100000000E-03 0.  1.
         12    1    3    3    0    0  0.38126927159E+02  0.16517568193E+02  0.17112359200E+02  0.44936905445E+02  0.00000000000E+00 0. -1.
</event>
<event>
 7    1  0.1756449E-015  0.9000763E+02  0.7816164E-02  0.1186339E+00
        -11   -1    0    0    0    0  0.00000000000E+00  0.00000000000E+00  0.45593999997E+02  0.45594000000E+02  0.51100000000E-03 0.  1.
         11   -1    0    0    0    0 -0.00000000000E+00 -0.00000000000E+00 -0.45593999997E+02  0.45594000000E+02  0.51100000000E-03 0. -1.
    9900012    2    1    2    0    0  0.14008513078E+00 -0.96608609842E+00 -0.66357730750E+00  0.90007626738E+02  0.89999886611E+02 0.  0.
        -12    1    1    2    0    0 -0.14008513078E+00  0.96608609842E+00  0.66357730750E+00  0.11803732615E+01  0.00000000000E+00 0.  1.
         11    1    3    3    0    0  0.34346246901E+02  0.75548937079E+01 -0.74410911499E+01  0.35945944596E+02  0.51100000000E-03 0. -1.
        -11    1    3    3    0    0 -0.14914300032E+02 -0.35249165261E+01 -0.17098869911E+02  0.22961549043E+02  0.51100000000E-03 0.  1.
        -12    1    3    3    0    0 -0.19291861739E+02 -0.49960632802E+01  0.23876383754E+02  0.31100133099E+02  0.00000000000E+00 0.  1.
</event>
<event>
 7    1  0.1756449E-015  0.9000758E+02  0.7816164E-02  0.1186339E+00
        -11   -1    0    0    0    0  0.00000000000E+00  0.00000000000E+00  0.45593999997E+02  0.45594000000E+02  0.51100000000E-03 0.  1.
         11   -1    0    0    0    0 -0.00000000000E+00 -0.00000000000E+00 -0.45593999997E+02  0.45594000000E+02  0.51100000000E-03 0. -1.
    9900012    2    1    2    0    0  0.80945030585E+00 -0.66755159738E+00 -0.54087728880E+00  0.90007583474E+02  0.89999842776E+02 0.  0.
        -12    1    1    2    0    0 -0.80945030585E+00  0.66755159738E+00  0.54087728880E+00  0.11804165258E+01  0.00000000000E+00 0.  1.
         11    1    3    3    0    0  0.66820599040E+01 -0.56317093526E+01 -0.47847393288E+01  0.99629215343E+01  0.51100000000E-03 0. -1.
        -11    1    3    3    0    0  0.23387702777E+01  0.38547164041E+02  0.18287054662E+02  0.42729030769E+02  0.51100000000E-03 0.  1.
         12    1    3    3    0    0 -0.82113798758E+01 -0.33583006286E+02 -0.14043192622E+02  0.37315631171E+02  0.00000000000E+00 0. -1.
</event>
<event>
 7    1  0.1756449E-015  0.9000778E+02  0.7816164E-02  0.1186339E+00
        -11   -1    0    0    0    0  0.00000000000E+00  0.00000000000E+00  0.45593999997E+02  0.45594000000E+02  0.51100000000E-03 0.  1.
         11   -1    0    0    0    0 -0.00000000000E+00 -0.00000000000E+00 -0.45593999997E+02  0.45594000000E+02  0.51100000000E-03 0. -1.
    9900012    2    1    2    0    0  0.10671302223E+01  0.29683792086E+00 -0.40749294153E+00  0.90007775377E+02  0.90000037212E+02 0.  0.
        -12    1    1    2    0    0 -0.10671302223E+01 -0.29683792086E+00  0.40749294153E+00  0.11802246226E+01  0.00000000000E+00 0.  1.
         11    1    3    3    0    0  0.91937607140E+01 -0.45196451590E+01 -0.31057204135E+02  0.32703246893E+02  0.51100000000E-03 0. -1.
        -11    1    3    3    0    0  0.19798364882E+02  0.50501356807E+01  0.11538280195E+02  0.23465102440E+02  0.51100000000E-03 0.  1.
        -12    1    3    3    0    0 -0.27924995374E+02 -0.23365260080E+00  0.19111430998E+02  0.33839426044E+02  0.00000000000E+00 0.  1.
</event>
<event>
 7    1  0.1756449E-015  0.9000772E+02  0.7816164E-02  0.1186339E+00
        -11   -1    0    0    0    0  0.00000000000E+00  0.00000000000E+00  0.45593999997E+02  0.45594000000E+02  0.51100000000E-03 0. -1.
         11   -1    0    0    0    0 -0.00000000000E+00 -0.00000000000E+00 -0.45593999997E+02  0.45594000000E+02  0.51100000000E-03 0.  1.
    9900012    2    1    2    0    0 -0.36782757755E-01  0.71464944116E+00  0.93861234380E+00  0.90007716167E+02  0.89999977220E+02 0.  0.
        -12    1    1    2    0    0  0.36782757755E-01 -0.71464944116E+00 -0.93861234380E+00  0.11802838332E+01  0.00000000000E+00 0.  1.
         11    1    3    3    0    0 -0.41368749498E+01  0.73957342387E+01 -0.37035382551E+01  0.92480708879E+01  0.51100000000E-03 0. -1.
        -11    1    3    3    0    0 -0.31422515974E+02 -0.11156148807E+02  0.23016566880E+02  0.40516620263E+02  0.51100000000E-03 0.  1.
         12    1    3    3    0    0  0.35522608166E+02  0.44750640097E+01 -0.18374416281E+02  0.40243025016E+02  0.00000000000E+00 0. -1.
</event>
<event>
 7    1  0.1756449E-015  0.9000781E+02  0.7816164E-02  0.1186339E+00
        -11   -1    0    0    0    0  0.00000000000E+00  0.00000000000E+00  0.45593999997E+02  0.45594000000E+02  0.51100000000E-03 0. -1.
         11   -1    0    0    0    0 -0.00000000000E+00 -0.00000000000E+00 -0.45593999997E+02  0.45594000000E+02  0.51100000000E-03 0.  1.
    9900012    2    1    2    0    0  0.98398926927E+00 -0.60090220313E+00 -0.25204912600E+00  0.90007810565E+02  0.90000072865E+02 0.  0.
        -12    1    1    2    0    0 -0.98398926927E+00  0.60090220313E+00  0.25204912600E+00  0.11801894347E+01  0.00000000000E+00 0.  1.
         11    1    3    3    0    0  0.18851861013E+02  0.26438768758E+02  0.26285184651E+02  0.41776932504E+02  0.51100000000E-03 0. -1.
        -11    1    3    3    0    0  0.19901643669E+01 -0.17302853966E+02 -0.71774153091E+01  0.18837855514E+02  0.51100000000E-03 0.  1.
        -12    1    3    3    0    0 -0.19858036110E+02 -0.97368169952E+01 -0.19359818468E+02  0.29393022547E+02  0.00000000000E+00 0.  1.
</event>
<event>
 7    1  0.1756449E-015  0.9000787E+02  0.7816164E-02  0.1186339E+00
        -11   -1    0    0    0    0  0.00000000000E+00  0.00000000000E+00  0.45593999997E+02  0.45594000000E+02  0.51100000000E-03 0. -1.
         11   -1    0    0    0    0 -0.00000000000E+00 -0.00000000000E+00 -0.45593999997E+02  0.45594000000E+02  0.51100000000E-03 0.  1.
    9900012    2    1    2    0    0  0.80755231266E+00  0.60728518191E+00  0.60973349698E+00  0.90007868242E+02  0.90000131302E+02 0.  0.
        -12    1    1    2    0    0 -0.80755231266E+00 -0.60728518191E+00 -0.60973349698E+00  0.11801317584E+01  0.00000000000E+00 0.  1.
         11    1    3    3    0    0 -0.29996158297E+02  0.16841587937E+00 -0.19466483290E+02  0.35759500114E+02  0.51100000000E-03 0. -1.
        -11    1    3    3    0    0 -0.83561012921E+01  0.62128571707E+01  0.14899131424E+01  0.10518738729E+02  0.51100000000E-03 0.  1.
        -12    1    3    3    0    0  0.39159811902E+02 -0.57739878681E+01  0.18586303645E+02  0.43729629398E+02  0.00000000000E+00 0.  1.
</event>
<event>
 7    1  0.1756449E-015  0.9000770E+02  0.7816164E-02  0.1186339E+00
        -11   -1    0    0    0    0  0.00000000000E+00  0.00000000000E+00  0.45593999997E+02  0.45594000000E+02  0.51100000000E-03 0.  1.
         11   -1    0    0    0    0 -0.00000000000E+00 -0.00000000000E+00 -0.45593999997E+02  0.45594000000E+02  0.51100000000E-03 0. -1.
    9900012    2    1    2    0    0  0.11156963944E+01 -0.21909720400E-01 -0.38450860765E+00  0.90007701161E+02  0.89999962016E+02 0.  0.
        -12    1    1    2    0    0 -0.11156963944E+01  0.21909720400E-01  0.38450860765E+00  0.11802988392E+01  0.00000000000E+00 0.  1.
         11    1    3    3    0    0 -0.94718632020E+01 -0.13551810466E+01 -0.13618084976E+01  0.96647416329E+01  0.51100000000E-03 0. -1.
        -11    1    3    3    0    0 -0.27800166987E+02  0.59531197411E+01 -0.21477257225E+02  0.35630906490E+02  0.51100000000E-03 0.  1.
         12    1    3    3    0    0  0.38387726583E+02 -0.46198484149E+01  0.22454557115E+02  0.44712053038E+02  0.00000000000E+00 0. -1.
</event>
<event>
 7    1  0.1905661E-015  0.9000847E+02  0.7816164E-02  0.1186338E+00
        -11   -1    0    0    0    0  0.00000000000E+00  0.00000000000E+00  0.45593999997E+02  0.45594000000E+02  0.51100000000E-03 0. -1.
         11   -1    0    0    0    0 -0.00000000000E+00 -0.00000000000E+00 -0.45593999997E+02  0.45594000000E+02  0.51100000000E-03 0.  1.
    9900012    2    1    2    0    0  0.99795674946E+00 -0.61587651732E+00  0.12677213408E+00  0.90008469275E+02  0.90000740266E+02 0.  0.
        -12    1    1    2    0    0 -0.99795674946E+00  0.61587651732E+00 -0.12677213408E+00  0.11795307255E+01  0.00000000000E+00 0.  1.
         11    1    3    3    0    0  0.25738181775E+01  0.47401989846E+01 -0.82699612457E+01  0.98735143536E+01  0.51100000000E-03 0. -1.
        -11    1    3    3    0    0 -0.32245409595E+02  0.94513022263E+01 -0.16993868191E+02  0.37654815231E+02  0.51100000000E-03 0.  1.
         12    1    3    3    0    0  0.30669548167E+02 -0.14807377728E+02  0.25390601571E+02  0.42480139690E+02  0.00000000000E+00 0. -1.
</event>
<event>
 7    1  0.1756449E-015  0.9000737E+02  0.7816164E-02  0.1186340E+00
        -11   -1    0    0    0    0  0.00000000000E+00  0.00000000000E+00  0.45593999997E+02  0.45594000000E+02  0.51100000000E-03 0.  1.
         11   -1    0    0    0    0 -0.00000000000E+00 -0.00000000000E+00 -0.45593999997E+02  0.45594000000E+02  0.51100000000E-03 0. -1.
    9900012    2    1    2    0    0  0.16751266623E+00  0.97292416287E+00 -0.64748353171E+00  0.90007374385E+02  0.89999630926E+02 0.  0.
        -12    1    1    2    0    0 -0.16751266623E+00 -0.97292416287E+00  0.64748353171E+00  0.11806256155E+01  0.00000000000E+00 0.  1.
         11    1    3    3    0    0  0.59021585421E+01 -0.12550601705E+02 -0.39442299936E+02  0.41809665188E+02  0.51100000000E-03 0. -1.
        -11    1    3    3    0    0 -0.88110487722E+01 -0.27267950311E+00  0.23728153287E+01  0.91290299278E+01  0.51100000000E-03 0.  1.
        -12    1    3    3    0    0  0.30764028963E+01  0.13796205371E+02  0.36422001076E+02  0.39068679269E+02  0.00000000000E+00 0.  1.
</event>
<event>
 7    1  0.1756449E-015  0.9000788E+02  0.7816164E-02  0.1186339E+00
        -11   -1    0    0    0    0  0.00000000000E+00  0.00000000000E+00  0.45593999997E+02  0.45594000000E+02  0.51100000000E-03 0. -1.
         11   -1    0    0    0    0 -0.00000000000E+00 -0.00000000000E+00 -0.45593999997E+02  0.45594000000E+02  0.51100000000E-03 0.  1.
    9900012    2    1    2    0    0 -0.26263632733E+00 -0.27080278745E+00  0.11182050023E+01  0.90007875254E+02  0.90000138407E+02 0.  0.
        -12    1    1    2    0    0  0.26263632733E+00  0.27080278745E+00 -0.11182050023E+01  0.11801247465E+01  0.00000000000E+00 0.  1.
         11    1    3    3    0    0  0.54601466025E+01  0.66289681497E+01  0.20445446258E+01  0.88281698352E+01  0.51100000000E-03 0. -1.
        -11    1    3    3    0    0  0.22790724590E+02  0.19998987433E+02 -0.21249101980E+02  0.37025679750E+02  0.51100000000E-03 0.  1.
         12    1    3    3    0    0 -0.28513507520E+02 -0.26898758370E+02  0.20322762357E+02  0.44154025669E+02  0.00000000000E+00 0. -1.
</event>
<event>
 7    1  0.1756449E-015  0.9000772E+02  0.7816164E-02  0.1186339E+00
        -11   -1    0    0    0    0  0.00000000000E+00  0.00000000000E+00  0.45593999997E+02  0.45594000000E+02  0.51100000000E-03 0. -1.
         11   -1    0    0    0    0 -0.00000000000E+00 -0.00000000000E+00 -0.45593999997E+02  0.45594000000E+02  0.51100000000E-03 0.  1.
    9900012    2    1    2    0    0 -0.72775159693E+00  0.20187373383E+00 -0.90701894351E+00  0.90007720899E+02  0.89999982015E+02 0.  0.
        -12    1    1    2    0    0  0.72775159693E+00 -0.20187373383E+00  0.90701894351E+00  0.11802791005E+01  0.00000000000E+00 0.  1.
         11    1    3    3    0    0  0.11842897079E+02 -0.37216828133E+02  0.71821611075E+01  0.39710577255E+02  0.51100000000E-03 0. -1.
        -11    1    3    3    0    0  0.88810463631E+01  0.60971094941E+01 -0.58722259111E+01  0.12269098015E+02  0.51100000000E-03 0.  1.
        -12    1    3    3    0    0 -0.21451695039E+02  0.31321592372E+02 -0.22169541398E+01  0.38028045630E+02  0.00000000000E+00 0.  1.
</event>
<event>
 7    1  0.1756449E-015  0.9000766E+02  0.7816164E-02  0.1186339E+00
        -11   -1    0    0    0    0  0.00000000000E+00  0.00000000000E+00  0.45593999997E+02  0.45594000000E+02  0.51100000000E-03 0.  1.
         11   -1    0    0    0    0 -0.00000000000E+00 -0.00000000000E+00 -0.45593999997E+02  0.45594000000E+02  0.51100000000E-03 0. -1.
    9900012    2    1    2    0    0  0.92870567190E+00  0.71332675273E+00 -0.14785894940E+00  0.90007664645E+02  0.89999925018E+02 0.  0.
        -12    1    1    2    0    0 -0.92870567190E+00 -0.71332675273E+00  0.14785894940E+00  0.11803353549E+01  0.00000000000E+00 0.  1.
         11    1    3    3    0    0  0.11536248305E+02 -0.32120266279E+02 -0.83403499382E+01  0.35133430919E+02  0.51100000000E-03 0. -1.
        -11    1    3    3    0    0 -0.46121725910E+01 -0.49496132095E+01 -0.10347187508E+02  0.12362649252E+02  0.51100000000E-03 0.  1.
        -12    1    3    3    0    0 -0.59953700422E+01  0.37783206241E+02  0.18539678497E+02  0.42511584475E+02  0.00000000000E+00 0.  1.
</event>
<event>
 7    1  0.1756449E-015  0.9000772E+02  0.7816164E-02  0.1186339E+00
        -11   -1    0    0    0    0  0.00000000000E+00  0.00000000000E+00  0.45593999997E+02  0.45594000000E+02  0.51100000000E-03 0. -1.
         11   -1    0    0    0    0 -0.00000000000E+00 -0.00000000000E+00 -0.45593999997E+02  0.45594000000E+02  0.51100000000E-03 0.  1.
    9900012    2    1    2    0    0 -0.10898786135E+01 -0.40211720447E+00  0.20862705347E+00  0.90007720844E+02  0.89999981959E+02 0.  0.
        -12    1    1    2    0    0  0.10898786135E+01  0.40211720447E+00 -0.20862705347E+00  0.11802791559E+01  0.00000000000E+00 0.  1.
         11    1    3    3    0    0 -0.15257512105E+02 -0.12132862791E+02  0.14458804427E+02  0.24270456544E+02  0.51100000000E-03 0. -1.
        -11    1    3    3    0    0 -0.12878298989E+02  0.12252914603E+02  0.16867762440E+02  0.24505222119E+02  0.51100000000E-03 0.  1.
        -12    1    3    3    0    0  0.27045932480E+02 -0.52216901662E+00 -0.31117939814E+02  0.41232042181E+02  0.00000000000E+00 0.  1.
</event>
<event>
 7    1  0.1756449E-015  0.9000771E+02  0.7816164E-02  0.1186339E+00
        -11   -1    0    0    0    0  0.00000000000E+00  0.00000000000E+00  0.45593999997E+02  0.45594000000E+02  0.51100000000E-03 0. -1.
         11   -1    0    0    0    0 -0.00000000000E+00 -0.00000000000E+00 -0.45593999997E+02  0.45594000000E+02  0.51100000000E-03 0.  1.
    9900012    2    1    2    0    0  0.25917073648E-01 -0.31751972239E-01  0.11795763720E+01  0.90007711773E+02  0.89999972768E+02 0.  0.
        -12    1    1    2    0    0 -0.25917073648E-01  0.31751972239E-01 -0.11795763720E+01  0.11802882274E+01  0.00000000000E+00 0.  1.
         11    1    3    3    0    0 -0.38291245001E+01  0.32624294286E+02 -0.75727007597E+01  0.33709828970E+02  0.51100000000E-03 0. -1.
        -11    1    3    3    0    0  0.36275510489E+01  0.11185209218E+02  0.13588194420E+01  0.11836993807E+02  0.51100000000E-03 0.  1.
        -12    1    3    3    0    0  0.22749052483E+00 -0.43841255476E+02  0.73934576898E+01  0.44460888996E+02  0.00000000000E+00 0.  1.
</event>
<event>
 7    1  0.1756449E-015  0.9000769E+02  0.7816164E-02  0.1186339E+00
        -11   -1    0    0    0    0  0.00000000000E+00  0.00000000000E+00  0.45593999997E+02  0.45594000000E+02  0.51100000000E-03 0.  1.
         11   -1    0    0    0    0 -0.00000000000E+00 -0.00000000000E+00 -0.45593999997E+02  0.45594000000E+02  0.51100000000E-03 0. -1.
    9900012    2    1    2    0    0 -0.61402235650E+00  0.91476331454E+00 -0.42344570437E+00  0.90007694260E+02  0.89999955024E+02 0.  0.
        -12    1    1    2    0    0  0.61402235650E+00 -0.91476331454E+00  0.42344570437E+00  0.11803057402E+01  0.00000000000E+00 0.  1.
         11    1    3    3    0    0 -0.13791376847E+02 -0.15793153075E+01  0.17096014339E+02  0.22022034845E+02  0.51100000000E-03 0. -1.
        -11    1    3    3    0    0  0.30209929944E+02  0.79372789319E+01  0.12009720130E+02  0.33464513173E+02  0.51100000000E-03 0.  1.
         12    1    3    3    0    0 -0.17032575453E+02 -0.54432003098E+01 -0.29529180173E+02  0.34521146242E+02  0.00000000000E+00 0. -1.
</event>
<event>
 7    1  0.1756449E-015  0.9000772E+02  0.7816164E-02  0.1186339E+00
        -11   -1    0    0    0    0  0.00000000000E+00  0.00000000000E+00  0.45593999997E+02  0.45594000000E+02  0.51100000000E-03 0. -1.
         11   -1    0    0    0    0 -0.00000000000E+00 -0.00000000000E+00 -0.45593999997E+02  0.45594000000E+02  0.51100000000E-03 0.  1.
    9900012    2    1    2    0    0 -0.66974156188E+00 -0.68295477500E+00  0.69143236626E+00  0.90007720499E+02  0.89999981609E+02 0.  0.
        -12    1    1    2    0    0  0.66974156188E+00  0.68295477500E+00 -0.69143236626E+00  0.11802795014E+01  0.00000000000E+00 0.  1.
         11    1    3    3    0    0  0.41821260750E+01 -0.58438278553E+00  0.12635667084E+02  0.13322603524E+02  0.51100000000E-03 0. -1.
        -11    1    3    3    0    0 -0.22496538470E+02  0.31208612713E+02 -0.13345600777E+02  0.40720717221E+02  0.51100000000E-03 0.  1.
         12    1    3    3    0    0  0.17644670833E+02 -0.31307184703E+02  0.14013660590E+01  0.35964399754E+02  0.00000000000E+00 0. -1.
</event>
<event>
 7    1  0.1756449E-015  0.9000782E+02  0.7816164E-02  0.1186339E+00
        -11   -1    0    0    0    0  0.00000000000E+00  0.00000000000E+00  0.45593999997E+02  0.45594000000E+02  0.51100000000E-03 0. -1.
         11   -1    0    0    0    0 -0.00000000000E+00 -0.00000000000E+00 -0.45593999997E+02  0.45594000000E+02  0.51100000000E-03 0.  1.
    9900012    2    1    2    0    0  0.98802213976E+00 -0.63741349622E+00  0.10165248657E+00  0.90007823343E+02  0.90000085811E+02 0.  0.
        -12    1    1    2    0    0 -0.98802213976E+00  0.63741349622E+00 -0.10165248657E+00  0.11801766571E+01  0.00000000000E+00 0.  1.
         11    1    3    3    0    0 -0.13352776053E+02 -0.51141818473E+00  0.25457841535E+02  0.28751693389E+02  0.51100000000E-03 0. -1.
        -11    1    3    3    0    0 -0.14003386374E+02 -0.16147713802E+02 -0.17840150416E+02  0.27840877466E+02  0.51100000000E-03 0.  1.
        -12    1    3    3    0    0  0.28344184566E+02  0.16021718490E+02 -0.75160386326E+01  0.33415252488E+02  0.00000000000E+00 0.  1.
</event>
<event>
 7    1  0.1756449E-015  0.9000776E+02  0.7816164E-02  0.1186339E+00
        -11   -1    0    0    0    0  0.00000000000E+00  0.00000000000E+00  0.45593999997E+02  0.45594000000E+02  0.51100000000E-03 0.  1.
         11   -1    0    0    0    0 -0.00000000000E+00 -0.00000000000E+00 -0.45593999997E+02  0.45594000000E+02  0.51100000000E-03 0. -1.
    9900012    2    1    2    0    0 -0.43450876194E+00 -0.79680395356E+00 -0.75450200834E+00  0.90007759480E+02  0.90000021105E+02 0.  0.
        -12    1    1    2    0    0  0.43450876194E+00  0.79680395356E+00  0.75450200834E+00  0.11802405201E+01  0.00000000000E+00 0.  1.
         11    1    3    3    0    0  0.16518188879E+02  0.22482423412E+02 -0.33035535297E+02  0.43239524962E+02  0.51100000000E-03 0. -1.
        -11    1    3    3    0    0 -0.83755823098E+01  0.99023207250E-02  0.44708378778E+01  0.94941491812E+01  0.51100000000E-03 0.  1.
        -12    1    3    3    0    0 -0.85771153307E+01 -0.23289129686E+02  0.27810195411E+02  0.37274085337E+02  0.00000000000E+00 0.  1.
</event>
<event>
 7    1  0.1756449E-015  0.9000763E+02  0.7816164E-02  0.1186339E+00
        -11   -1    0    0    0    0  0.00000000000E+00  0.00000000000E+00  0.45593999997E+02  0.45594000000E+02  0.51100000000E-03 0.  1.
         11   -1    0    0    0    0 -0.00000000000E+00 -0.00000000000E+00 -0.45593999997E+02  0.45594000000E+02  0.51100000000E-03 0. -1.
    9900012    2    1    2    0    0 -0.10923317027E+01 -0.11958315090E+00 -0.43102392797E+00  0.90007631284E+02  0.89999891217E+02 0.  0.
        -12    1    1    2    0    0  0.10923317027E+01  0.11958315090E+00  0.43102392797E+00  0.11803687158E+01  0.00000000000E+00 0.  1.
         11    1    3    3    0    0  0.67311737707E+01 -0.15069596714E+00  0.64268475778E+01  0.93078343161E+01  0.51100000000E-03 0. -1.
        -11    1    3    3    0    0  0.69990306841E+01 -0.18466116873E+02  0.30572147279E+02  0.36395605400E+02  0.51100000000E-03 0.  1.
         12    1    3    3    0    0 -0.14822536158E+02  0.18497229690E+02 -0.37430018785E+02  0.44304191569E+02  0.00000000000E+00 0. -1.
</event>
<event>
 7    1  0.1756449E-015  0.9000763E+02  0.7816164E-02  0.1186339E+00
        -11   -1    0    0    0    0  0.00000000000E+00  0.00000000000E+00  0.45593999997E+02  0.45594000000E+02  0.51100000000E-03 0.  1.
         11   -1    0    0    0    0 -0.00000000000E+00 -0.00000000000E+00 -0.45593999997E+02  0.45594000000E+02  0.51100000000E-03 0. -1.
    9900012    2    1    2    0    0 -0.15264948146E+00  0.11680054115E+01 -0.75732526946E-01  0.90007629753E+02  0.89999889665E+02 0.  0.
        -12    1    1    2    0    0  0.15264948146E+00 -0.11680054115E+01  0.75732526946E-01  0.11803702474E+01  0.00000000000E+00 0.  1.
         11    1    3    3    0    0 -0.48161322752E+01 -0.29275078041E+02 -0.21327510859E+02  0.36538856634E+02  0.51100000000E-03 0. -1.
        -11    1    3    3    0    0  0.11556584663E+02 -0.23379031486E+01 -0.29363382987E+01  0.12150823967E+02  0.51100000000E-03 0.  1.
        -12    1    3    3    0    0 -0.68931018697E+01  0.32780986602E+02  0.24188116630E+02  0.41317949151E+02  0.00000000000E+00 0.  1.
</event>
<event>
 7    1  0.1756449E-015  0.9000771E+02  0.7816164E-02  0.1186339E+00
        -11   -1    0    0    0    0  0.00000000000E+00  0.00000000000E+00  0.45593999997E+02  0.45594000000E+02  0.51100000000E-03 0. -1.
         11   -1    0    0    0    0 -0.00000000000E+00 -0.00000000000E+00 -0.45593999997E+02  0.45594000000E+02  0.51100000000E-03 0.  1.
    9900012    2    1    2    0    0 -0.75653617757E+00 -0.88627980164E+00  0.18773040837E+00  0.90007711230E+02  0.89999972218E+02 0.  0.
        -12    1    1    2    0    0  0.75653617757E+00  0.88627980164E+00 -0.18773040837E+00  0.11802887702E+01  0.00000000000E+00 0.  1.
         11    1    3    3    0    0  0.32709292597E+02 -0.13613339985E+02 -0.15011826006E+02  0.38478250585E+02  0.51100000000E-03 0. -1.
        -11    1    3    3    0    0  0.64029402159E+01 -0.86947847577E+00  0.50487536808E+01  0.82002164739E+01  0.51100000000E-03 0.  1.
        -12    1    3    3    0    0 -0.39868768990E+02  0.13596538660E+02  0.10150802734E+02  0.43329244171E+02  0.00000000000E+00 0.  1.
</event>
<event>
 7    1  0.1756449E-015  0.9000776E+02  0.7816164E-02  0.1186339E+00
        -11   -1    0    0    0    0  0.00000000000E+00  0.00000000000E+00  0.45593999997E+02  0.45594000000E+02  0.51100000000E-03 0. -1.
         11   -1    0    0    0    0 -0.00000000000E+00 -0.00000000000E+00 -0.45593999997E+02  0.45594000000E+02  0.51100000000E-03 0.  1.
    9900012    2    1    2    0    0 -0.96600593036E+00 -0.64736201957E-01  0.67499338182E+00  0.90007756678E+02  0.90000018266E+02 0.  0.
        -12    1    1    2    0    0  0.96600593036E+00  0.64736201957E-01 -0.67499338182E+00  0.11802433219E+01  0.00000000000E+00 0.  1.
         11    1    3    3    0    0 -0.37160228967E+02 -0.49237099015E+01 -0.12567924784E+02  0.39535784673E+02  0.51100000000E-03 0. -1.
        -11    1    3    3    0    0  0.99721276511E+00 -0.19950012813E+01 -0.83308390994E+01  0.86242300394E+01  0.51100000000E-03 0.  1.
        -12    1    3    3    0    0  0.35197010271E+02  0.68539749808E+01  0.21573757266E+02  0.41847741966E+02  0.00000000000E+00 0.  1.
</event>
<event>
 7    1  0.1756449E-015  0.9000783E+02  0.7816164E-02  0.1186339E+00
        -11   -1    0    0    0    0  0.00000000000E+00  0.00000000000E+00  0.45593999997E+02  0.45594000000E+02  0.51100000000E-03 0.  1.
         11   -1    0    0    0    0 -0.00000000000E+00 -0.00000000000E+00 -0.45593999997E+02  0.45594000000E+02  0.51100000000E-03 0. -1.
    9900012    2    1    2    0    0 -0.28340592508E+00 -0.54895232371E+00 -0.10055539082E+01  0.90007827879E+02  0.90000090407E+02 0.  0.
        -12    1    1    2    0    0  0.28340592508E+00  0.54895232371E+00  0.10055539082E+01  0.11801721207E+01  0.00000000000E+00 0.  1.
         11    1    3    3    0    0  0.46855462609E+01  0.85460527174E+01 -0.32918808111E+01  0.10287168724E+02  0.51100000000E-03 0. -1.
        -11    1    3    3    0    0 -0.11227154137E+02  0.32433950478E+02 -0.10374651021E+02  0.35855871454E+02  0.51100000000E-03 0.  1.
         12    1    3    3    0    0  0.62582019512E+01 -0.41528955519E+02  0.12660977924E+02  0.43864787702E+02  0.00000000000E+00 0. -1.
</event>
<event>
 7    1  0.1756449E-015  0.9000763E+02  0.7816164E-02  0.1186339E+00
        -11   -1    0    0    0    0  0.00000000000E+00  0.00000000000E+00  0.45593999997E+02  0.45594000000E+02  0.51100000000E-03 0.  1.
         11   -1    0    0    0    0 -0.00000000000E+00 -0.00000000000E+00 -0.45593999997E+02  0.45594000000E+02  0.51100000000E-03 0. -1.
    9900012    2    1    2    0    0 -0.14123606174E-01  0.79132675383E+00 -0.87571566334E+00  0.90007629113E+02  0.89999889017E+02 0.  0.
        -12    1    1    2    0    0  0.14123606174E-01 -0.79132675383E+00  0.87571566334E+00  0.11803708869E+01  0.00000000000E+00 0.  1.
         11    1    3    3    0    0 -0.20917890083E+02  0.26100310252E+02 -0.19302113474E+02  0.38618077445E+02  0.51100000000E-03 0. -1.
        -11    1    3    3    0    0  0.19642984184E+01 -0.10495818854E+01 -0.95446687039E+01  0.98010607252E+01  0.51100000000E-03 0.  1.
        -12    1    3    3    0    0  0.18939468058E+02 -0.24259401612E+02  0.27971066515E+02  0.41588490943E+02  0.00000000000E+00 0.  1.
</event>
<event>
 7    1  0.1756449E-015  0.9000777E+02  0.7816164E-02  0.1186339E+00
        -11   -1    0    0    0    0  0.00000000000E+00  0.00000000000E+00  0.45593999997E+02  0.45594000000E+02  0.51100000000E-03 0.  1.
         11   -1    0    0    0    0 -0.00000000000E+00 -0.00000000000E+00 -0.45593999997E+02  0.45594000000E+02  0.51100000000E-03 0. -1.
    9900012    2    1    2    0    0  0.82690721016E+00 -0.46553858395E+00  0.70174437193E+00  0.90007768298E+02  0.90000030039E+02 0.  0.
        -12    1    1    2    0    0 -0.82690721016E+00  0.46553858395E+00 -0.70174437193E+00  0.11802317022E+01  0.00000000000E+00 0.  1.
         11    1    3    3    0    0 -0.29816799066E+02  0.23261493533E+02  0.19878507603E+02  0.42723455533E+02  0.51100000000E-03 0. -1.
        -11    1    3    3    0    0  0.23961192107E+01 -0.67138287686E+00 -0.91304239050E+01  0.94634445729E+01  0.51100000000E-03 0.  1.
        -12    1    3    3    0    0  0.28247587066E+02 -0.23055649240E+02 -0.10046339326E+02  0.37820868192E+02  0.00000000000E+00 0.  1.
</event>
<event>
 7    1  0.1756449E-015  0.9000776E+02  0.7816164E-02  0.1186339E+00
        -11   -1    0    0    0    0  0.00000000000E+00  0.00000000000E+00  0.45593999997E+02  0.45594000000E+02  0.51100000000E-03 0.  1.
         11   -1    0    0    0    0 -0.00000000000E+00 -0.00000000000E+00 -0.45593999997E+02  0.45594000000E+02  0.51100000000E-03 0. -1.
    9900012    2    1    2    0    0 -0.76310113493E+00 -0.41269895889E+00 -0.80020019927E+00  0.90007760985E+02  0.90000022630E+02 0.  0.
        -12    1    1    2    0    0  0.76310113493E+00  0.41269895889E+00  0.80020019927E+00  0.11802390146E+01  0.00000000000E+00 0.  1.
         11    1    3    3    0    0  0.22236551153E+02  0.30501571076E+02 -0.14444628033E+01  0.37774283822E+02  0.51100000000E-03 0. -1.
        -11    1    3    3    0    0 -0.37111285548E-01  0.46341799641E+01 -0.78061652097E+01  0.90781725435E+01  0.51100000000E-03 0.  1.
        -12    1    3    3    0    0 -0.22962541002E+02 -0.35548449999E+02  0.84504278137E+01  0.43155304619E+02  0.00000000000E+00 0.  1.
</event>
<event>
 7    1  0.1756449E-015  0.9000770E+02  0.7816164E-02  0.1186339E+00
        -11   -1    0    0    0    0  0.00000000000E+00  0.00000000000E+00  0.45593999997E+02  0.45594000000E+02  0.51100000000E-03 0.  1.
         11   -1    0    0    0    0 -0.00000000000E+00 -0.00000000000E+00 -0.45593999997E+02  0.45594000000E+02  0.51100000000E-03 0. -1.
    9900012    2    1    2    0    0  0.10511536111E+01  0.44376965641E+00  0.30206915941E+00  0.90007702919E+02  0.89999963798E+02 0.  0.
        -12    1    1    2    0    0 -0.10511536111E+01 -0.44376965641E+00 -0.30206915941E+00  0.11802970809E+01  0.00000000000E+00 0.  1.
         11    1    3    3    0    0 -0.27260455060E+02 -0.24846501475E+02  0.14508895105E+02  0.39635704649E+02  0.51100000000E-03 0. -1.
        -11    1    3    3    0    0 -0.59929082296E+01  0.43596795586E+01  0.84709825067E+00  0.74591776095E+01  0.51100000000E-03 0.  1.
        -12    1    3    3    0    0  0.34304516900E+02  0.20930591573E+02 -0.15053924196E+02  0.42912820661E+02  0.00000000000E+00 0.  1.
</event>
<event>
 7    1  0.1756449E-015  0.9000772E+02  0.7816164E-02  0.1186339E+00
        -11   -1    0    0    0    0  0.00000000000E+00  0.00000000000E+00  0.45593999997E+02  0.45594000000E+02  0.51100000000E-03 0.  1.
         11   -1    0    0    0    0 -0.00000000000E+00 -0.00000000000E+00 -0.45593999997E+02  0.45594000000E+02  0.51100000000E-03 0. -1.
    9900012    2    1    2    0    0  0.10993489814E+01 -0.30969180545E+00 -0.29762415782E+00  0.90007721500E+02  0.89999982624E+02 0.  0.
        -12    1    1    2    0    0 -0.10993489814E+01  0.30969180545E+00  0.29762415782E+00  0.11802784996E+01  0.00000000000E+00 0.  1.
         11    1    3    3    0    0  0.28680163301E+02  0.26135827932E+02  0.36554071325E+01  0.38974289862E+02  0.51100000000E-03 0. -1.
        -11    1    3    3    0    0 -0.51419312410E+01  0.79942772439E+01 -0.28137037868E+01  0.99128630980E+01  0.51100000000E-03 0.  1.
        -12    1    3    3    0    0 -0.22438883079E+02 -0.34439796981E+02 -0.11393275035E+01  0.41120568541E+02  0.00000000000E+00 0.  1.
</event>
<event>
 7    1  0.1756449E-015  0.9000776E+02  0.7816164E-02  0.1186339E+00
        -11   -1    0    0    0    0  0.00000000000E+00  0.00000000000E+00  0.45593999997E+02  0.45594000000E+02  0.51100000000E-03 0. -1.
         11   -1    0    0    0    0 -0.00000000000E+00 -0.00000000000E+00 -0.45593999997E+02  0.45594000000E+02  0.51100000000E-03 0.  1.
    9900012    2    1    2    0    0  0.10987363043E+01  0.62032137159E-01 -0.42649680893E+00  0.90007758931E+02  0.90000020549E+02 0.  0.
        -12    1    1    2    0    0 -0.10987363043E+01 -0.62032137159E-01  0.42649680893E+00  0.11802410688E+01  0.00000000000E+00 0.  1.
         11    1    3    3    0    0 -0.39161675444E+00  0.13767881573E+02  0.33457855335E+01  0.14173997594E+02  0.51100000000E-03 0. -1.
        -11    1    3    3    0    0  0.28035048823E+02  0.14067056655E+02 -0.16398070272E+02  0.35394106210E+02  0.51100000000E-03 0.  1.
         12    1    3    3    0    0 -0.26544695764E+02 -0.27772906091E+02  0.12625787930E+02  0.40439655128E+02  0.00000000000E+00 0. -1.
</event>
<event>
 7    1  0.1756449E-015  0.9000797E+02  0.7816164E-02  0.1186339E+00
        -11   -1    0    0    0    0  0.00000000000E+00  0.00000000000E+00  0.45593999997E+02  0.45594000000E+02  0.51100000000E-03 0.  1.
         11   -1    0    0    0    0 -0.00000000000E+00 -0.00000000000E+00 -0.45593999997E+02  0.45594000000E+02  0.51100000000E-03 0. -1.
    9900012    2    1    2    0    0 -0.83331053499E+00  0.48291107975E+00 -0.68180002316E+00  0.90007974225E+02  0.90000238684E+02 0.  0.
        -12    1    1    2    0    0  0.83331053499E+00 -0.48291107975E+00  0.68180002316E+00  0.11800257752E+01  0.00000000000E+00 0.  1.
         11    1    3    3    0    0  0.13751931487E+02  0.32966108798E+02 -0.16705943503E+02  0.39433088866E+02  0.51100000000E-03 0. -1.
        -11    1    3    3    0    0  0.65646685804E+01 -0.10609118889E+02 -0.51588625065E+01  0.13500449614E+02  0.51100000000E-03 0.  1.
        -12    1    3    3    0    0 -0.21149910603E+02 -0.21874078830E+02  0.21183005987E+02  0.37074435745E+02  0.00000000000E+00 0.  1.
</event>
<event>
 7    1  0.1756449E-015  0.9000770E+02  0.7816164E-02  0.1186339E+00
        -11   -1    0    0    0    0  0.00000000000E+00  0.00000000000E+00  0.45593999997E+02  0.45594000000E+02  0.51100000000E-03 0. -1.
         11   -1    0    0    0    0 -0.00000000000E+00 -0.00000000000E+00 -0.45593999997E+02  0.45594000000E+02  0.51100000000E-03 0.  1.
    9900012    2    1    2    0    0 -0.31592579093E+00 -0.10830140628E+01  0.34695701284E+00  0.90007700151E+02  0.89999960993E+02 0.  0.
        -12    1    1    2    0    0  0.31592579093E+00  0.10830140628E+01 -0.34695701284E+00  0.11802998493E+01  0.00000000000E+00 0.  1.
         11    1    3    3    0    0 -0.14400350843E+02 -0.24739882053E+02 -0.22451004722E+02  0.36379657525E+02  0.51100000000E-03 0. -1.
        -11    1    3    3    0    0 -0.75066891748E+01 -0.57829834625E+01 -0.17469462285E+01  0.96356163000E+01  0.51100000000E-03 0.  1.
        -12    1    3    3    0    0  0.21591114227E+02  0.29439851452E+02  0.24544907963E+02  0.43992426326E+02  0.00000000000E+00 0.  1.
</event>
<event>
 7    1  0.1756449E-015  0.9000708E+02  0.7816164E-02  0.1186340E+00
        -11   -1    0    0    0    0  0.00000000000E+00  0.00000000000E+00  0.45593999997E+02  0.45594000000E+02  0.51100000000E-03 0.  1.
         11   -1    0    0    0    0 -0.00000000000E+00 -0.00000000000E+00 -0.45593999997E+02  0.45594000000E+02  0.51100000000E-03 0. -1.
    9900012    2    1    2    0    0 -0.23032322994E+00  0.10757656241E+01 -0.42924121588E+00  0.90007081506E+02  0.89999334179E+02 0.  0.
        -12    1    1    2    0    0  0.23032322994E+00 -0.10757656241E+01  0.42924121588E+00  0.11809184941E+01  0.00000000000E+00 0.  1.
         11    1    3    3    0    0 -0.21043464517E+01 -0.42698481920E+01 -0.13402589224E+02  0.14222843447E+02  0.51100000000E-03 0. -1.
        -11    1    3    3    0    0  0.23057909819E+02  0.32691796428E+02  0.85785531159E+01  0.40914695805E+02  0.51100000000E-03 0.  1.
         12    1    3    3    0    0 -0.21183886598E+02 -0.27346182612E+02  0.43947948920E+01  0.34869542254E+02  0.00000000000E+00 0. -1.
</event>
<event>
 7    1  0.1756449E-015  0.9000778E+02  0.7816164E-02  0.1186339E+00
        -11   -1    0    0    0    0  0.00000000000E+00  0.00000000000E+00  0.45593999997E+02  0.45594000000E+02  0.51100000000E-03 0. -1.
         11   -1    0    0    0    0 -0.00000000000E+00 -0.00000000000E+00 -0.45593999997E+02  0.45594000000E+02  0.51100000000E-03 0.  1.
    9900012    2    1    2    0    0 -0.67021435478E+00 -0.17216334520E-01  0.97130133546E+00  0.90007783932E+02  0.90000045880E+02 0.  0.
        -12    1    1    2    0    0  0.67021435478E+00  0.17216334520E-01 -0.97130133546E+00  0.11802160683E+01  0.00000000000E+00 0.  1.
         11    1    3    3    0    0  0.50764568159E+01 -0.15718905639E+01 -0.11882815265E+02  0.13017010126E+02  0.51100000000E-03 0. -1.
        -11    1    3    3    0    0 -0.73831389328E+01  0.21437891458E+02 -0.25276827254E+02  0.33956029316E+02  0.51100000000E-03 0.  1.
         12    1    3    3    0    0  0.16364677621E+01 -0.19883217229E+02  0.38130943854E+02  0.43034744489E+02  0.00000000000E+00 0. -1.
</event>
<event>
 7    1  0.1933365E-015  0.9000778E+02  0.7816164E-02  0.1186339E+00
        -11   -1    0    0    0    0  0.00000000000E+00  0.00000000000E+00  0.45593999997E+02  0.45594000000E+02  0.51100000000E-03 0. -1.
         11   -1    0    0    0    0 -0.00000000000E+00 -0.00000000000E+00 -0.45593999997E+02  0.45594000000E+02  0.51100000000E-03 0.  1.
    9900012    2    1    2    0    0  0.98676598590E+00  0.41501977508E+00  0.49695696006E+00  0.90007781908E+02  0.90000043829E+02 0.  0.
        -12    1    1    2    0    0 -0.98676598590E+00 -0.41501977508E+00 -0.49695696006E+00  0.11802180920E+01  0.00000000000E+00 0.  1.
         11    1    3    3    0    0 -0.87532301605E+01  0.18568846729E+01 -0.21366387272E+01  0.91995806558E+01  0.51100000000E-03 0. -1.
        -11    1    3    3    0    0 -0.20752054565E+02  0.27186195270E+02 -0.12375692983E+02  0.36371620241E+02  0.51100000000E-03 0.  1.
         12    1    3    3    0    0  0.30492050711E+02 -0.28628060168E+02  0.15009288671E+02  0.44436581011E+02  0.00000000000E+00 0. -1.
</event>
<event>
 7    1  0.1756449E-015  0.9000782E+02  0.7816164E-02  0.1186339E+00
        -11   -1    0    0    0    0  0.00000000000E+00  0.00000000000E+00  0.45593999997E+02  0.45594000000E+02  0.51100000000E-03 0. -1.
         11   -1    0    0    0    0 -0.00000000000E+00 -0.00000000000E+00 -0.45593999997E+02  0.45594000000E+02  0.51100000000E-03 0.  1.
    9900012    2    1    2    0    0  0.72166189071E+00  0.38812502741E+00  0.84934629123E+00  0.90007819487E+02  0.90000081904E+02 0.  0.
        -12    1    1    2    0    0 -0.72166189071E+00 -0.38812502741E+00 -0.84934629123E+00  0.11801805132E+01  0.00000000000E+00 0.  1.
         11    1    3    3    0    0  0.78920860553E+01  0.73856653925E+00 -0.65609733212E+01  0.10289648877E+02  0.51100000000E-03 0. -1.
        -11    1    3    3    0    0  0.34412125000E+02  0.89543766592E+01 -0.35080611142E+01  0.35730682912E+02  0.51100000000E-03 0.  1.
         12    1    3    3    0    0 -0.41582549164E+02 -0.93048181710E+01  0.10918380727E+02  0.43987487697E+02  0.00000000000E+00 0. -1.
</event>
<event>
 7    1  0.1756449E-015  0.9000771E+02  0.7816164E-02  0.1186339E+00
        -11   -1    0    0    0    0  0.00000000000E+00  0.00000000000E+00  0.45593999997E+02  0.45594000000E+02  0.51100000000E-03 0.  1.
         11   -1    0    0    0    0 -0.00000000000E+00 -0.00000000000E+00 -0.45593999997E+02  0.45594000000E+02  0.51100000000E-03 0. -1.
    9900012    2    1    2    0    0 -0.19403234932E+00 -0.11574620715E+01 -0.12539326739E+00  0.90007707464E+02  0.89999968402E+02 0.  0.
        -12    1    1    2    0    0  0.19403234932E+00  0.11574620715E+01  0.12539326739E+00  0.11802925363E+01  0.00000000000E+00 0.  1.
         11    1    3    3    0    0  0.29113946979E+02  0.21273898896E+02  0.18752210588E+01  0.36107023378E+02  0.51100000000E-03 0. -1.
        -11    1    3    3    0    0 -0.18145036912E+02  0.50199356099E+01  0.10705304960E+02  0.21657462285E+02  0.51100000000E-03 0.  1.
        -12    1    3    3    0    0 -0.11162942416E+02 -0.27451296578E+02 -0.12705919286E+02  0.32243221801E+02  0.00000000000E+00 0.  1.
</event>
<event>
 7    1  0.1756449E-015  0.9000775E+02  0.7816164E-02  0.1186339E+00
        -11   -1    0    0    0    0  0.00000000000E+00  0.00000000000E+00  0.45593999997E+02  0.45594000000E+02  0.51100000000E-03 0. -1.
         11   -1    0    0    0    0 -0.00000000000E+00 -0.00000000000E+00 -0.45593999997E+02  0.45594000000E+02  0.51100000000E-03 0.  1.
    9900012    2    1    2    0    0 -0.42506009786E+00  0.10347062227E+01  0.37643530915E+00  0.90007747232E+02  0.90000008696E+02 0.  0.
        -12    1    1    2    0    0  0.42506009786E+00 -0.10347062227E+01 -0.37643530915E+00  0.11802527678E+01  0.00000000000E+00 0.  1.
         11    1    3    3    0    0 -0.37311989841E+02 -0.93505183595E+01  0.12222308703E+01  0.38485200117E+02  0.51100000000E-03 0. -1.
        -11    1    3    3    0    0  0.17479050446E+01 -0.40901613861E+00  0.12339791786E+02  0.12469680342E+02  0.51100000000E-03 0.  1.
        -12    1    3    3    0    0  0.35139024699E+02  0.10794240721E+02 -0.13185587347E+02  0.39052866773E+02  0.00000000000E+00 0.  1.
</event>
<event>
 7    1  0.1756449E-015  0.9000764E+02  0.7816164E-02  0.1186339E+00
        -11   -1    0    0    0    0  0.00000000000E+00  0.00000000000E+00  0.45593999997E+02  0.45594000000E+02  0.51100000000E-03 0. -1.
         11   -1    0    0    0    0 -0.00000000000E+00 -0.00000000000E+00 -0.45593999997E+02  0.45594000000E+02  0.51100000000E-03 0.  1.
    9900012    2    1    2    0    0 -0.11360567802E+01  0.30336759880E+00  0.10289839633E+00  0.90007642009E+02  0.89999902083E+02 0.  0.
        -12    1    1    2    0    0  0.11360567802E+01 -0.30336759880E+00 -0.10289839633E+00  0.11803579913E+01  0.00000000000E+00 0.  1.
         11    1    3    3    0    0  0.13459895289E+02  0.10378909855E+01 -0.73205450600E+01  0.15356965166E+02  0.51100000000E-03 0. -1.
        -11    1    3    3    0    0 -0.10473506330E+01  0.38580763849E+01 -0.32239619330E+02  0.32486531848E+02  0.51100000000E-03 0.  1.
         12    1    3    3    0    0 -0.13548601436E+02 -0.45925997715E+01  0.39663062786E+02  0.42164144994E+02  0.00000000000E+00 0. -1.
</event>
<event>
 7    1  0.1756449E-015  0.9000774E+02  0.7816164E-02  0.1186339E+00
        -11   -1    0    0    0    0  0.00000000000E+00  0.00000000000E+00  0.45593999997E+02  0.45594000000E+02  0.51100000000E-03 0. -1.
         11   -1    0    0    0    0 -0.00000000000E+00 -0.00000000000E+00 -0.45593999997E+02  0.45594000000E+02  0.51100000000E-03 0.  1.
    9900012    2    1    2    0    0 -0.28483252643E+00  0.10285671734E+01  0.50392690968E+00  0.90007736331E+02  0.89999997650E+02 0.  0.
        -12    1    1    2    0    0  0.28483252643E+00 -0.10285671734E+01 -0.50392690968E+00  0.11802636691E+01  0.00000000000E+00 0.  1.
         11    1    3    3    0    0 -0.16497279144E+01  0.44561934726E+01 -0.36036779059E+02  0.36348709849E+02  0.51100000000E-03 0. -1.
        -11    1    3    3    0    0  0.59314722008E+01  0.12793858890E+02  0.77644745491E+00  0.14123316136E+02  0.51100000000E-03 0.  1.
         12    1    3    3    0    0 -0.45665768128E+01 -0.16221485189E+02  0.35764258514E+02  0.39535710346E+02  0.00000000000E+00 0. -1.
</event>
<event>
 7    1  0.1756449E-015  0.9000769E+02  0.7816164E-02  0.1186339E+00
        -11   -1    0    0    0    0  0.00000000000E+00  0.00000000000E+00  0.45593999997E+02  0.45594000000E+02  0.51100000000E-03 0.  1.
         11   -1    0    0    0    0 -0.00000000000E+00 -0.00000000000E+00 -0.45593999997E+02  0.45594000000E+02  0.51100000000E-03 0. -1.
    9900012    2    1    2    0    0  0.36988227054E+00 -0.76155358209E+00 -0.82240122814E+00  0.90007694729E+02  0.89999955500E+02 0.  0.
        -12    1    1    2    0    0 -0.36988227054E+00  0.76155358209E+00  0.82240122814E+00  0.11803052709E+01  0.00000000000E+00 0.  1.
         11    1    3    3    0    0  0.27392852621E+01 -0.65409344297E+01  0.61891405083E+01  0.94123837286E+01  0.51100000000E-03 0. -1.
        -11    1    3    3    0    0  0.31235568188E+02  0.13814109412E+02  0.17359994862E+02  0.38312657970E+02  0.51100000000E-03 0.  1.
         12    1    3    3    0    0 -0.33604971180E+02 -0.80347285642E+01 -0.24371536599E+02  0.42282653030E+02  0.00000000000E+00 0. -1.
</event>
<event>
 7    1  0.1756449E-015  0.9000770E+02  0.7816164E-02  0.1186339E+00
        -11   -1    0    0    0    0  0.00000000000E+00  0.00000000000E+00  0.45593999997E+02  0.45594000000E+02  0.51100000000E-03 0. -1.
         11   -1    0    0    0    0 -0.00000000000E+00 -0.00000000000E+00 -0.45593999997E+02  0.45594000000E+02  0.51100000000E-03 0.  1.
    9900012    2    1    2    0    0 -0.10576980686E+01  0.17532351741E+00  0.49360461801E+00  0.90007699589E+02  0.89999960424E+02 0.  0.
        -12    1    1    2    0    0  0.10576980686E+01 -0.17532351741E+00 -0.49360461801E+00  0.11803004105E+01  0.00000000000E+00 0.  1.
         11    1    3    3    0    0 -0.44952280287E+01  0.76410697355E+01 -0.44441672307E+01  0.99168364092E+01  0.51100000000E-03 0. -1.
        -11    1    3    3    0    0 -0.76570429829E+01  0.34979361037E+02  0.54297966551E+01  0.36216966988E+02  0.51100000000E-03 0.  1.
         12    1    3    3    0    0  0.11094572943E+02 -0.42445107255E+02 -0.49202480638E+00  0.43873896192E+02  0.00000000000E+00 0. -1.
</event>
<event>
 7    1  0.1756449E-015  0.9000776E+02  0.7816164E-02  0.1186339E+00
        -11   -1    0    0    0    0  0.00000000000E+00  0.00000000000E+00  0.45593999997E+02  0.45594000000E+02  0.51100000000E-03 0.  1.
         11   -1    0    0    0    0 -0.00000000000E+00 -0.00000000000E+00 -0.45593999997E+02  0.45594000000E+02  0.51100000000E-03 0. -1.
    9900012    2    1    2    0    0 -0.57435222243E+00 -0.10784472598E+00 -0.10254049786E+01  0.90007760054E+02  0.90000021687E+02 0.  0.
        -12    1    1    2    0    0  0.57435222243E+00  0.10784472598E+00  0.10254049786E+01  0.11802399461E+01  0.00000000000E+00 0.  1.
         11    1    3    3    0    0 -0.35379961520E+02 -0.73927322365E+01 -0.32407543264E+01  0.36289070750E+02  0.51100000000E-03 0. -1.
        -11    1    3    3    0    0 -0.81831809266E+01 -0.27060803234E+01  0.40988566915E+01  0.95440005884E+01  0.51100000000E-03 0.  1.
        -12    1    3    3    0    0  0.42988790224E+02  0.99909678340E+01 -0.18835073437E+01  0.44174688715E+02  0.00000000000E+00 0.  1.
</event>
<event>
 7    1  0.1756449E-015  0.9000769E+02  0.7816164E-02  0.1186339E+00
        -11   -1    0    0    0    0  0.00000000000E+00  0.00000000000E+00  0.45593999997E+02  0.45594000000E+02  0.51100000000E-03 0. -1.
         11   -1    0    0    0    0 -0.00000000000E+00 -0.00000000000E+00 -0.45593999997E+02  0.45594000000E+02  0.51100000000E-03 0.  1.
    9900012    2    1    2    0    0 -0.39384365682E+00  0.73828322715E+00  0.83244087600E+00  0.90007689549E+02  0.89999950251E+02 0.  0.
        -12    1    1    2    0    0  0.39384365682E+00 -0.73828322715E+00 -0.83244087600E+00  0.11803104513E+01  0.00000000000E+00 0.  1.
         11    1    3    3    0    0 -0.79583442920E+01 -0.39351779816E+02 -0.78488103922E+01  0.40908454424E+02  0.51100000000E-03 0. -1.
        -11    1    3    3    0    0  0.78570780509E+01  0.45831992439E+01 -0.57603970957E+01  0.10766687781E+02  0.51100000000E-03 0.  1.
        -12    1    3    3    0    0 -0.29257741576E+00  0.35506863799E+02  0.14441648364E+02  0.38332547344E+02  0.00000000000E+00 0.  1.
</event>
<event>
 7    1  0.1756449E-015  0.9000746E+02  0.7816164E-02  0.1186340E+00
        -11   -1    0    0    0    0  0.00000000000E+00  0.00000000000E+00  0.45593999997E+02  0.45594000000E+02  0.51100000000E-03 0.  1.
         11   -1    0    0    0    0 -0.00000000000E+00 -0.00000000000E+00 -0.45593999997E+02  0.45594000000E+02  0.51100000000E-03 0. -1.
    9900012    2    1    2    0    0 -0.71769703121E-01 -0.11507480550E+01 -0.25360020926E+00  0.90007455616E+02  0.89999713230E+02 0.  0.
        -12    1    1    2    0    0  0.71769703121E-01  0.11507480550E+01  0.25360020926E+00  0.11805443839E+01  0.00000000000E+00 0.  1.
         11    1    3    3    0    0 -0.12317343683E+02  0.22305061399E+02 -0.27515950584E+02  0.37501470054E+02  0.51100000000E-03 0. -1.
        -11    1    3    3    0    0 -0.56338989738E+01  0.69951767457E+01  0.23299641399E+01  0.92791189509E+01  0.51100000000E-03 0.  1.
        -12    1    3    3    0    0  0.17879472954E+02 -0.30450986199E+02  0.24932386235E+02  0.43226866611E+02  0.00000000000E+00 0.  1.
</event>
<event>
 7    1  0.1756449E-015  0.9000776E+02  0.7816164E-02  0.1186339E+00
        -11   -1    0    0    0    0  0.00000000000E+00  0.00000000000E+00  0.45593999997E+02  0.45594000000E+02  0.51100000000E-03 0. -1.
         11   -1    0    0    0    0 -0.00000000000E+00 -0.00000000000E+00 -0.45593999997E+02  0.45594000000E+02  0.51100000000E-03 0.  1.
    9900012    2    1    2    0    0  0.28883603616E-01  0.10144668149E+01 -0.60249311731E+00  0.90007756323E+02  0.90000017906E+02 0.  0.
        -12    1    1    2    0    0 -0.28883603616E-01 -0.10144668149E+01  0.60249311731E+00  0.11802436772E+01  0.00000000000E+00 0.  1.
         11    1    3    3    0    0  0.38149402558E+01 -0.34864802973E+01 -0.94102636033E+01  0.10736031639E+02  0.51100000000E-03 0. -1.
        -11    1    3    3    0    0  0.27349286944E+02  0.18418253518E+02 -0.16434914613E+02  0.36841850898E+02  0.51100000000E-03 0.  1.
         12    1    3    3    0    0 -0.31135343596E+02 -0.13917306406E+02  0.25242685099E+02  0.42429873785E+02  0.00000000000E+00 0. -1.
</event>
<event>
 7    1  0.1756449E-015  0.9000770E+02  0.7816164E-02  0.1186339E+00
        -11   -1    0    0    0    0  0.00000000000E+00  0.00000000000E+00  0.45593999997E+02  0.45594000000E+02  0.51100000000E-03 0. -1.
         11   -1    0    0    0    0 -0.00000000000E+00 -0.00000000000E+00 -0.45593999997E+02  0.45594000000E+02  0.51100000000E-03 0.  1.
    9900012    2    1    2    0    0 -0.13748387533E+00 -0.11667840108E+01  0.11321897981E+00  0.90007701190E+02  0.89999962046E+02 0.  0.
        -12    1    1    2    0    0  0.13748387533E+00  0.11667840108E+01 -0.11321897981E+00  0.11802988102E+01  0.00000000000E+00 0.  1.
         11    1    3    3    0    0  0.77062053319E+01 -0.76814594702E+01  0.26089525563E+01  0.11189148936E+02  0.51100000000E-03 0. -1.
        -11    1    3    3    0    0  0.10664027344E+02 -0.24145532737E+02  0.22875799107E+02  0.34928933786E+02  0.51100000000E-03 0.  1.
         12    1    3    3    0    0 -0.18507716551E+02  0.30660208197E+02 -0.25371532683E+02  0.43889618468E+02  0.00000000000E+00 0. -1.
</event>
<event>
 7    1  0.1756449E-015  0.9000772E+02  0.7816164E-02  0.1186339E+00
        -11   -1    0    0    0    0  0.00000000000E+00  0.00000000000E+00  0.45593999997E+02  0.45594000000E+02  0.51100000000E-03 0. -1.
         11   -1    0    0    0    0 -0.00000000000E+00 -0.00000000000E+00 -0.45593999997E+02  0.45594000000E+02  0.51100000000E-03 0.  1.
    9900012    2    1    2    0    0  0.82514409089E+00  0.66586063954E+00  0.51847488156E+00  0.90007724877E+02  0.89999986046E+02 0.  0.
        -12    1    1    2    0    0 -0.82514409089E+00 -0.66586063954E+00 -0.51847488156E+00  0.11802751225E+01  0.00000000000E+00 0.  1.
         11    1    3    3    0    0  0.85167772351E+01 -0.30082649052E+01  0.24370197397E+01  0.93554378671E+01  0.51100000000E-03 0. -1.
        -11    1    3    3    0    0  0.34462012952E+02  0.10806926925E+02  0.74688749902E+01  0.36880944946E+02  0.51100000000E-03 0.  1.
         12    1    3    3    0    0 -0.42153646096E+02 -0.71328013805E+01 -0.93874198483E+01  0.43771342064E+02  0.00000000000E+00 0. -1.
</event>
<event>
 7    1  0.1756449E-015  0.9000776E+02  0.7816164E-02  0.1186339E+00
        -11   -1    0    0    0    0  0.00000000000E+00  0.00000000000E+00  0.45593999997E+02  0.45594000000E+02  0.51100000000E-03 0. -1.
         11   -1    0    0    0    0 -0.00000000000E+00 -0.00000000000E+00 -0.45593999997E+02  0.45594000000E+02  0.51100000000E-03 0.  1.
    9900012    2    1    2    0    0 -0.95400940561E+00 -0.20878208178E+00 -0.66275631760E+00  0.90007758567E+02  0.90000020180E+02 0.  0.
        -12    1    1    2    0    0  0.95400940561E+00  0.20878208178E+00  0.66275631760E+00  0.11802414330E+01  0.00000000000E+00 0.  1.
         11    1    3    3    0    0  0.20145764717E+02  0.66052343011E+01  0.30576397498E+02  0.37207486349E+02  0.51100000000E-03 0. -1.
        -11    1    3    3    0    0  0.34600289543E+01  0.63890013765E+01  0.36553188589E+01  0.81334184188E+01  0.51100000000E-03 0.  1.
        -12    1    3    3    0    0 -0.24559803077E+02 -0.13203017759E+02 -0.34894472674E+02  0.44666853799E+02  0.00000000000E+00 0.  1.
</event>
<event>
 7    1  0.1756449E-015  0.9000778E+02  0.7816164E-02  0.1186339E+00
        -11   -1    0    0    0    0  0.00000000000E+00  0.00000000000E+00  0.45593999997E+02  0.45594000000E+02  0.51100000000E-03 0.  1.
         11   -1    0    0    0    0 -0.00000000000E+00 -0.00000000000E+00 -0.45593999997E+02  0.45594000000E+02  0.51100000000E-03 0. -1.
    9900012    2    1    2    0    0  0.61561329445E+00  0.10770506962E+00  0.10011734166E+01  0.90007776157E+02  0.90000038002E+02 0.  0.
        -12    1    1    2    0    0 -0.61561329445E+00 -0.10770506962E+00 -0.10011734166E+01  0.11802238434E+01  0.00000000000E+00 0.  1.
         11    1    3    3    0    0  0.23835746767E+02  0.31247576143E+01 -0.30911218967E+02  0.39158784358E+02  0.51100000000E-03 0. -1.
        -11    1    3    3    0    0  0.69948803917E+01  0.46691802424E+01  0.66552595602E+01  0.10724834540E+02  0.51100000000E-03 0.  1.
        -12    1    3    3    0    0 -0.30215013864E+02 -0.76862327871E+01  0.25257132824E+02  0.40124157259E+02  0.00000000000E+00 0.  1.
</event>
<event>
 7    1  0.1756449E-015  0.9000766E+02  0.7816164E-02  0.1186339E+00
        -11   -1    0    0    0    0  0.00000000000E+00  0.00000000000E+00  0.45593999997E+02  0.45594000000E+02  0.51100000000E-03 0. -1.
         11   -1    0    0    0    0 -0.00000000000E+00 -0.00000000000E+00 -0.45593999997E+02  0.45594000000E+02  0.51100000000E-03 0.  1.
    9900012    2    1    2    0    0  0.28708311846E+00 -0.31893678423E+00  0.10995725807E+01  0.90007662231E+02  0.89999922572E+02 0.  0.
        -12    1    1    2    0    0 -0.28708311846E+00  0.31893678423E+00 -0.10995725807E+01  0.11803377692E+01  0.00000000000E+00 0.  1.
         11    1    3    3    0    0 -0.15467585266E+01  0.55347577972E+01  0.10144369781E+02  0.11659084198E+02  0.51100000000E-03 0. -1.
        -11    1    3    3    0    0 -0.11696653048E+02 -0.27989764093E+02  0.22307136418E+02  0.37654308146E+02  0.51100000000E-03 0.  1.
         12    1    3    3    0    0  0.13530494693E+02  0.22136069511E+02 -0.31351933619E+02  0.40694269887E+02  0.00000000000E+00 0. -1.
</event>
<event>
 7    1  0.1756449E-015  0.9000776E+02  0.7816164E-02  0.1186339E+00
        -11   -1    0    0    0    0  0.00000000000E+00  0.00000000000E+00  0.45593999997E+02  0.45594000000E+02  0.51100000000E-03 0.  1.
         11   -1    0    0    0    0 -0.00000000000E+00 -0.00000000000E+00 -0.45593999997E+02  0.45594000000E+02  0.51100000000E-03 0. -1.
    9900012    2    1    2    0    0  0.46916936004E+00 -0.60143660030E+00 -0.90062530056E+00  0.90007757735E+02  0.90000019337E+02 0.  0.
        -12    1    1    2    0    0 -0.46916936004E+00  0.60143660030E+00  0.90062530056E+00  0.11802422652E+01  0.00000000000E+00 0.  1.
         11    1    3    3    0    0  0.36438497061E+01 -0.14562931776E+01  0.56090825256E+01  0.68454537863E+01  0.51100000000E-03 0. -1.
        -11    1    3    3    0    0  0.36791790721E+02 -0.30596454568E+01  0.12169589894E+02  0.38872821009E+02  0.51100000000E-03 0.  1.
         12    1    3    3    0    0 -0.39966471067E+02  0.39145020341E+01 -0.18679297720E+02  0.44289482939E+02  0.00000000000E+00 0. -1.
</event>
<event>
 7    1  0.1756449E-015  0.9000777E+02  0.7816164E-02  0.1186339E+00
        -11   -1    0    0    0    0  0.00000000000E+00  0.00000000000E+00  0.45593999997E+02  0.45594000000E+02  0.51100000000E-03 0.  1.
         11   -1    0    0    0    0 -0.00000000000E+00 -0.00000000000E+00 -0.45593999997E+02  0.45594000000E+02  0.51100000000E-03 0. -1.
    9900012    2    1    2    0    0 -0.90066758190E+00  0.47015669473E+00 -0.60057445218E+00  0.90007771597E+02  0.90000033382E+02 0.  0.
        -12    1    1    2    0    0  0.90066758190E+00 -0.47015669473E+00  0.60057445218E+00  0.11802284030E+01  0.00000000000E+00 0.  1.
         11    1    3    3    0    0 -0.26309541918E+01  0.85606904330E+01  0.20643116093E+01  0.91906867714E+01  0.51100000000E-03 0. -1.
        -11    1    3    3    0    0 -0.34110546973E+02  0.12999736638E+02  0.90578831379E+01  0.37610740683E+02  0.51100000000E-03 0.  1.
         12    1    3    3    0    0  0.35840833583E+02 -0.21090270377E+02 -0.11722769199E+02  0.43206344143E+02  0.00000000000E+00 0. -1.
</event>
<event>
 7    1  0.1756449E-015  0.9000777E+02  0.7816164E-02  0.1186339E+00
        -11   -1    0    0    0    0  0.00000000000E+00  0.00000000000E+00  0.45593999997E+02  0.45594000000E+02  0.51100000000E-03 0.  1.
         11   -1    0    0    0    0 -0.00000000000E+00 -0.00000000000E+00 -0.45593999997E+02  0.45594000000E+02  0.51100000000E-03 0. -1.
    9900012    2    1    2    0    0  0.18530781334E+00 -0.84800508629E+00 -0.79968079032E+00  0.90007770794E+02  0.90000032569E+02 0.  0.
        -12    1    1    2    0    0 -0.18530781334E+00  0.84800508629E+00  0.79968079032E+00  0.11802292059E+01  0.00000000000E+00 0.  1.
         11    1    3    3    0    0 -0.41234785710E+01  0.10298424044E+02  0.17929821498E+02  0.21084096199E+02  0.51100000000E-03 0. -1.
        -11    1    3    3    0    0 -0.26908092004E+02  0.87466458820E+01 -0.21855482784E+01  0.28378263707E+02  0.51100000000E-03 0.  1.
         12    1    3    3    0    0  0.31216878388E+02 -0.19893075012E+02 -0.16543954010E+02  0.40545410888E+02  0.00000000000E+00 0. -1.
</event>
<event>
 7    1  0.1756449E-015  0.9000770E+02  0.7816164E-02  0.1186339E+00
        -11   -1    0    0    0    0  0.00000000000E+00  0.00000000000E+00  0.45593999997E+02  0.45594000000E+02  0.51100000000E-03 0. -1.
         11   -1    0    0    0    0 -0.00000000000E+00 -0.00000000000E+00 -0.45593999997E+02  0.45594000000E+02  0.51100000000E-03 0.  1.
    9900012    2    1    2    0    0  0.97991078642E+00  0.41245872934E+00  0.51260386294E+00  0.90007699160E+02  0.89999959989E+02 0.  0.
        -12    1    1    2    0    0 -0.97991078642E+00 -0.41245872934E+00 -0.51260386294E+00  0.11803008401E+01  0.00000000000E+00 0.  1.
         11    1    3    3    0    0  0.16793122081E+02  0.31464322230E+02 -0.28744977249E+01  0.35780934309E+02  0.51100000000E-03 0. -1.
        -11    1    3    3    0    0 -0.39780618187E+01  0.40295187653E+01 -0.12664719426E+02  0.13872891397E+02  0.51100000000E-03 0.  1.
        -12    1    3    3    0    0 -0.11835149476E+02 -0.35081382266E+02  0.16051821014E+02  0.40353873453E+02  0.00000000000E+00 0.  1.
</event>
<event>
 7    1  0.1756449E-015  0.9000763E+02  0.7816164E-02  0.1186339E+00
        -11   -1    0    0    0    0  0.00000000000E+00  0.00000000000E+00  0.45593999997E+02  0.45594000000E+02  0.51100000000E-03 0. -1.
         11   -1    0    0    0    0 -0.00000000000E+00 -0.00000000000E+00 -0.45593999997E+02  0.45594000000E+02  0.51100000000E-03 0.  1.
    9900012    2    1    2    0    0  0.11749555320E+01  0.10534580815E+00  0.40554267710E-01  0.90007634425E+02  0.89999894400E+02 0.  0.
        -12    1    1    2    0    0 -0.11749555320E+01 -0.10534580815E+00 -0.40554267710E-01  0.11803655748E+01  0.00000000000E+00 0.  1.
         11    1    3    3    0    0  0.21908278656E+01 -0.43425228491E+02 -0.30968392787E+01  0.43590602313E+02  0.51100000000E-03 0. -1.
        -11    1    3    3    0    0 -0.62756823498E+01  0.73717750767E+01 -0.51904064049E+00  0.96951874755E+01  0.51100000000E-03 0.  1.
        -12    1    3    3    0    0  0.52598100162E+01  0.36158799222E+02  0.36564341869E+01  0.36721844637E+02  0.00000000000E+00 0.  1.
</event>
<event>
 7    1  0.1756449E-015  0.9000763E+02  0.7816164E-02  0.1186339E+00
        -11   -1    0    0    0    0  0.00000000000E+00  0.00000000000E+00  0.45593999997E+02  0.45594000000E+02  0.51100000000E-03 0. -1.
         11   -1    0    0    0    0 -0.00000000000E+00 -0.00000000000E+00 -0.45593999997E+02  0.45594000000E+02  0.51100000000E-03 0.  1.
    9900012    2    1    2    0    0  0.10547350100E+01  0.51780035131E+00  0.11261103745E+00  0.90007633790E+02  0.89999893755E+02 0.  0.
        -12    1    1    2    0    0 -0.10547350100E+01 -0.51780035131E+00 -0.11261103745E+00  0.11803662105E+01  0.00000000000E+00 0.  1.
         11    1    3    3    0    0  0.81891495057E+01 -0.28874795873E+01 -0.30682823029E+00  0.86887198031E+01  0.51100000000E-03 0. -1.
        -11    1    3    3    0    0  0.18408715577E+02  0.16597385830E+02 -0.30365864557E+02  0.39197445786E+02  0.51100000000E-03 0.  1.
         12    1    3    3    0    0 -0.25543130072E+02 -0.13192105892E+02  0.30785303825E+02  0.42121468200E+02  0.00000000000E+00 0. -1.
</event>
<event>
 7    1  0.1756449E-015  0.9000755E+02  0.7816164E-02  0.1186339E+00
        -11   -1    0    0    0    0  0.00000000000E+00  0.00000000000E+00  0.45593999997E+02  0.45594000000E+02  0.51100000000E-03 0. -1.
         11   -1    0    0    0    0 -0.00000000000E+00 -0.00000000000E+00 -0.45593999997E+02  0.45594000000E+02  0.51100000000E-03 0.  1.
    9900012    2    1    2    0    0  0.68231665747E+00 -0.90644869665E+00 -0.32595835134E+00  0.90007553429E+02  0.89999812334E+02 0.  0.
        -12    1    1    2    0    0 -0.68231665747E+00  0.90644869665E+00  0.32595835134E+00  0.11804465712E+01  0.00000000000E+00 0.  1.
         11    1    3    3    0    0  0.88839272896E+01  0.54184477570E+01 -0.31709753303E+01  0.10878364996E+02  0.51100000000E-03 0. -1.
        -11    1    3    3    0    0  0.99831142371E-01  0.30987654214E+02 -0.17747694023E+02  0.35710297161E+02  0.51100000000E-03 0.  1.
         12    1    3    3    0    0 -0.83014417745E+01 -0.37312550668E+02  0.20592711002E+02  0.43418891272E+02  0.00000000000E+00 0. -1.
</event>
<event>
 7    1  0.1756449E-015  0.9000777E+02  0.7816164E-02  0.1186339E+00
        -11   -1    0    0    0    0  0.00000000000E+00  0.00000000000E+00  0.45593999997E+02  0.45594000000E+02  0.51100000000E-03 0. -1.
         11   -1    0    0    0    0 -0.00000000000E+00 -0.00000000000E+00 -0.45593999997E+02  0.45594000000E+02  0.51100000000E-03 0.  1.
    9900012    2    1    2    0    0 -0.97284282767E-01  0.73019455222E+00  0.92211149577E+00  0.90007772087E+02  0.90000033879E+02 0.  0.
        -12    1    1    2    0    0  0.97284282767E-01 -0.73019455222E+00 -0.92211149577E+00  0.11802279129E+01  0.00000000000E+00 0.  1.
         11    1    3    3    0    0  0.45996033300E+01  0.94568001659E+01  0.27846137606E+01  0.10878487681E+02  0.51100000000E-03 0. -1.
        -11    1    3    3    0    0 -0.40816293660E+02  0.31071631193E+01 -0.35134844813E+01  0.41084898251E+02  0.51100000000E-03 0.  1.
         12    1    3    3    0    0  0.36119406048E+02 -0.11833768733E+02  0.16509822165E+01  0.38044386155E+02  0.00000000000E+00 0. -1.
</event>
<event>
 7    1  0.1756449E-015  0.9000774E+02  0.7816164E-02  0.1186339E+00
        -11   -1    0    0    0    0  0.00000000000E+00  0.00000000000E+00  0.45593999997E+02  0.45594000000E+02  0.51100000000E-03 0. -1.
         11   -1    0    0    0    0 -0.00000000000E+00 -0.00000000000E+00 -0.45593999997E+02  0.45594000000E+02  0.51100000000E-03 0.  1.
    9900012    2    1    2    0    0  0.42541830687E+00 -0.57221283936E+00  0.94053876825E+00  0.90007736706E+02  0.89999998030E+02 0.  0.
        -12    1    1    2    0    0 -0.42541830687E+00  0.57221283936E+00 -0.94053876825E+00  0.11802632943E+01  0.00000000000E+00 0.  1.
         11    1    3    3    0    0 -0.69151281000E+01  0.28786039252E+02  0.28033597615E+02  0.40771775139E+02  0.51100000000E-03 0. -1.
        -11    1    3    3    0    0  0.91800316784E+01  0.35003361118E+00 -0.30555592193E+00  0.91917827340E+01  0.51100000000E-03 0.  1.
        -12    1    3    3    0    0 -0.18394852716E+01 -0.29708285703E+02 -0.26787502925E+02  0.40044178833E+02  0.00000000000E+00 0.  1.
</event>
<event>
 7    1  0.1756449E-015  0.9000771E+02  0.7816164E-02  0.1186339E+00
        -11   -1    0    0    0    0  0.00000000000E+00  0.00000000000E+00  0.45593999997E+02  0.45594000000E+02  0.51100000000E-03 0.  1.
         11   -1    0    0    0    0 -0.00000000000E+00 -0.00000000000E+00 -0.45593999997E+02  0.45594000000E+02  0.51100000000E-03 0. -1.
    9900012    2    1    2    0    0 -0.64620671187E+00  0.92612175098E+00 -0.34322926635E+00  0.90007707265E+02  0.89999968200E+02 0.  0.
        -12    1    1    2    0    0  0.64620671187E+00 -0.92612175098E+00  0.34322926635E+00  0.11802927355E+01  0.00000000000E+00 0.  1.
         11    1    3    3    0    0 -0.10846596255E+02 -0.14161827657E+02 -0.36750775852E+02  0.40851261167E+02  0.51100000000E-03 0. -1.
        -11    1    3    3    0    0  0.10534884580E+02  0.18211366174E+01  0.30883458104E+00  0.10695593053E+02  0.51100000000E-03 0.  1.
        -12    1    3    3    0    0 -0.33449503664E+00  0.13266812790E+02  0.36098712005E+02  0.38460853045E+02  0.00000000000E+00 0.  1.
</event>
<event>
 7    1  0.1756449E-015  0.9000774E+02  0.7816164E-02  0.1186339E+00
        -11   -1    0    0    0    0  0.00000000000E+00  0.00000000000E+00  0.45593999997E+02  0.45594000000E+02  0.51100000000E-03 0.  1.
         11   -1    0    0    0    0 -0.00000000000E+00 -0.00000000000E+00 -0.45593999997E+02  0.45594000000E+02  0.51100000000E-03 0. -1.
    9900012    2    1    2    0    0  0.48769798561E+00 -0.62455274762E+00 -0.87469821596E+00  0.90007740525E+02  0.90000001900E+02 0.  0.
        -12    1    1    2    0    0 -0.48769798561E+00  0.62455274762E+00  0.87469821596E+00  0.11802594752E+01  0.00000000000E+00 0.  1.
         11    1    3    3    0    0  0.31628717569E+02  0.98097054642E+01  0.94301384829E+01  0.34431578651E+02  0.51100000000E-03 0. -1.
        -11    1    3    3    0    0  0.24891272018E+01  0.85611183261E+01  0.87636437632E+01  0.12501598037E+02  0.51100000000E-03 0.  1.
        -12    1    3    3    0    0 -0.33630146785E+02 -0.18995376538E+02 -0.19068480462E+02  0.43074563837E+02  0.00000000000E+00 0.  1.
</event>
<event>
 7    1  0.1756449E-015  0.9000770E+02  0.7816164E-02  0.1186339E+00
        -11   -1    0    0    0    0  0.00000000000E+00  0.00000000000E+00  0.45593999997E+02  0.45594000000E+02  0.51100000000E-03 0.  1.
         11   -1    0    0    0    0 -0.00000000000E+00 -0.00000000000E+00 -0.45593999997E+02  0.45594000000E+02  0.51100000000E-03 0. -1.
    9900012    2    1    2    0    0  0.45229380698E+00  0.58590952429E+00 -0.91938005965E+00  0.90007695229E+02  0.89999956006E+02 0.  0.
        -12    1    1    2    0    0 -0.45229380698E+00 -0.58590952429E+00  0.91938005965E+00  0.11803047710E+01  0.00000000000E+00 0.  1.
         11    1    3    3    0    0  0.21810998597E+01  0.11401224486E+01 -0.92100034898E+01  0.95331652844E+01  0.51100000000E-03 0. -1.
        -11    1    3    3    0    0  0.27100090149E+02  0.16772024437E+02  0.27190625824E+02  0.41893267034E+02  0.51100000000E-03 0.  1.
         12    1    3    3    0    0 -0.28828896202E+02 -0.17326237361E+02 -0.18900002394E+02  0.38581262911E+02  0.00000000000E+00 0. -1.
</event>
<event>
 7    1  0.1756449E-015  0.9000769E+02  0.7816164E-02  0.1186339E+00
        -11   -1    0    0    0    0  0.00000000000E+00  0.00000000000E+00  0.45593999997E+02  0.45594000000E+02  0.51100000000E-03 0. -1.
         11   -1    0    0    0    0 -0.00000000000E+00 -0.00000000000E+00 -0.45593999997E+02  0.45594000000E+02  0.51100000000E-03 0.  1.
    9900012    2    1    2    0    0 -0.97950777283E+00  0.21299586435E+00  0.62315613476E+00  0.90007692293E+02  0.89999953031E+02 0.  0.
        -12    1    1    2    0    0  0.97950777283E+00 -0.21299586435E+00 -0.62315613476E+00  0.11803077072E+01  0.00000000000E+00 0.  1.
         11    1    3    3    0    0 -0.27016298911E+02  0.26633457701E+02  0.17103580330E+02  0.41614347722E+02  0.51100000000E-03 0. -1.
        -11    1    3    3    0    0 -0.48130094933E+01 -0.77451502908E+01 -0.10875382806E+01  0.91834172933E+01  0.51100000000E-03 0.  1.
        -12    1    3    3    0    0  0.30849800631E+02 -0.18675311546E+02 -0.15392885914E+02  0.39209927278E+02  0.00000000000E+00 0.  1.
</event>
<event>
 7    1  0.1756449E-015  0.9000777E+02  0.7816164E-02  0.1186339E+00
        -11   -1    0    0    0    0  0.00000000000E+00  0.00000000000E+00  0.45593999997E+02  0.45594000000E+02  0.51100000000E-03 0.  1.
         11   -1    0    0    0    0 -0.00000000000E+00 -0.00000000000E+00 -0.45593999997E+02  0.45594000000E+02  0.51100000000E-03 0. -1.
    9900012    2    1    2    0    0  0.28771963702E+00 -0.59629420938E+00 -0.97703009703E+00  0.90007772402E+02  0.90000034197E+02 0.  0.
        -12    1    1    2    0    0 -0.28771963702E+00  0.59629420938E+00  0.97703009703E+00  0.11802275985E+01  0.00000000000E+00 0.  1.
         11    1    3    3    0    0  0.25917287692E+02 -0.80691559718E+01  0.23003219453E+02  0.35580404506E+02  0.51100000000E-03 0. -1.
        -11    1    3    3    0    0  0.66994617685E+01 -0.58069316407E+01  0.39324907083E+01  0.96988518135E+01  0.51100000000E-03 0.  1.
        -12    1    3    3    0    0 -0.32329029823E+02  0.13279793403E+02 -0.27912740258E+02  0.44728516082E+02  0.00000000000E+00 0.  1.
</event>
<event>
 7    1  0.1756449E-015  0.9000771E+02  0.7816164E-02  0.1186339E+00
        -11   -1    0    0    0    0  0.00000000000E+00  0.00000000000E+00  0.45593999997E+02  0.45594000000E+02  0.51100000000E-03 0. -1.
         11   -1    0    0    0    0 -0.00000000000E+00 -0.00000000000E+00 -0.45593999997E+02  0.45594000000E+02  0.51100000000E-03 0.  1.
    9900012    2    1    2    0    0 -0.37414356724E+00 -0.10900234144E+01  0.25483950492E+00  0.90007712905E+02  0.89999973916E+02 0.  0.
        -12    1    1    2    0    0  0.37414356724E+00  0.10900234144E+01 -0.25483950492E+00  0.11802870947E+01  0.00000000000E+00 0.  1.
         11    1    3    3    0    0 -0.87226724808E+01  0.15868043669E+01  0.80301307279E+00  0.89021229806E+01  0.51100000000E-03 0. -1.
        -11    1    3    3    0    0 -0.29412257796E+02 -0.23773860242E+02  0.84678224374E+00  0.37828486355E+02  0.51100000000E-03 0.  1.
         12    1    3    3    0    0  0.37760786710E+02  0.21097032461E+02 -0.13949558116E+01  0.43277103569E+02  0.00000000000E+00 0. -1.
</event>
<event>
 7    1  0.1756449E-015  0.9000775E+02  0.7816164E-02  0.1186339E+00
        -11   -1    0    0    0    0  0.00000000000E+00  0.00000000000E+00  0.45593999997E+02  0.45594000000E+02  0.51100000000E-03 0. -1.
         11   -1    0    0    0    0 -0.00000000000E+00 -0.00000000000E+00 -0.45593999997E+02  0.45594000000E+02  0.51100000000E-03 0.  1.
    9900012    2    1    2    0    0  0.63113780538E+00 -0.99713428168E+00  0.19184569819E-01  0.90007754368E+02  0.90000015925E+02 0.  0.
        -12    1    1    2    0    0 -0.63113780538E+00  0.99713428168E+00 -0.19184569819E-01  0.11802456324E+01  0.00000000000E+00 0.  1.
         11    1    3    3    0    0 -0.32673051723E+00  0.30284173442E+02  0.20416004223E+02  0.36524664853E+02  0.51100000000E-03 0. -1.
        -11    1    3    3    0    0 -0.23852675151E+01  0.28341991345E+01  0.80994711827E+01  0.89063808336E+01  0.51100000000E-03 0.  1.
        -12    1    3    3    0    0  0.33431358377E+01 -0.34115506858E+02 -0.28496290836E+02  0.44576708681E+02  0.00000000000E+00 0.  1.
</event>
<event>
 7    1  0.1756449E-015  0.9000758E+02  0.7816164E-02  0.1186339E+00
        -11   -1    0    0    0    0  0.00000000000E+00  0.00000000000E+00  0.45593999997E+02  0.45594000000E+02  0.51100000000E-03 0.  1.
         11   -1    0    0    0    0 -0.00000000000E+00 -0.00000000000E+00 -0.45593999997E+02  0.45594000000E+02  0.51100000000E-03 0. -1.
    9900012    2    1    2    0    0  0.75771593653E+00  0.24483176642E+00 -0.87138655585E+00  0.90007580344E+02  0.89999839604E+02 0.  0.
        -12    1    1    2    0    0 -0.75771593653E+00 -0.24483176642E+00  0.87138655585E+00  0.11804196559E+01  0.00000000000E+00 0.  1.
         11    1    3    3    0    0 -0.83536816339E+01  0.38583557274E+01  0.15683607804E+01  0.93343806200E+01  0.51100000000E-03 0. -1.
        -11    1    3    3    0    0  0.31146284279E+02  0.26874060561E+02  0.73831703208E+01  0.41794944188E+02  0.51100000000E-03 0.  1.
         12    1    3    3    0    0 -0.22034886709E+02 -0.30487584522E+02 -0.98229176571E+01  0.38878255536E+02  0.00000000000E+00 0. -1.
</event>
<event>
 7    1  0.1756449E-015  0.9000781E+02  0.7816164E-02  0.1186339E+00
        -11   -1    0    0    0    0  0.00000000000E+00  0.00000000000E+00  0.45593999997E+02  0.45594000000E+02  0.51100000000E-03 0. -1.
         11   -1    0    0    0    0 -0.00000000000E+00 -0.00000000000E+00 -0.45593999997E+02  0.45594000000E+02  0.51100000000E-03 0.  1.
    9900012    2    1    2    0    0  0.45651388667E+00  0.10871478571E+01  0.50442314244E-01  0.90007813651E+02  0.90000075991E+02 0.  0.
        -12    1    1    2    0    0 -0.45651388667E+00 -0.10871478571E+01 -0.50442314244E-01  0.11801863492E+01  0.00000000000E+00 0.  1.
         11    1    3    3    0    0 -0.49596685574E+01  0.22907932569E+01 -0.81156913097E+01  0.97831739042E+01  0.51100000000E-03 0. -1.
        -11    1    3    3    0    0 -0.18680874008E+01 -0.54115965441E+01 -0.35396859915E+02  0.35856837839E+02  0.51100000000E-03 0.  1.
         12    1    3    3    0    0  0.72842698449E+01  0.42079511442E+01  0.43562993539E+02  0.44367801907E+02  0.00000000000E+00 0. -1.
</event>
<event>
 7    1  0.1756449E-015  0.9000773E+02  0.7816164E-02  0.1186339E+00
        -11   -1    0    0    0    0  0.00000000000E+00  0.00000000000E+00  0.45593999997E+02  0.45594000000E+02  0.51100000000E-03 0.  1.
         11   -1    0    0    0    0 -0.00000000000E+00 -0.00000000000E+00 -0.45593999997E+02  0.45594000000E+02  0.51100000000E-03 0. -1.
    9900012    2    1    2    0    0  0.98533242433E+00  0.53122088810E+00  0.37411394794E+00  0.90007730173E+02  0.89999991411E+02 0.  0.
        -12    1    1    2    0    0 -0.98533242433E+00 -0.53122088810E+00 -0.37411394794E+00  0.11802698270E+01  0.00000000000E+00 0.  1.
         11    1    3    3    0    0  0.23954497874E+01  0.11612378773E+01 -0.31676851757E+01  0.41377388420E+01  0.51100000000E-03 0. -1.
        -11    1    3    3    0    0  0.37424419762E+01  0.40770341350E+02  0.13255891661E+02  0.43034233695E+02  0.51100000000E-03 0.  1.
         12    1    3    3    0    0 -0.51525593392E+01 -0.41400358340E+02 -0.97140925373E+01  0.42835757636E+02  0.00000000000E+00 0. -1.
</event>
<event>
 7    1  0.1756449E-015  0.9000771E+02  0.7816164E-02  0.1186339E+00
        -11   -1    0    0    0    0  0.00000000000E+00  0.00000000000E+00  0.45593999997E+02  0.45594000000E+02  0.51100000000E-03 0. -1.
         11   -1    0    0    0    0 -0.00000000000E+00 -0.00000000000E+00 -0.45593999997E+02  0.45594000000E+02  0.51100000000E-03 0.  1.
    9900012    2    1    2    0    0 -0.79568672821E+00  0.83339610260E+00 -0.25575959195E+00  0.90007712153E+02  0.89999973153E+02 0.  0.
        -12    1    1    2    0    0  0.79568672821E+00 -0.83339610260E+00  0.25575959195E+00  0.11802878472E+01  0.00000000000E+00 0.  1.
         11    1    3    3    0    0 -0.43975473772E+01  0.60194456112E+01 -0.41080099793E+01  0.85116329017E+01  0.51100000000E-03 0. -1.
        -11    1    3    3    0    0  0.58922542384E+01  0.11762056099E+02 -0.35892791723E+02  0.38227700972E+02  0.51100000000E-03 0.  1.
         12    1    3    3    0    0 -0.22903935894E+01 -0.16948105608E+02  0.39745042111E+02  0.43268378279E+02  0.00000000000E+00 0. -1.
</event>
<event>
 7    1  0.1756449E-015  0.9000775E+02  0.7816164E-02  0.1186339E+00
        -11   -1    0    0    0    0  0.00000000000E+00  0.00000000000E+00  0.45593999997E+02  0.45594000000E+02  0.51100000000E-03 0.  1.
         11   -1    0    0    0    0 -0.00000000000E+00 -0.00000000000E+00 -0.45593999997E+02  0.45594000000E+02  0.51100000000E-03 0. -1.
    9900012    2    1    2    0    0  0.88415768320E+00  0.70690258469E-02 -0.78179184778E+00  0.90007752876E+02  0.90000014414E+02 0.  0.
        -12    1    1    2    0    0 -0.88415768320E+00 -0.70690258469E-02  0.78179184778E+00  0.11802471238E+01  0.00000000000E+00 0.  1.
         11    1    3    3    0    0 -0.24694037344E+01 -0.72240619240E+01 -0.39416766623E+01  0.85919637252E+01  0.51100000000E-03 0. -1.
        -11    1    3    3    0    0  0.48762968764E+01 -0.36843103802E+02  0.33475475086E+01  0.37314858214E+02  0.51100000000E-03 0.  1.
         12    1    3    3    0    0 -0.15227354589E+01  0.44074234751E+02 -0.18766269417E+00  0.44100930937E+02  0.00000000000E+00 0. -1.
</event>
<event>
 7    1  0.1756449E-015  0.9000776E+02  0.7816164E-02  0.1186339E+00
        -11   -1    0    0    0    0  0.00000000000E+00  0.00000000000E+00  0.45593999997E+02  0.45594000000E+02  0.51100000000E-03 0.  1.
         11   -1    0    0    0    0 -0.00000000000E+00 -0.00000000000E+00 -0.45593999997E+02  0.45594000000E+02  0.51100000000E-03 0. -1.
    9900012    2    1    2    0    0 -0.18493718122E+00 -0.42448089416E+00 -0.10856299425E+01  0.90007755041E+02  0.90000016608E+02 0.  0.
        -12    1    1    2    0    0  0.18493718122E+00  0.42448089416E+00  0.10856299425E+01  0.11802449587E+01  0.00000000000E+00 0.  1.
         11    1    3    3    0    0  0.79982767747E+01 -0.57317253343E+01 -0.22620049123E+01  0.10096621869E+02  0.51100000000E-03 0. -1.
        -11    1    3    3    0    0  0.28497798064E+02 -0.64878837979E+01  0.21561978403E+02  0.36319912494E+02  0.51100000000E-03 0.  1.
         12    1    3    3    0    0 -0.36681012020E+02  0.11795128238E+02 -0.20385603433E+02  0.43591220679E+02  0.00000000000E+00 0. -1.
</event>
<event>
 7    1  0.1756449E-015  0.9000789E+02  0.7816164E-02  0.1186339E+00
        -11   -1    0    0    0    0  0.00000000000E+00  0.00000000000E+00  0.45593999997E+02  0.45594000000E+02  0.51100000000E-03 0.  1.
         11   -1    0    0    0    0 -0.00000000000E+00 -0.00000000000E+00 -0.45593999997E+02  0.45594000000E+02  0.51100000000E-03 0. -1.
    9900012    2    1    2    0    0 -0.52366216403E+00  0.10371551247E+01 -0.20675767257E+00  0.90007889179E+02  0.90000152516E+02 0.  0.
        -12    1    1    2    0    0  0.52366216403E+00 -0.10371551247E+01  0.20675767257E+00  0.11801108210E+01  0.00000000000E+00 0.  1.
         11    1    3    3    0    0  0.24728714618E+01 -0.41624391082E+01  0.75773051517E+01  0.89920268137E+01  0.51100000000E-03 0. -1.
        -11    1    3    3    0    0 -0.40030054551E+02  0.98983420780E+01 -0.13194886898E+02  0.43295351757E+02  0.51100000000E-03 0.  1.
         12    1    3    3    0    0  0.37033520925E+02 -0.46987478451E+01  0.54108240735E+01  0.37720510609E+02  0.00000000000E+00 0. -1.
</event>
<event>
 7    1  0.1756449E-015  0.9000780E+02  0.7816164E-02  0.1186339E+00
        -11   -1    0    0    0    0  0.00000000000E+00  0.00000000000E+00  0.45593999997E+02  0.45594000000E+02  0.51100000000E-03 0.  1.
         11   -1    0    0    0    0 -0.00000000000E+00 -0.00000000000E+00 -0.45593999997E+02  0.45594000000E+02  0.51100000000E-03 0. -1.
    9900012    2    1    2    0    0  0.65893484612E+00 -0.13795967650E+00 -0.96935314314E+00  0.90007799373E+02  0.90000061525E+02 0.  0.
        -12    1    1    2    0    0 -0.65893484612E+00  0.13795967650E+00  0.96935314314E+00  0.11802006270E+01  0.00000000000E+00 0.  1.
         11    1    3    3    0    0 -0.37508790645E+02 -0.14627104998E+02  0.57699551315E+01  0.40671291579E+02  0.51100000000E-03 0. -1.
        -11    1    3    3    0    0  0.41874965615E+01 -0.62014269697E+01 -0.59246024369E+01  0.95443039667E+01  0.51100000000E-03 0.  1.
        -12    1    3    3    0    0  0.33980228929E+02  0.20690572291E+02 -0.81470583780E+00  0.39792203827E+02  0.00000000000E+00 0.  1.
</event>
<event>
 7    1  0.1756449E-015  0.9000780E+02  0.7816164E-02  0.1186339E+00
        -11   -1    0    0    0    0  0.00000000000E+00  0.00000000000E+00  0.45593999997E+02  0.45594000000E+02  0.51100000000E-03 0. -1.
         11   -1    0    0    0    0 -0.00000000000E+00 -0.00000000000E+00 -0.45593999997E+02  0.45594000000E+02  0.51100000000E-03 0.  1.
    9900012    2    1    2    0    0  0.83499754818E+00  0.52886324513E-01 -0.83237398083E+00  0.90007803274E+02  0.90000065477E+02 0.  0.
        -12    1    1    2    0    0 -0.83499754818E+00 -0.52886324513E-01  0.83237398083E+00  0.11801967263E+01  0.00000000000E+00 0.  1.
         11    1    3    3    0    0  0.61888533213E+01  0.20353502398E+02  0.32720356137E+02  0.39028049801E+02  0.51100000000E-03 0. -1.
        -11    1    3    3    0    0  0.62393412890E+01 -0.54225629968E+01  0.38281939517E+01  0.91098100073E+01  0.51100000000E-03 0.  1.
        -12    1    3    3    0    0 -0.11593197062E+02 -0.14878053077E+02 -0.37380924070E+02  0.41869943465E+02  0.00000000000E+00 0.  1.
</event>
<event>
 7    1  0.1756449E-015  0.9000770E+02  0.7816164E-02  0.1186339E+00
        -11   -1    0    0    0    0  0.00000000000E+00  0.00000000000E+00  0.45593999997E+02  0.45594000000E+02  0.51100000000E-03 0. -1.
         11   -1    0    0    0    0 -0.00000000000E+00 -0.00000000000E+00 -0.45593999997E+02  0.45594000000E+02  0.51100000000E-03 0.  1.
    9900012    2    1    2    0    0  0.13519753105E+00 -0.99416674690E+00  0.62166796443E+00  0.90007696246E+02  0.89999957037E+02 0.  0.
        -12    1    1    2    0    0 -0.13519753105E+00  0.99416674690E+00 -0.62166796443E+00  0.11803037537E+01  0.00000000000E+00 0.  1.
         11    1    3    3    0    0 -0.36610167539E+01 -0.71275544234E+01  0.57549117568E+01  0.98652970214E+01  0.51100000000E-03 0. -1.
        -11    1    3    3    0    0  0.20651084846E+02 -0.31448218116E+02 -0.92677848458E+01  0.38747252344E+02  0.51100000000E-03 0.  1.
         12    1    3    3    0    0 -0.16854870561E+02  0.37581605792E+02  0.41345410534E+01  0.41395146881E+02  0.00000000000E+00 0. -1.
</event>
<event>
 7    1  0.1756449E-015  0.9000785E+02  0.7816164E-02  0.1186339E+00
        -11   -1    0    0    0    0  0.00000000000E+00  0.00000000000E+00  0.45593999997E+02  0.45594000000E+02  0.51100000000E-03 0.  1.
         11   -1    0    0    0    0 -0.00000000000E+00 -0.00000000000E+00 -0.45593999997E+02  0.45594000000E+02  0.51100000000E-03 0. -1.
    9900012    2    1    2    0    0 -0.49625790119E+00  0.10697002984E+01  0.47177950745E-01  0.90007848996E+02  0.90000111803E+02 0.  0.
        -12    1    1    2    0    0  0.49625790119E+00 -0.10697002984E+01 -0.47177950745E-01  0.11801510039E+01  0.00000000000E+00 0.  1.
         11    1    3    3    0    0 -0.16717544766E+00  0.89622948678E+01 -0.40898723494E+02  0.41869514693E+02  0.51100000000E-03 0. -1.
        -11    1    3    3    0    0 -0.40805956011E+01  0.51983979057E+01  0.20375131134E+01  0.69156388854E+01  0.51100000000E-03 0.  1.
        -12    1    3    3    0    0  0.37515131475E+01 -0.13090992475E+02  0.38908388332E+02  0.41222695417E+02  0.00000000000E+00 0.  1.
</event>
<event>
 7    1  0.1756449E-015  0.9000773E+02  0.7816164E-02  0.1186339E+00
        -11   -1    0    0    0    0  0.00000000000E+00  0.00000000000E+00  0.45593999997E+02  0.45594000000E+02  0.51100000000E-03 0.  1.
         11   -1    0    0    0    0 -0.00000000000E+00 -0.00000000000E+00 -0.45593999997E+02  0.45594000000E+02  0.51100000000E-03 0. -1.
    9900012    2    1    2    0    0  0.48553206416E+00 -0.34705442037E+00 -0.10182596144E+01  0.90007728507E+02  0.89999989723E+02 0.  0.
        -12    1    1    2    0    0 -0.48553206416E+00  0.34705442037E+00  0.10182596144E+01  0.11802714935E+01  0.00000000000E+00 0.  1.
         11    1    3    3    0    0 -0.46121847089E+01 -0.95605587139E+01 -0.47361121447E+01  0.11623566115E+02  0.51100000000E-03 0. -1.
        -11    1    3    3    0    0 -0.20344172403E+01 -0.25050006836E+02  0.26580065983E+02  0.36580617872E+02  0.51100000000E-03 0.  1.
         12    1    3    3    0    0  0.71321340134E+01  0.34263511129E+02 -0.22862213452E+02  0.41803544520E+02  0.00000000000E+00 0. -1.
</event>
<event>
 7    1  0.1756449E-015  0.9000775E+02  0.7816164E-02  0.1186339E+00
        -11   -1    0    0    0    0  0.00000000000E+00  0.00000000000E+00  0.45593999997E+02  0.45594000000E+02  0.51100000000E-03 0.  1.
         11   -1    0    0    0    0 -0.00000000000E+00 -0.00000000000E+00 -0.45593999997E+02  0.45594000000E+02  0.51100000000E-03 0. -1.
    9900012    2    1    2    0    0 -0.69783202071E+00  0.94859969718E+00 -0.78575559036E-01  0.90007752131E+02  0.90000013659E+02 0.  0.
        -12    1    1    2    0    0  0.69783202071E+00 -0.94859969718E+00  0.78575559036E-01  0.11802478693E+01  0.00000000000E+00 0.  1.
         11    1    3    3    0    0 -0.10258264010E+02  0.80002313584E+01 -0.15716334443E+02  0.20401932527E+02  0.51100000000E-03 0. -1.
        -11    1    3    3    0    0  0.20096620188E+01  0.29748430774E+02  0.29837809224E+01  0.29965160166E+02  0.51100000000E-03 0.  1.
         12    1    3    3    0    0  0.75507699701E+01 -0.36800062435E+02  0.12653977961E+02  0.39640659437E+02  0.00000000000E+00 0. -1.
</event>
<event>
 7    1  0.1756449E-015  0.9000877E+02  0.7816164E-02  0.1186337E+00
        -11   -1    0    0    0    0  0.00000000000E+00  0.00000000000E+00  0.45593999997E+02  0.45594000000E+02  0.51100000000E-03 0.  1.
         11   -1    0    0    0    0 -0.00000000000E+00 -0.00000000000E+00 -0.45593999997E+02  0.45594000000E+02  0.51100000000E-03 0. -1.
    9900012    2    1    2    0    0 -0.38604745253E+00 -0.42647306780E+00 -0.10294027959E+01  0.90008770578E+02  0.90001045544E+02 0.  0.
        -12    1    1    2    0    0  0.38604745253E+00  0.42647306780E+00  0.10294027959E+01  0.11792294219E+01  0.00000000000E+00 0.  1.
         11    1    3    3    0    0  0.17284653998E+02  0.25827573187E+02 -0.27775629873E+02  0.41681031845E+02  0.51100000000E-03 0. -1.
        -11    1    3    3    0    0 -0.72480254674E+01  0.33311793284E+01  0.99293256893E+01  0.12736645469E+02  0.51100000000E-03 0.  1.
        -12    1    3    3    0    0 -0.10422675983E+02 -0.29585225583E+02  0.16816901388E+02  0.35591093264E+02  0.00000000000E+00 0.  1.
</event>
<event>
 7    1  0.1756449E-015  0.9000763E+02  0.7816164E-02  0.1186339E+00
        -11   -1    0    0    0    0  0.00000000000E+00  0.00000000000E+00  0.45593999997E+02  0.45594000000E+02  0.51100000000E-03 0. -1.
         11   -1    0    0    0    0 -0.00000000000E+00 -0.00000000000E+00 -0.45593999997E+02  0.45594000000E+02  0.51100000000E-03 0.  1.
    9900012    2    1    2    0    0 -0.41719140707E+00  0.10120072507E+01  0.44166060052E+00  0.90007630807E+02  0.89999890734E+02 0.  0.
        -12    1    1    2    0    0  0.41719140707E+00 -0.10120072507E+01 -0.44166060052E+00  0.11803691930E+01  0.00000000000E+00 0.  1.
         11    1    3    3    0    0  0.52179461112E+01 -0.57289700449E+01  0.78123814636E+01  0.11003697733E+02  0.51100000000E-03 0. -1.
        -11    1    3    3    0    0  0.17451133411E+02 -0.70690701959E+01 -0.35436131628E+02  0.40127711569E+02  0.51100000000E-03 0.  1.
         12    1    3    3    0    0 -0.23086270929E+02  0.13810047492E+02  0.28065410765E+02  0.38876221505E+02  0.00000000000E+00 0. -1.
</event>
<event>
 7    1  0.1756449E-015  0.9000780E+02  0.7816164E-02  0.1186339E+00
        -11   -1    0    0    0    0  0.00000000000E+00  0.00000000000E+00  0.45593999997E+02  0.45594000000E+02  0.51100000000E-03 0.  1.
         11   -1    0    0    0    0 -0.00000000000E+00 -0.00000000000E+00 -0.45593999997E+02  0.45594000000E+02  0.51100000000E-03 0. -1.
    9900012    2    1    2    0    0  0.32382093246E+00 -0.38129509016E+00 -0.10689403268E+01  0.90007796897E+02  0.90000059016E+02 0.  0.
        -12    1    1    2    0    0 -0.32382093246E+00  0.38129509016E+00  0.10689403268E+01  0.11802031030E+01  0.00000000000E+00 0.  1.
         11    1    3    3    0    0 -0.11391619406E+02 -0.24474253312E+01 -0.92760098012E+01  0.14893060181E+02  0.51100000000E-03 0. -1.
        -11    1    3    3    0    0 -0.31023832628E+02 -0.40243972433E+01  0.62324362259E+01  0.31898545824E+02  0.51100000000E-03 0.  1.
         12    1    3    3    0    0  0.42739272967E+02  0.60905274843E+01  0.19746332485E+01  0.43216190892E+02  0.00000000000E+00 0. -1.
</event>
<event>
 7    1  0.1756449E-015  0.9000715E+02  0.7816164E-02  0.1186340E+00
        -11   -1    0    0    0    0  0.00000000000E+00  0.00000000000E+00  0.45593999997E+02  0.45594000000E+02  0.51100000000E-03 0.  1.
         11   -1    0    0    0    0 -0.00000000000E+00 -0.00000000000E+00 -0.45593999997E+02  0.45594000000E+02  0.51100000000E-03 0. -1.
    9900012    2    1    2    0    0 -0.40216899061E+00 -0.33566254554E+00 -0.10583000813E+01  0.90007149331E+02  0.89999402900E+02 0.  0.
        -12    1    1    2    0    0  0.40216899061E+00  0.33566254554E+00  0.10583000813E+01  0.11808506694E+01  0.00000000000E+00 0.  1.
         11    1    3    3    0    0 -0.39932022962E+01 -0.22532048257E+01 -0.77094747153E+01  0.89698716386E+01  0.51100000000E-03 0. -1.
        -11    1    3    3    0    0 -0.23632711197E+02 -0.23214909541E+02  0.23215289057E+02  0.40452276942E+02  0.51100000000E-03 0.  1.
         12    1    3    3    0    0  0.27223744503E+02  0.25132451821E+02 -0.16564114423E+02  0.40585000750E+02  0.00000000000E+00 0. -1.
</event>
<event>
 7    1  0.1756449E-015  0.9000777E+02  0.7816164E-02  0.1186339E+00
        -11   -1    0    0    0    0  0.00000000000E+00  0.00000000000E+00  0.45593999997E+02  0.45594000000E+02  0.51100000000E-03 0.  1.
         11   -1    0    0    0    0 -0.00000000000E+00 -0.00000000000E+00 -0.45593999997E+02  0.45594000000E+02  0.51100000000E-03 0. -1.
    9900012    2    1    2    0    0 -0.57713486330E+00 -0.78001371932E-01 -0.10265402424E+01  0.90007765390E+02  0.90000027094E+02 0.  0.
        -12    1    1    2    0    0  0.57713486330E+00  0.78001371932E-01  0.10265402424E+01  0.11802346096E+01  0.00000000000E+00 0.  1.
         11    1    3    3    0    0  0.26917650725E+02 -0.19034378470E+02 -0.18167742424E+02  0.37642188424E+02  0.51100000000E-03 0. -1.
        -11    1    3    3    0    0 -0.10646544666E+02 -0.35688664732E+01 -0.86718287695E+01  0.14187541566E+02  0.51100000000E-03 0.  1.
        -12    1    3    3    0    0 -0.16848240922E+02  0.22525243572E+02  0.25813030951E+02  0.38178035400E+02  0.00000000000E+00 0.  1.
</event>
<event>
 7    1  0.1756449E-015  0.9000763E+02  0.7816164E-02  0.1186339E+00
        -11   -1    0    0    0    0  0.00000000000E+00  0.00000000000E+00  0.45593999997E+02  0.45594000000E+02  0.51100000000E-03 0. -1.
         11   -1    0    0    0    0 -0.00000000000E+00 -0.00000000000E+00 -0.45593999997E+02  0.45594000000E+02  0.51100000000E-03 0.  1.
    9900012    2    1    2    0    0  0.91013996506E+00  0.62727331912E+00 -0.41405940611E+00  0.90007630666E+02  0.89999890591E+02 0.  0.
        -12    1    1    2    0    0 -0.91013996506E+00 -0.62727331912E+00  0.41405940611E+00  0.11803693340E+01  0.00000000000E+00 0.  1.
         11    1    3    3    0    0  0.12259511301E+02  0.31112980501E+02  0.19709312616E+02  0.38817137673E+02  0.51100000000E-03 0. -1.
        -11    1    3    3    0    0 -0.13919679012E+01  0.75592714055E+01 -0.42341333378E+01  0.87754227364E+01  0.51100000000E-03 0.  1.
        -12    1    3    3    0    0 -0.99574034353E+01 -0.38044978588E+02 -0.15889238685E+02  0.42415070257E+02  0.00000000000E+00 0.  1.
</event>
<event>
 7    1  0.1756449E-015  0.9000763E+02  0.7816164E-02  0.1186339E+00
        -11   -1    0    0    0    0  0.00000000000E+00  0.00000000000E+00  0.45593999997E+02  0.45594000000E+02  0.51100000000E-03 0.  1.
         11   -1    0    0    0    0 -0.00000000000E+00 -0.00000000000E+00 -0.45593999997E+02  0.45594000000E+02  0.51100000000E-03 0. -1.
    9900012    2    1    2    0    0  0.23668904982E+00  0.11513799883E+01  0.10764470042E+00  0.90007625074E+02  0.89999884925E+02 0.  0.
        -12    1    1    2    0    0 -0.23668904982E+00 -0.11513799883E+01 -0.10764470042E+00  0.11803749257E+01  0.00000000000E+00 0.  1.
         11    1    3    3    0    0  0.31320307170E+01  0.28500297986E+01 -0.89743446346E+01  0.99232629789E+01  0.51100000000E-03 0. -1.
        -11    1    3    3    0    0 -0.23909093728E+02  0.18571002706E+02  0.31186504106E+02  0.43464064962E+02  0.51100000000E-03 0.  1.
         12    1    3    3    0    0  0.21013752061E+02 -0.20269652517E+02 -0.22104514771E+02  0.36620297133E+02  0.00000000000E+00 0. -1.
</event>
<event>
 7    1  0.1756449E-015  0.9000767E+02  0.7816164E-02  0.1186339E+00
        -11   -1    0    0    0    0  0.00000000000E+00  0.00000000000E+00  0.45593999997E+02  0.45594000000E+02  0.51100000000E-03 0.  1.
         11   -1    0    0    0    0 -0.00000000000E+00 -0.00000000000E+00 -0.45593999997E+02  0.45594000000E+02  0.51100000000E-03 0. -1.
    9900012    2    1    2    0    0 -0.95840557593E+00 -0.20898372418E+00 -0.65647561112E+00  0.90007671371E+02  0.89999931833E+02 0.  0.
        -12    1    1    2    0    0  0.95840557593E+00  0.20898372418E+00  0.65647561112E+00  0.11803286292E+01  0.00000000000E+00 0.  1.
         11    1    3    3    0    0 -0.12044487789E+02  0.42488682777E+01  0.78448140386E+01  0.14988784984E+02  0.51100000000E-03 0. -1.
        -11    1    3    3    0    0 -0.11928763048E+02 -0.34559873584E+02 -0.24069728176E+01  0.36639783957E+02  0.51100000000E-03 0.  1.
         12    1    3    3    0    0  0.23014845261E+02  0.30102021582E+02 -0.60943168321E+01  0.38379102430E+02  0.00000000000E+00 0. -1.
</event>
<event>
 7    1  0.1756449E-015  0.9000771E+02  0.7816164E-02  0.1186339E+00
        -11   -1    0    0    0    0  0.00000000000E+00  0.00000000000E+00  0.45593999997E+02  0.45594000000E+02  0.51100000000E-03 0. -1.
         11   -1    0    0    0    0 -0.00000000000E+00 -0.00000000000E+00 -0.45593999997E+02  0.45594000000E+02  0.51100000000E-03 0.  1.
    9900012    2    1    2    0    0  0.68722065423E+00  0.56212214556E+00  0.77770939189E+00  0.90007709598E+02  0.89999970565E+02 0.  0.
        -12    1    1    2    0    0 -0.68722065423E+00 -0.56212214556E+00 -0.77770939189E+00  0.11802904017E+01  0.00000000000E+00 0.  1.
         11    1    3    3    0    0 -0.33000320517E+02 -0.25210598859E+02 -0.38618931550E+00  0.41530044443E+02  0.51100000000E-03 0. -1.
        -11    1    3    3    0    0  0.85503107448E+01 -0.33367859737E+01 -0.33109748034E+01  0.97572797888E+01  0.51100000000E-03 0.  1.
        -12    1    3    3    0    0  0.25137230426E+02  0.29109506978E+02  0.44748735108E+01  0.38720385366E+02  0.00000000000E+00 0.  1.
</event>
<event>
 7    1  0.1756449E-015  0.9000772E+02  0.7816164E-02  0.1186339E+00
        -11   -1    0    0    0    0  0.00000000000E+00  0.00000000000E+00  0.45593999997E+02  0.45594000000E+02  0.51100000000E-03 0.  1.
         11   -1    0    0    0    0 -0.00000000000E+00 -0.00000000000E+00 -0.45593999997E+02  0.45594000000E+02  0.51100000000E-03 0. -1.
    9900012    2    1    2    0    0 -0.20538016794E+00  0.45602856928E+00 -0.10690686165E+01  0.90007724280E+02  0.89999985440E+02 0.  0.
        -12    1    1    2    0    0  0.20538016794E+00 -0.45602856928E+00  0.10690686165E+01  0.11802757204E+01  0.00000000000E+00 0.  1.
         11    1    3    3    0    0 -0.41196504554E+02  0.69584579588E+01  0.42263573788E+01  0.41993264002E+02  0.51100000000E-03 0. -1.
        -11    1    3    3    0    0  0.12017043663E+02 -0.12719783399E+02 -0.56202101745E+01  0.18379036720E+02  0.51100000000E-03 0.  1.
        -12    1    3    3    0    0  0.28974080723E+02  0.62173540090E+01  0.32478417924E+00  0.29635423557E+02  0.00000000000E+00 0.  1.
</event>
<event>
 7    1  0.1756449E-015  0.9000774E+02  0.7816164E-02  0.1186339E+00
        -11   -1    0    0    0    0  0.00000000000E+00  0.00000000000E+00  0.45593999997E+02  0.45594000000E+02  0.51100000000E-03 0.  1.
         11   -1    0    0    0    0 -0.00000000000E+00 -0.00000000000E+00 -0.45593999997E+02  0.45594000000E+02  0.51100000000E-03 0. -1.
    9900012    2    1    2    0    0  0.63042584011E-02 -0.11716920720E+01 -0.14185210860E+00  0.90007735591E+02  0.89999996900E+02 0.  0.
        -12    1    1    2    0    0 -0.63042584011E-02  0.11716920720E+01  0.14185210860E+00  0.11802644094E+01  0.00000000000E+00 0.  1.
         11    1    3    3    0    0  0.10708228796E+02 -0.16156788767E+02 -0.30292481337E+02  0.35963070128E+02  0.51100000000E-03 0. -1.
        -11    1    3    3    0    0  0.18826001338E+01 -0.12218091654E+02  0.12796092970E+01  0.12428328413E+02  0.51100000000E-03 0.  1.
        -12    1    3    3    0    0 -0.12584524671E+02  0.27203188349E+02  0.28871019931E+02  0.41616337050E+02  0.00000000000E+00 0.  1.
</event>
<event>
 7    1  0.1756449E-015  0.9000793E+02  0.7816164E-02  0.1186339E+00
        -11   -1    0    0    0    0  0.00000000000E+00  0.00000000000E+00  0.45593999997E+02  0.45594000000E+02  0.51100000000E-03 0. -1.
         11   -1    0    0    0    0 -0.00000000000E+00 -0.00000000000E+00 -0.45593999997E+02  0.45594000000E+02  0.51100000000E-03 0.  1.
    9900012    2    1    2    0    0 -0.19711557551E+00  0.13683012677E+00  0.11554140754E+01  0.90007932748E+02  0.90000196660E+02 0.  0.
        -12    1    1    2    0    0  0.19711557551E+00 -0.13683012677E+00 -0.11554140754E+01  0.11800672521E+01  0.00000000000E+00 0.  1.
         11    1    3    3    0    0  0.33782486693E+02  0.21574846017E+02  0.18535536330E+02  0.44162161351E+02  0.51100000000E-03 0. -1.
        -11    1    3    3    0    0 -0.33722880632E+01 -0.45034280232E+00 -0.62242970784E+01  0.70934483717E+01  0.51100000000E-03 0.  1.
        -12    1    3    3    0    0 -0.30607314205E+02 -0.20987673088E+02 -0.11155825177E+02  0.38752323026E+02  0.00000000000E+00 0.  1.
</event>
<event>
 7    1  0.1756449E-015  0.9000777E+02  0.7816164E-02  0.1186339E+00
        -11   -1    0    0    0    0  0.00000000000E+00  0.00000000000E+00  0.45593999997E+02  0.45594000000E+02  0.51100000000E-03 0.  1.
         11   -1    0    0    0    0 -0.00000000000E+00 -0.00000000000E+00 -0.45593999997E+02  0.45594000000E+02  0.51100000000E-03 0. -1.
    9900012    2    1    2    0    0  0.20259995982E+00 -0.51934607929E+00 -0.10402818401E+01  0.90007765531E+02  0.90000027237E+02 0.  0.
        -12    1    1    2    0    0 -0.20259995982E+00  0.51934607929E+00  0.10402818401E+01  0.11802344685E+01  0.00000000000E+00 0.  1.
         11    1    3    3    0    0 -0.59157244655E+01 -0.78419042193E+01  0.25090711532E+01  0.10138377387E+02  0.51100000000E-03 0. -1.
        -11    1    3    3    0    0  0.79612345886E+01 -0.35242057414E+02 -0.80865067109E+01  0.37023984902E+02  0.51100000000E-03 0.  1.
         12    1    3    3    0    0 -0.18429101633E+01  0.42564615554E+02  0.45371537176E+01  0.42845403242E+02  0.00000000000E+00 0. -1.
</event>
<event>
 7    1  0.1756449E-015  0.9000777E+02  0.7816164E-02  0.1186339E+00
        -11   -1    0    0    0    0  0.00000000000E+00  0.00000000000E+00  0.45593999997E+02  0.45594000000E+02  0.51100000000E-03 0. -1.
         11   -1    0    0    0    0 -0.00000000000E+00 -0.00000000000E+00 -0.45593999997E+02  0.45594000000E+02  0.51100000000E-03 0.  1.
    9900012    2    1    2    0    0 -0.10924089093E+00  0.35325388616E+00  0.11208110875E+01  0.90007771474E+02  0.90000033257E+02 0.  0.
        -12    1    1    2    0    0  0.10924089093E+00 -0.35325388616E+00 -0.11208110875E+01  0.11802285262E+01  0.00000000000E+00 0.  1.
         11    1    3    3    0    0 -0.49893182397E+01 -0.62564929366E+01 -0.10822815147E+02  0.13459952761E+02  0.51100000000E-03 0. -1.
        -11    1    3    3    0    0 -0.26191096254E+02  0.12554364729E+02 -0.17013804761E+02  0.33660884561E+02  0.51100000000E-03 0.  1.
         12    1    3    3    0    0  0.31071173603E+02 -0.59446179063E+01  0.28957430995E+02  0.42886934152E+02  0.00000000000E+00 0. -1.
</event>
<event>
 7    1  0.1756449E-015  0.9000770E+02  0.7816164E-02  0.1186339E+00
        -11   -1    0    0    0    0  0.00000000000E+00  0.00000000000E+00  0.45593999997E+02  0.45594000000E+02  0.51100000000E-03 0.  1.
         11   -1    0    0    0    0 -0.00000000000E+00 -0.00000000000E+00 -0.45593999997E+02  0.45594000000E+02  0.51100000000E-03 0. -1.
    9900012    2    1    2    0    0  0.80362750526E-01 -0.73415131664E+00  0.92069116080E+00  0.90007699809E+02  0.89999960646E+02 0.  0.
        -12    1    1    2    0    0 -0.80362750526E-01  0.73415131664E+00 -0.92069116080E+00  0.11803001910E+01  0.00000000000E+00 0.  1.
         11    1    3    3    0    0  0.11403598131E+02  0.53811316177E+01  0.13817103398E+02  0.18705907474E+02  0.51100000000E-03 0. -1.
        -11    1    3    3    0    0  0.20011066513E+01  0.10165610316E+02  0.25497262311E+02  0.27521890315E+02  0.51100000000E-03 0.  1.
        -12    1    3    3    0    0 -0.13324342032E+02 -0.16280893250E+02 -0.38393674548E+02  0.43779902020E+02  0.00000000000E+00 0.  1.
</event>
<event>
 7    1  0.1756449E-015  0.9000773E+02  0.7816164E-02  0.1186339E+00
        -11   -1    0    0    0    0  0.00000000000E+00  0.00000000000E+00  0.45593999997E+02  0.45594000000E+02  0.51100000000E-03 0.  1.
         11   -1    0    0    0    0 -0.00000000000E+00 -0.00000000000E+00 -0.45593999997E+02  0.45594000000E+02  0.51100000000E-03 0. -1.
    9900012    2    1    2    0    0  0.36948988688E+00 -0.94413343844E+00 -0.60426427152E+00  0.90007726288E+02  0.89999987475E+02 0.  0.
        -12    1    1    2    0    0 -0.36948988688E+00  0.94413343844E+00  0.60426427152E+00  0.11802737123E+01  0.00000000000E+00 0.  1.
         11    1    3    3    0    0  0.17688274807E+00  0.22814505740E+01 -0.25260955094E+02  0.25364387569E+02  0.51100000000E-03 0. -1.
        -11    1    3    3    0    0  0.69641013393E+00 -0.10245882039E+02 -0.18369523252E+02  0.21045248172E+02  0.51100000000E-03 0.  1.
        -12    1    3    3    0    0 -0.50380299512E+00  0.70202980269E+01  0.43026214074E+02  0.43598090548E+02  0.00000000000E+00 0.  1.
</event>
<event>
 7    1  0.1756449E-015  0.9000779E+02  0.7816164E-02  0.1186339E+00
        -11   -1    0    0    0    0  0.00000000000E+00  0.00000000000E+00  0.45593999997E+02  0.45594000000E+02  0.51100000000E-03 0. -1.
         11   -1    0    0    0    0 -0.00000000000E+00 -0.00000000000E+00 -0.45593999997E+02  0.45594000000E+02  0.51100000000E-03 0.  1.
    9900012    2    1    2    0    0 -0.42833502458E+00 -0.58028447105E+00  0.93417806396E+00  0.90007792554E+02  0.90000054616E+02 0.  0.
        -12    1    1    2    0    0  0.42833502458E+00  0.58028447105E+00 -0.93417806396E+00  0.11802074461E+01  0.00000000000E+00 0.  1.
         11    1    3    3    0    0 -0.12614037643E+01  0.10926221773E+02 -0.72705609805E+00  0.11022797854E+02  0.51100000000E-03 0. -1.
        -11    1    3    3    0    0 -0.35480176347E+02  0.59824751388E+00 -0.13288210842E+02  0.37891652925E+02  0.51100000000E-03 0.  1.
         12    1    3    3    0    0  0.36313245087E+02 -0.12104753758E+02  0.14949445004E+02  0.41093341775E+02  0.00000000000E+00 0. -1.
</event>
<event>
 7    1  0.1756449E-015  0.9000774E+02  0.7816164E-02  0.1186339E+00
        -11   -1    0    0    0    0  0.00000000000E+00  0.00000000000E+00  0.45593999997E+02  0.45594000000E+02  0.51100000000E-03 0.  1.
         11   -1    0    0    0    0 -0.00000000000E+00 -0.00000000000E+00 -0.45593999997E+02  0.45594000000E+02  0.51100000000E-03 0. -1.
    9900012    2    1    2    0    0 -0.90989500234E+00  0.17152358576E+00 -0.73189731560E+00  0.90007744546E+02  0.90000005974E+02 0.  0.
        -12    1    1    2    0    0  0.90989500234E+00 -0.17152358576E+00  0.73189731560E+00  0.11802554538E+01  0.00000000000E+00 0.  1.
         11    1    3    3    0    0 -0.37004421362E+01  0.31941254060E+01  0.12360656227E+02  0.13292160537E+02  0.51100000000E-03 0. -1.
        -11    1    3    3    0    0  0.21783050071E+02 -0.12791649149E+02  0.23399173194E+02  0.34433252312E+02  0.51100000000E-03 0.  1.
         12    1    3    3    0    0 -0.18992502937E+02  0.97690473290E+01 -0.36491726737E+02  0.42282331697E+02  0.00000000000E+00 0. -1.
</event>
<event>
 7    1  0.1756449E-015  0.9000777E+02  0.7816164E-02  0.1186339E+00
        -11   -1    0    0    0    0  0.00000000000E+00  0.00000000000E+00  0.45593999997E+02  0.45594000000E+02  0.51100000000E-03 0. -1.
         11   -1    0    0    0    0 -0.00000000000E+00 -0.00000000000E+00 -0.45593999997E+02  0.45594000000E+02  0.51100000000E-03 0.  1.
    9900012    2    1    2    0    0  0.26977493577E+00  0.39613669389E+00  0.10785365735E+01  0.90007769541E+02  0.90000031299E+02 0.  0.
        -12    1    1    2    0    0 -0.26977493577E+00 -0.39613669389E+00 -0.10785365735E+01  0.11802304591E+01  0.00000000000E+00 0.  1.
         11    1    3    3    0    0 -0.25376817568E+02 -0.21366500534E+02 -0.12901987214E+02  0.35594542970E+02  0.51100000000E-03 0. -1.
        -11    1    3    3    0    0 -0.93747894215E+01  0.12011167115E+02 -0.59070956831E+00  0.15248073656E+02  0.51100000000E-03 0.  1.
        -12    1    3    3    0    0  0.35021381925E+02  0.97514701132E+01  0.14571233356E+02  0.39165152915E+02  0.00000000000E+00 0.  1.
</event>
<event>
 7    1  0.3897386E-015  0.9000783E+02  0.7816164E-02  0.1186339E+00
        -11   -1    0    0    0    0  0.00000000000E+00  0.00000000000E+00  0.45593999997E+02  0.45594000000E+02  0.51100000000E-03 0. -1.
         11   -1    0    0    0    0 -0.00000000000E+00 -0.00000000000E+00 -0.45593999997E+02  0.45594000000E+02  0.51100000000E-03 0.  1.
    9900012    2    1    2    0    0  0.67717545918E+00  0.25542571604E+00  0.93219227171E+00  0.90007834194E+02  0.90000096805E+02 0.  0.
        -12    1    1    2    0    0 -0.67717545918E+00 -0.25542571604E+00 -0.93219227171E+00  0.11801658063E+01  0.00000000000E+00 0.  1.
         11    1    3    3    0    0  0.80331620823E+01  0.17021047978E+01  0.54097430780E+01  0.98333195928E+01  0.51100000000E-03 0. -1.
        -11    1    3    3    0    0  0.10845389646E+02 -0.21552465252E+01 -0.39326924953E+02  0.40851861533E+02  0.51100000000E-03 0.  1.
         12    1    3    3    0    0 -0.18201376269E+02  0.70856744345E+00  0.34849374147E+02  0.39322653068E+02  0.00000000000E+00 0. -1.
</event>
<event>
 7    1  0.1756449E-015  0.9000864E+02  0.7816164E-02  0.1186337E+00
        -11   -1    0    0    0    0  0.00000000000E+00  0.00000000000E+00  0.45593999997E+02  0.45594000000E+02  0.51100000000E-03 0. -1.
         11   -1    0    0    0    0 -0.00000000000E+00 -0.00000000000E+00 -0.45593999997E+02  0.45594000000E+02  0.51100000000E-03 0.  1.
    9900012    2    1    2    0    0  0.71698509769E+00 -0.45858049342E+00  0.81640984313E+00  0.90008640542E+02  0.90000913793E+02 0.  0.
        -12    1    1    2    0    0 -0.71698509769E+00  0.45858049342E+00 -0.81640984313E+00  0.11793594580E+01  0.00000000000E+00 0.  1.
         11    1    3    3    0    0 -0.15588531241E+02 -0.34979542669E+02  0.10240741000E+02  0.39641436504E+02  0.51100000000E-03 0. -1.
        -11    1    3    3    0    0 -0.76782417672E+01  0.51980575916E+00 -0.30254871771E+01  0.82691697034E+01  0.51100000000E-03 0.  1.
        -12    1    3    3    0    0  0.23983758106E+02  0.34001156416E+02 -0.63988439802E+01  0.42098034335E+02  0.00000000000E+00 0.  1.
</event>
<event>
 7    1  0.2000802E-015  0.9000785E+02  0.7816164E-02  0.1186339E+00
        -11   -1    0    0    0    0  0.00000000000E+00  0.00000000000E+00  0.45593999997E+02  0.45594000000E+02  0.51100000000E-03 0.  1.
         11   -1    0    0    0    0 -0.00000000000E+00 -0.00000000000E+00 -0.45593999997E+02  0.45594000000E+02  0.51100000000E-03 0. -1.
    9900012    2    1    2    0    0 -0.90500325158E+00 -0.54639085093E+00  0.52458430182E+00  0.90007846393E+02  0.90000109165E+02 0.  0.
        -12    1    1    2    0    0  0.90500325158E+00  0.54639085093E+00 -0.52458430182E+00  0.11801536074E+01  0.00000000000E+00 0.  1.
         11    1    3    3    0    0  0.54947772019E+01  0.63879204834E+01  0.33225106404E+01  0.90574379279E+01  0.51100000000E-03 0. -1.
        -11    1    3    3    0    0  0.22771304029E+02  0.26430672795E+02 -0.94270194504E+01  0.36138365314E+02  0.51100000000E-03 0.  1.
         12    1    3    3    0    0 -0.29171084483E+02 -0.33364984130E+02  0.66290931118E+01  0.44812043151E+02  0.00000000000E+00 0. -1.
</event>
<event>
 7    1  0.1756449E-015  0.9000776E+02  0.7816164E-02  0.1186339E+00
        -11   -1    0    0    0    0  0.00000000000E+00  0.00000000000E+00  0.45593999997E+02  0.45594000000E+02  0.51100000000E-03 0.  1.
         11   -1    0    0    0    0 -0.00000000000E+00 -0.00000000000E+00 -0.45593999997E+02  0.45594000000E+02  0.51100000000E-03 0. -1.
    9900012    2    1    2    0    0  0.84184716439E+00  0.62461839871E+00 -0.54231582534E+00  0.90007762208E+02  0.90000023869E+02 0.  0.
        -12    1    1    2    0    0 -0.84184716439E+00 -0.62461839871E+00  0.54231582534E+00  0.11802377924E+01  0.00000000000E+00 0.  1.
         11    1    3    3    0    0  0.65353990204E+01  0.13411207836E+01 -0.52471475095E+01  0.84877913829E+01  0.51100000000E-03 0. -1.
        -11    1    3    3    0    0  0.35176740641E+02  0.10904156556E+02  0.11296192974E+02  0.38521522403E+02  0.51100000000E-03 0.  1.
         12    1    3    3    0    0 -0.40870292497E+02 -0.11620658941E+02 -0.65913612894E+01  0.42998448421E+02  0.00000000000E+00 0. -1.
</event>
<event>
 7    1  0.1756449E-015  0.9000776E+02  0.7816164E-02  0.1186339E+00
        -11   -1    0    0    0    0  0.00000000000E+00  0.00000000000E+00  0.45593999997E+02  0.45594000000E+02  0.51100000000E-03 0. -1.
         11   -1    0    0    0    0 -0.00000000000E+00 -0.00000000000E+00 -0.45593999997E+02  0.45594000000E+02  0.51100000000E-03 0.  1.
    9900012    2    1    2    0    0  0.70752860449E-01 -0.76481855360E+00  0.89611212281E+00  0.90007758362E+02  0.90000019972E+02 0.  0.
        -12    1    1    2    0    0 -0.70752860449E-01  0.76481855360E+00 -0.89611212281E+00  0.11802416379E+01  0.00000000000E+00 0.  1.
         11    1    3    3    0    0  0.58503116426E+01  0.13846605352E+01 -0.47841755137E+01  0.76832133069E+01  0.51100000000E-03 0. -1.
        -11    1    3    3    0    0 -0.18151896361E+02 -0.41839992166E+01 -0.35058391470E+02  0.39699974857E+02  0.51100000000E-03 0.  1.
         12    1    3    3    0    0  0.12372337578E+02  0.20345201278E+01  0.40738679106E+02  0.42624570199E+02  0.00000000000E+00 0. -1.
</event>
<event>
 7    1  0.1756449E-015  0.9000768E+02  0.7816164E-02  0.1186339E+00
        -11   -1    0    0    0    0  0.00000000000E+00  0.00000000000E+00  0.45593999997E+02  0.45594000000E+02  0.51100000000E-03 0. -1.
         11   -1    0    0    0    0 -0.00000000000E+00 -0.00000000000E+00 -0.45593999997E+02  0.45594000000E+02  0.51100000000E-03 0.  1.
    9900012    2    1    2    0    0  0.28965880160E+00 -0.26836362545E+00  0.11123093927E+01  0.90007680788E+02  0.89999941374E+02 0.  0.
        -12    1    1    2    0    0 -0.28965880160E+00  0.26836362545E+00 -0.11123093927E+01  0.11803192119E+01  0.00000000000E+00 0.  1.
         11    1    3    3    0    0 -0.14507044992E+02 -0.13033236282E+01  0.33923734681E+02  0.36918461261E+02  0.51100000000E-03 0. -1.
        -11    1    3    3    0    0  0.32147784107E+01  0.68004065953E+01  0.75785476134E+01  0.10677767289E+02  0.51100000000E-03 0.  1.
        -12    1    3    3    0    0  0.11581925383E+02 -0.57654465925E+01 -0.40389972902E+02  0.42411452238E+02  0.00000000000E+00 0.  1.
</event>
<event>
 7    1  0.1756449E-015  0.9000772E+02  0.7816164E-02  0.1186339E+00
        -11   -1    0    0    0    0  0.00000000000E+00  0.00000000000E+00  0.45593999997E+02  0.45594000000E+02  0.51100000000E-03 0.  1.
         11   -1    0    0    0    0 -0.00000000000E+00 -0.00000000000E+00 -0.45593999997E+02  0.45594000000E+02  0.51100000000E-03 0. -1.
    9900012    2    1    2    0    0 -0.25225235946E+00  0.76358775703E+00  0.86392140900E+00  0.90007721339E+02  0.89999982461E+02 0.  0.
        -12    1    1    2    0    0  0.25225235946E+00 -0.76358775703E+00 -0.86392140900E+00  0.11802786605E+01  0.00000000000E+00 0.  1.
         11    1    3    3    0    0 -0.15615203149E+02  0.16200790706E+02 -0.34252544528E+02  0.40982154602E+02  0.51100000000E-03 0. -1.
        -11    1    3    3    0    0 -0.70968493803E+01 -0.30075221130E+00  0.80361877491E+01  0.10725485389E+02  0.51100000000E-03 0.  1.
        -12    1    3    3    0    0  0.22459800170E+02 -0.15136450738E+02  0.27080278188E+02  0.38300081349E+02  0.00000000000E+00 0.  1.
</event>
<event>
 7    1  0.1756449E-015  0.9000775E+02  0.7816164E-02  0.1186339E+00
        -11   -1    0    0    0    0  0.00000000000E+00  0.00000000000E+00  0.45593999997E+02  0.45594000000E+02  0.51100000000E-03 0. -1.
         11   -1    0    0    0    0 -0.00000000000E+00 -0.00000000000E+00 -0.45593999997E+02  0.45594000000E+02  0.51100000000E-03 0.  1.
    9900012    2    1    2    0    0 -0.11139421194E+01 -0.27502241128E+00  0.27658141711E+00  0.90007745090E+02  0.90000006525E+02 0.  0.
        -12    1    1    2    0    0  0.11139421194E+01  0.27502241128E+00 -0.27658141711E+00  0.11802549099E+01  0.00000000000E+00 0.  1.
         11    1    3    3    0    0  0.17815699506E+01 -0.24090853217E+01 -0.84171373023E+01  0.89345332392E+01  0.51100000000E-03 0. -1.
        -11    1    3    3    0    0 -0.38754238678E+01 -0.33300710110E+02  0.25229187234E+02  0.41957932417E+02  0.51100000000E-03 0.  1.
         12    1    3    3    0    0  0.97991179780E+00  0.35434773021E+02 -0.16535468514E+02  0.39115279433E+02  0.00000000000E+00 0. -1.
</event>
<event>
 7    1  0.1756449E-015  0.9000776E+02  0.7816164E-02  0.1186339E+00
        -11   -1    0    0    0    0  0.00000000000E+00  0.00000000000E+00  0.45593999997E+02  0.45594000000E+02  0.51100000000E-03 0. -1.
         11   -1    0    0    0    0 -0.00000000000E+00 -0.00000000000E+00 -0.45593999997E+02  0.45594000000E+02  0.51100000000E-03 0.  1.
    9900012    2    1    2    0    0  0.30420628910E+00 -0.57207993276E+00  0.98648462940E+00  0.90007758991E+02  0.90000020609E+02 0.  0.
        -12    1    1    2    0    0 -0.30420628910E+00  0.57207993276E+00 -0.98648462940E+00  0.11802410092E+01  0.00000000000E+00 0.  1.
         11    1    3    3    0    0  0.12103986974E+01 -0.55292399092E+01  0.70124287628E+01  0.90117543461E+01  0.51100000000E-03 0. -1.
        -11    1    3    3    0    0  0.37084310103E+02  0.16953869373E+02 -0.53307757862E+00  0.40779454564E+02  0.51100000000E-03 0.  1.
         12    1    3    3    0    0 -0.37990502511E+02 -0.11996709397E+02 -0.54928665548E+01  0.40216550081E+02  0.00000000000E+00 0. -1.
</event>
<event>
 7    1  0.1756449E-015  0.9000769E+02  0.7816164E-02  0.1186339E+00
        -11   -1    0    0    0    0  0.00000000000E+00  0.00000000000E+00  0.45593999997E+02  0.45594000000E+02  0.51100000000E-03 0. -1.
         11   -1    0    0    0    0 -0.00000000000E+00 -0.00000000000E+00 -0.45593999997E+02  0.45594000000E+02  0.51100000000E-03 0.  1.
    9900012    2    1    2    0    0  0.49699397791E+00 -0.39915003450E+00 -0.99338133525E+00  0.90007690616E+02  0.89999951332E+02 0.  0.
        -12    1    1    2    0    0 -0.49699397791E+00  0.39915003450E+00  0.99338133525E+00  0.11803093837E+01  0.00000000000E+00 0.  1.
         11    1    3    3    0    0 -0.17061840927E+02  0.31686530740E+02 -0.32121633030E+01  0.36131158845E+02  0.51100000000E-03 0. -1.
        -11    1    3    3    0    0 -0.97337335423E+01  0.15006811707E+01  0.38349346080E+01  0.10569027219E+02  0.51100000000E-03 0.  1.
        -12    1    3    3    0    0  0.27292568447E+02 -0.33586361945E+02 -0.16161526403E+01  0.43307504552E+02  0.00000000000E+00 0.  1.
</event>
<event>
 7    1  0.1756449E-015  0.9000772E+02  0.7816164E-02  0.1186339E+00
        -11   -1    0    0    0    0  0.00000000000E+00  0.00000000000E+00  0.45593999997E+02  0.45594000000E+02  0.51100000000E-03 0.  1.
         11   -1    0    0    0    0 -0.00000000000E+00 -0.00000000000E+00 -0.45593999997E+02  0.45594000000E+02  0.51100000000E-03 0. -1.
    9900012    2    1    2    0    0 -0.64057586183E+00  0.99077707516E+00 -0.33097349300E-01  0.90007715254E+02  0.89999976295E+02 0.  0.
        -12    1    1    2    0    0  0.64057586183E+00 -0.99077707516E+00  0.33097349300E-01  0.11802847461E+01  0.00000000000E+00 0.  1.
         11    1    3    3    0    0  0.14386486504E+02  0.31166805188E+02 -0.26675589412E+02  0.43473299970E+02  0.51100000000E-03 0. -1.
        -11    1    3    3    0    0 -0.69690337322E+01 -0.48098363376E+01 -0.54847359706E+00  0.84854452036E+01  0.51100000000E-03 0.  1.
        -12    1    3    3    0    0 -0.80580286331E+01 -0.25366191775E+02  0.27190965660E+02  0.38048970080E+02  0.00000000000E+00 0.  1.
</event>
<event>
 7    1  0.1756449E-015  0.9000774E+02  0.7816164E-02  0.1186339E+00
        -11   -1    0    0    0    0  0.00000000000E+00  0.00000000000E+00  0.45593999997E+02  0.45594000000E+02  0.51100000000E-03 0.  1.
         11   -1    0    0    0    0 -0.00000000000E+00 -0.00000000000E+00 -0.45593999997E+02  0.45594000000E+02  0.51100000000E-03 0. -1.
    9900012    2    1    2    0    0 -0.85421157677E+00  0.67378082097E+00 -0.45754682289E+00  0.90007742779E+02  0.90000004184E+02 0.  0.
        -12    1    1    2    0    0  0.85421157677E+00 -0.67378082097E+00  0.45754682289E+00  0.11802572210E+01  0.00000000000E+00 0.  1.
         11    1    3    3    0    0  0.24127623652E+00 -0.22007553402E+02 -0.31200061310E+02  0.38181598277E+02  0.51100000000E-03 0. -1.
        -11    1    3    3    0    0 -0.26363079471E+01  0.82911954464E+01 -0.71516884828E+01  0.11262357211E+02  0.51100000000E-03 0.  1.
        -12    1    3    3    0    0  0.15408201338E+01  0.14390138776E+02  0.37894202970E+02  0.40563787292E+02  0.00000000000E+00 0.  1.
</event>
<event>
 7    1  0.1756449E-015  0.9000777E+02  0.7816164E-02  0.1186339E+00
        -11   -1    0    0    0    0  0.00000000000E+00  0.00000000000E+00  0.45593999997E+02  0.45594000000E+02  0.51100000000E-03 0.  1.
         11   -1    0    0    0    0 -0.00000000000E+00 -0.00000000000E+00 -0.45593999997E+02  0.45594000000E+02  0.51100000000E-03 0. -1.
    9900012    2    1    2    0    0 -0.36068130155E-01  0.90227061980E+00 -0.75997223927E+00  0.90007766555E+02  0.90000028273E+02 0.  0.
        -12    1    1    2    0    0  0.36068130155E-01 -0.90227061980E+00  0.75997223927E+00  0.11802334455E+01  0.00000000000E+00 0.  1.
         11    1    3    3    0    0 -0.14472452490E+01 -0.72485316464E+01  0.55692886041E+01  0.92548746970E+01  0.51100000000E-03 0. -1.
        -11    1    3    3    0    0  0.35101334701E+02 -0.14607665135E+02  0.54877833566E+01  0.38413582818E+02  0.51100000000E-03 0.  1.
         12    1    3    3    0    0 -0.33690157582E+02  0.22758467401E+02 -0.11817044200E+02  0.42339309040E+02  0.00000000000E+00 0. -1.
</event>
<event>
 7    1  0.1756449E-015  0.9000771E+02  0.7816164E-02  0.1186339E+00
        -11   -1    0    0    0    0  0.00000000000E+00  0.00000000000E+00  0.45593999997E+02  0.45594000000E+02  0.51100000000E-03 0.  1.
         11   -1    0    0    0    0 -0.00000000000E+00 -0.00000000000E+00 -0.45593999997E+02  0.45594000000E+02  0.51100000000E-03 0. -1.
    9900012    2    1    2    0    0 -0.79380047053E+00  0.75986398218E+00  0.43078832063E+00  0.90007707225E+02  0.89999968160E+02 0.  0.
        -12    1    1    2    0    0  0.79380047053E+00 -0.75986398218E+00 -0.43078832063E+00  0.11802927754E+01  0.00000000000E+00 0.  1.
         11    1    3    3    0    0  0.26317092433E+02 -0.22923559495E+02  0.23097725533E+01  0.34977335284E+02  0.51100000000E-03 0. -1.
        -11    1    3    3    0    0  0.51225860045E+00 -0.85708452320E+01 -0.84641103622E+01  0.12056656309E+02  0.51100000000E-03 0.  1.
        -12    1    3    3    0    0 -0.27623151504E+02  0.32254268710E+02  0.65851261295E+01  0.42973715631E+02  0.00000000000E+00 0.  1.
</event>
<event>
 7    1  0.1756449E-015  0.9000746E+02  0.7816164E-02  0.1186340E+00
        -11   -1    0    0    0    0  0.00000000000E+00  0.00000000000E+00  0.45593999997E+02  0.45594000000E+02  0.51100000000E-03 0. -1.
         11   -1    0    0    0    0 -0.00000000000E+00 -0.00000000000E+00 -0.45593999997E+02  0.45594000000E+02  0.51100000000E-03 0.  1.
    9900012    2    1    2    0    0 -0.11419470604E+01  0.22187272010E+00  0.20099258723E+00  0.90007462575E+02  0.89999720280E+02 0.  0.
        -12    1    1    2    0    0  0.11419470604E+01 -0.22187272010E+00 -0.20099258723E+00  0.11805374254E+01  0.00000000000E+00 0.  1.
         11    1    3    3    0    0 -0.31209370878E+01  0.83248480553E+01 -0.10064361717E+02  0.13428876367E+02  0.51100000000E-03 0. -1.
        -11    1    3    3    0    0 -0.19927937192E+02 -0.10039824908E+02 -0.25940072303E+02  0.34217073461E+02  0.51100000000E-03 0.  1.
         12    1    3    3    0    0  0.21906927219E+02  0.19368495723E+01  0.36205426606E+02  0.42361512747E+02  0.00000000000E+00 0. -1.
</event>
<event>
 7    1  0.1756449E-015  0.9000769E+02  0.7816164E-02  0.1186339E+00
        -11   -1    0    0    0    0  0.00000000000E+00  0.00000000000E+00  0.45593999997E+02  0.45594000000E+02  0.51100000000E-03 0.  1.
         11   -1    0    0    0    0 -0.00000000000E+00 -0.00000000000E+00 -0.45593999997E+02  0.45594000000E+02  0.51100000000E-03 0. -1.
    9900012    2    1    2    0    0 -0.12323097823E+00  0.11593676075E+01  0.18385819299E+00  0.90007693701E+02  0.89999954458E+02 0.  0.
        -12    1    1    2    0    0  0.12323097823E+00 -0.11593676075E+01 -0.18385819299E+00  0.11803062986E+01  0.00000000000E+00 0.  1.
         11    1    3    3    0    0 -0.62319255585E+00  0.42484288133E+01 -0.78124014134E+01  0.89146582912E+01  0.51100000000E-03 0. -1.
        -11    1    3    3    0    0 -0.25950411037E+02  0.26888493742E+02  0.15430686240E+02  0.40429209822E+02  0.51100000000E-03 0.  1.
         12    1    3    3    0    0  0.26450372615E+02 -0.29977554948E+02 -0.74344266340E+01  0.40663825588E+02  0.00000000000E+00 0. -1.
</event>
<event>
 7    1  0.1756449E-015  0.9000772E+02  0.7816164E-02  0.1186339E+00
        -11   -1    0    0    0    0  0.00000000000E+00  0.00000000000E+00  0.45593999997E+02  0.45594000000E+02  0.51100000000E-03 0. -1.
         11   -1    0    0    0    0 -0.00000000000E+00 -0.00000000000E+00 -0.45593999997E+02  0.45594000000E+02  0.51100000000E-03 0.  1.
    9900012    2    1    2    0    0 -0.33368130618E+00 -0.35558395215E-01  0.11315686235E+01  0.90007722421E+02  0.89999983557E+02 0.  0.
        -12    1    1    2    0    0  0.33368130618E+00  0.35558395215E-01 -0.11315686235E+01  0.11802775789E+01  0.00000000000E+00 0.  1.
         11    1    3    3    0    0 -0.26666098276E+00 -0.84103253937E+01  0.38126037525E+01  0.92379991850E+01  0.51100000000E-03 0. -1.
        -11    1    3    3    0    0  0.27370978667E+02 -0.17593205851E+02 -0.21059806046E+02  0.38758312608E+02  0.51100000000E-03 0.  1.
         12    1    3    3    0    0 -0.27437998990E+02  0.25967972850E+02  0.18378770917E+02  0.42011410628E+02  0.00000000000E+00 0. -1.
</event>
<event>
 7    1  0.2290980E-015  0.9000753E+02  0.7816164E-02  0.1186339E+00
        -11   -1    0    0    0    0  0.00000000000E+00  0.00000000000E+00  0.45593999997E+02  0.45594000000E+02  0.51100000000E-03 0. -1.
         11   -1    0    0    0    0 -0.00000000000E+00 -0.00000000000E+00 -0.45593999997E+02  0.45594000000E+02  0.51100000000E-03 0.  1.
    9900012    2    1    2    0    0  0.55478547724E+00  0.86767268303E+00  0.57694104891E+00  0.90007532387E+02  0.89999791015E+02 0.  0.
        -12    1    1    2    0    0 -0.55478547724E+00 -0.86767268303E+00 -0.57694104891E+00  0.11804676127E+01  0.00000000000E+00 0.  1.
         11    1    3    3    0    0  0.49134017442E+01 -0.60516859788E+01  0.59215403636E+01  0.97892318608E+01  0.51100000000E-03 0. -1.
        -11    1    3    3    0    0  0.21213652168E+02 -0.42436612345E+01 -0.33950630320E+02  0.40257583116E+02  0.51100000000E-03 0.  1.
         12    1    3    3    0    0 -0.25572268435E+02  0.11163019896E+02  0.28606031005E+02  0.39960717411E+02  0.00000000000E+00 0. -1.
</event>
<event>
 7    1  0.1756449E-015  0.9000769E+02  0.7816164E-02  0.1186339E+00
        -11   -1    0    0    0    0  0.00000000000E+00  0.00000000000E+00  0.45593999997E+02  0.45594000000E+02  0.51100000000E-03 0.  1.
         11   -1    0    0    0    0 -0.00000000000E+00 -0.00000000000E+00 -0.45593999997E+02  0.45594000000E+02  0.51100000000E-03 0. -1.
    9900012    2    1    2    0    0  0.69520186855E+00  0.92504028435E+00 -0.23263163651E+00  0.90007693835E+02  0.89999954593E+02 0.  0.
        -12    1    1    2    0    0 -0.69520186855E+00 -0.92504028435E+00  0.23263163651E+00  0.11803061654E+01  0.00000000000E+00 0.  1.
         11    1    3    3    0    0  0.10450779820E+02 -0.18586598651E+02 -0.22422518853E+02  0.30942685731E+02  0.51100000000E-03 0. -1.
        -11    1    3    3    0    0  0.19793084510E+02  0.26837047405E+01  0.35512966904E+01  0.20287438823E+02  0.51100000000E-03 0.  1.
        -12    1    3    3    0    0 -0.29548662461E+02  0.16827934195E+02  0.18638590526E+02  0.38777569281E+02  0.00000000000E+00 0.  1.
</event>
<event>
 7    1  0.1756449E-015  0.9000773E+02  0.7816164E-02  0.1186339E+00
        -11   -1    0    0    0    0  0.00000000000E+00  0.00000000000E+00  0.45593999997E+02  0.45594000000E+02  0.51100000000E-03 0.  1.
         11   -1    0    0    0    0 -0.00000000000E+00 -0.00000000000E+00 -0.45593999997E+02  0.45594000000E+02  0.51100000000E-03 0. -1.
    9900012    2    1    2    0    0  0.19413498537E+00  0.59914883085E+00 -0.99818424724E+00  0.90007729054E+02  0.89999990278E+02 0.  0.
        -12    1    1    2    0    0 -0.19413498537E+00 -0.59914883085E+00  0.99818424724E+00  0.11802709458E+01  0.00000000000E+00 0.  1.
         11    1    3    3    0    0  0.84585255994E+01 -0.24036828718E+01  0.55476681691E+01  0.10397161586E+02  0.51100000000E-03 0. -1.
        -11    1    3    3    0    0  0.19281412738E+02  0.33112360176E+02 -0.60982291012E+01  0.38799351438E+02  0.51100000000E-03 0.  1.
         12    1    3    3    0    0 -0.27545803352E+02 -0.30109528473E+02 -0.44762331511E+00  0.40811216030E+02  0.00000000000E+00 0. -1.
</event>
<event>
 7    1  0.1756449E-015  0.9000773E+02  0.7816164E-02  0.1186339E+00
        -11   -1    0    0    0    0  0.00000000000E+00  0.00000000000E+00  0.45593999997E+02  0.45594000000E+02  0.51100000000E-03 0. -1.
         11   -1    0    0    0    0 -0.00000000000E+00 -0.00000000000E+00 -0.45593999997E+02  0.45594000000E+02  0.51100000000E-03 0.  1.
    9900012    2    1    2    0    0  0.81832075738E+00  0.83400927936E+00 -0.16679725735E+00  0.90007728139E+02  0.89999989351E+02 0.  0.
        -12    1    1    2    0    0 -0.81832075738E+00 -0.83400927936E+00  0.16679725735E+00  0.11802718607E+01  0.00000000000E+00 0.  1.
         11    1    3    3    0    0  0.10190038618E+02 -0.27727816923E+02  0.22806013538E+02  0.37320007665E+02  0.51100000000E-03 0. -1.
        -11    1    3    3    0    0  0.77081585228E+01 -0.53498043076E+01 -0.34880096849E+01  0.10010111176E+02  0.51100000000E-03 0.  1.
        -12    1    3    3    0    0 -0.17079876384E+02  0.33911630510E+02 -0.19484801110E+02  0.42677609298E+02  0.00000000000E+00 0.  1.
</event>
<event>
 7    1  0.1756449E-015  0.9000764E+02  0.7816164E-02  0.1186339E+00
        -11   -1    0    0    0    0  0.00000000000E+00  0.00000000000E+00  0.45593999997E+02  0.45594000000E+02  0.51100000000E-03 0.  1.
         11   -1    0    0    0    0 -0.00000000000E+00 -0.00000000000E+00 -0.45593999997E+02  0.45594000000E+02  0.51100000000E-03 0. -1.
    9900012    2    1    2    0    0  0.44578441731E+00  0.96719237421E+00 -0.50897866809E+00  0.90007642376E+02  0.89999902456E+02 0.  0.
        -12    1    1    2    0    0 -0.44578441731E+00 -0.96719237421E+00  0.50897866809E+00  0.11803576238E+01  0.00000000000E+00 0.  1.
         11    1    3    3    0    0  0.37925770049E+01  0.71751185976E+01  0.12072952662E+01  0.82050916722E+01  0.51100000000E-03 0. -1.
        -11    1    3    3    0    0  0.27996480663E+02 -0.21846634227E+02  0.19834970446E+02  0.40675599681E+02  0.51100000000E-03 0.  1.
         12    1    3    3    0    0 -0.31343273251E+02  0.15638708004E+02 -0.21551244380E+02  0.41126951023E+02  0.00000000000E+00 0. -1.
</event>
<event>
 7    1  0.1756449E-015  0.9000794E+02  0.7816164E-02  0.1186339E+00
        -11   -1    0    0    0    0  0.00000000000E+00  0.00000000000E+00  0.45593999997E+02  0.45594000000E+02  0.51100000000E-03 0. -1.
         11   -1    0    0    0    0 -0.00000000000E+00 -0.00000000000E+00 -0.45593999997E+02  0.45594000000E+02  0.51100000000E-03 0.  1.
    9900012    2    1    2    0    0 -0.30287486306E+00  0.51898955178E+00  0.10156050504E+01  0.90007941969E+02  0.90000206003E+02 0.  0.
        -12    1    1    2    0    0  0.30287486306E+00 -0.51898955178E+00 -0.10156050504E+01  0.11800580308E+01  0.00000000000E+00 0.  1.
         11    1    3    3    0    0 -0.15546448556E+02 -0.11615269222E+02 -0.96982179692E+01  0.21694745305E+02  0.51100000000E-03 0. -1.
        -11    1    3    3    0    0 -0.22560435198E+02  0.76467664918E+01  0.17610770118E+02  0.29624069580E+02  0.51100000000E-03 0.  1.
        -12    1    3    3    0    0  0.37804008891E+02  0.44874922825E+01 -0.68969470984E+01  0.38689127084E+02  0.00000000000E+00 0.  1.
</event>
<event>
 7    1  0.1756449E-015  0.9000780E+02  0.7816164E-02  0.1186339E+00
        -11   -1    0    0    0    0  0.00000000000E+00  0.00000000000E+00  0.45593999997E+02  0.45594000000E+02  0.51100000000E-03 0. -1.
         11   -1    0    0    0    0 -0.00000000000E+00 -0.00000000000E+00 -0.45593999997E+02  0.45594000000E+02  0.51100000000E-03 0.  1.
    9900012    2    1    2    0    0 -0.47709859085E-01 -0.11738864642E+01  0.11222175709E+00  0.90007796889E+02  0.90000059007E+02 0.  0.
        -12    1    1    2    0    0  0.47709859085E-01  0.11738864642E+01 -0.11222175709E+00  0.11802031115E+01  0.00000000000E+00 0.  1.
         11    1    3    3    0    0 -0.47107846301E+01  0.31093408711E+02 -0.21604966363E+02  0.38154503389E+02  0.51100000000E-03 0. -1.
        -11    1    3    3    0    0  0.94138176924E+01  0.56065619857E+00 -0.36324212692E+01  0.10105878658E+02  0.51100000000E-03 0.  1.
        -12    1    3    3    0    0 -0.47507429214E+01 -0.32827951373E+02  0.25349609390E+02  0.41747414841E+02  0.00000000000E+00 0.  1.
</event>
<event>
 7    1  0.1756449E-015  0.9000778E+02  0.7816164E-02  0.1186339E+00
        -11   -1    0    0    0    0  0.00000000000E+00  0.00000000000E+00  0.45593999997E+02  0.45594000000E+02  0.51100000000E-03 0.  1.
         11   -1    0    0    0    0 -0.00000000000E+00 -0.00000000000E+00 -0.45593999997E+02  0.45594000000E+02  0.51100000000E-03 0. -1.
    9900012    2    1    2    0    0 -0.71532378612E+00 -0.71417080910E+00  0.60925749128E+00  0.90007778515E+02  0.90000040391E+02 0.  0.
        -12    1    1    2    0    0  0.71532378612E+00  0.71417080910E+00 -0.60925749128E+00  0.11802214852E+01  0.00000000000E+00 0.  1.
         11    1    3    3    0    0 -0.39043828756E+01 -0.21975942286E+02 -0.18178219830E+02  0.28786002179E+02  0.51100000000E-03 0. -1.
        -11    1    3    3    0    0  0.69530713159E+01  0.40439661786E+01 -0.18393384221E+02  0.20075244619E+02  0.51100000000E-03 0.  1.
        -12    1    3    3    0    0 -0.37640122264E+01  0.17217805298E+02  0.37180861542E+02  0.41146531717E+02  0.00000000000E+00 0.  1.
</event>
<event>
 7    1  0.1756449E-015  0.9000773E+02  0.7816164E-02  0.1186339E+00
        -11   -1    0    0    0    0  0.00000000000E+00  0.00000000000E+00  0.45593999997E+02  0.45594000000E+02  0.51100000000E-03 0. -1.
         11   -1    0    0    0    0 -0.00000000000E+00 -0.00000000000E+00 -0.45593999997E+02  0.45594000000E+02  0.51100000000E-03 0.  1.
    9900012    2    1    2    0    0  0.11406756495E+00  0.88138263491E+00  0.77665783054E+00  0.90007727089E+02  0.89999988287E+02 0.  0.
        -12    1    1    2    0    0 -0.11406756495E+00 -0.88138263491E+00 -0.77665783054E+00  0.11802729109E+01  0.00000000000E+00 0.  1.
         11    1    3    3    0    0 -0.32255930545E+02  0.11506525398E+02  0.12765996665E+02  0.36548814661E+02  0.51100000000E-03 0. -1.
        -11    1    3    3    0    0 -0.46077851024E+01 -0.25234149420E+00  0.86907236958E+01  0.98399206500E+01  0.51100000000E-03 0.  1.
        -12    1    3    3    0    0  0.36977783212E+02 -0.10372801268E+02 -0.20680062530E+02  0.43618991778E+02  0.00000000000E+00 0.  1.
</event>
<event>
 7    1  0.1756449E-015  0.9000771E+02  0.7816164E-02  0.1186339E+00
        -11   -1    0    0    0    0  0.00000000000E+00  0.00000000000E+00  0.45593999997E+02  0.45594000000E+02  0.51100000000E-03 0.  1.
         11   -1    0    0    0    0 -0.00000000000E+00 -0.00000000000E+00 -0.45593999997E+02  0.45594000000E+02  0.51100000000E-03 0. -1.
    9900012    2    1    2    0    0  0.69737136243E+00  0.84753274568E+00 -0.43410760756E+00  0.90007708516E+02  0.89999969468E+02 0.  0.
        -12    1    1    2    0    0 -0.69737136243E+00 -0.84753274568E+00  0.43410760756E+00  0.11802914840E+01  0.00000000000E+00 0.  1.
         11    1    3    3    0    0  0.58915759614E+01 -0.31890836692E+02 -0.14437571703E+02  0.35499008566E+02  0.51100000000E-03 0. -1.
        -11    1    3    3    0    0  0.10719194447E+02 -0.46599003278E+01  0.56671992557E+00  0.11702007195E+02  0.51100000000E-03 0.  1.
        -12    1    3    3    0    0 -0.15913399046E+02  0.37398269766E+02  0.13436744170E+02  0.42806692754E+02  0.00000000000E+00 0.  1.
</event>
<event>
 7    1  0.1756449E-015  0.9000782E+02  0.7816164E-02  0.1186339E+00
        -11   -1    0    0    0    0  0.00000000000E+00  0.00000000000E+00  0.45593999997E+02  0.45594000000E+02  0.51100000000E-03 0.  1.
         11   -1    0    0    0    0 -0.00000000000E+00 -0.00000000000E+00 -0.45593999997E+02  0.45594000000E+02  0.51100000000E-03 0. -1.
    9900012    2    1    2    0    0  0.28253175643E+00 -0.11456770311E+01  0.20572558939E-01  0.90007820656E+02  0.90000083089E+02 0.  0.
        -12    1    1    2    0    0 -0.28253175643E+00  0.11456770311E+01 -0.20572558939E-01  0.11801793436E+01  0.00000000000E+00 0.  1.
         11    1    3    3    0    0 -0.62714958576E+01 -0.57120260298E+01 -0.47701609659E+01  0.97320777616E+01  0.51100000000E-03 0. -1.
        -11    1    3    3    0    0 -0.11718966237E+02 -0.27582487763E+01  0.38994778307E+02  0.40810964721E+02  0.51100000000E-03 0.  1.
         12    1    3    3    0    0  0.18272993851E+02  0.73245977750E+01 -0.34204044782E+02  0.39464778174E+02  0.00000000000E+00 0. -1.
</event>
<event>
 7    1  0.1756449E-015  0.9000785E+02  0.7816164E-02  0.1186339E+00
        -11   -1    0    0    0    0  0.00000000000E+00  0.00000000000E+00  0.45593999997E+02  0.45594000000E+02  0.51100000000E-03 0.  1.
         11   -1    0    0    0    0 -0.00000000000E+00 -0.00000000000E+00 -0.45593999997E+02  0.45594000000E+02  0.51100000000E-03 0. -1.
    9900012    2    1    2    0    0 -0.10004243196E+01  0.15629586187E+00 -0.60619724196E+00  0.90007850725E+02  0.90000113554E+02 0.  0.
        -12    1    1    2    0    0  0.10004243196E+01 -0.15629586187E+00  0.60619724196E+00  0.11801492752E+01  0.00000000000E+00 0.  1.
         11    1    3    3    0    0 -0.30718007571E+02 -0.95768268032E+01 -0.13644099627E+02  0.34949578763E+02  0.51100000000E-03 0. -1.
        -11    1    3    3    0    0 -0.90120161483E+01 -0.39489253690E+01 -0.39581442093E+01  0.10605534049E+02  0.51100000000E-03 0.  1.
        -12    1    3    3    0    0  0.38729599400E+02  0.13682048034E+02  0.16996046595E+02  0.44452737913E+02  0.00000000000E+00 0.  1.
</event>
<event>
 7    1  0.1756449E-015  0.9000774E+02  0.7816164E-02  0.1186339E+00
        -11   -1    0    0    0    0  0.00000000000E+00  0.00000000000E+00  0.45593999997E+02  0.45594000000E+02  0.51100000000E-03 0.  1.
         11   -1    0    0    0    0 -0.00000000000E+00 -0.00000000000E+00 -0.45593999997E+02  0.45594000000E+02  0.51100000000E-03 0. -1.
    9900012    2    1    2    0    0  0.10755719158E+01  0.43482690756E+00 -0.21701452824E+00  0.90007735330E+02  0.89999996636E+02 0.  0.
        -12    1    1    2    0    0 -0.10755719158E+01 -0.43482690756E+00  0.21701452824E+00  0.11802646700E+01  0.00000000000E+00 0.  1.
         11    1    3    3    0    0 -0.94518390969E+01 -0.17272162266E+01 -0.21496828327E+01  0.98458963406E+01  0.51100000000E-03 0. -1.
        -11    1    3    3    0    0 -0.14722903946E+02  0.35252143725E+02  0.44537897771E+01  0.38461848388E+02  0.51100000000E-03 0.  1.
         12    1    3    3    0    0  0.25250314959E+02 -0.33090100591E+02 -0.25211214726E+01  0.41699990601E+02  0.00000000000E+00 0. -1.
</event>
<event>
 7    1  0.1756449E-015  0.9000782E+02  0.7816164E-02  0.1186339E+00
        -11   -1    0    0    0    0  0.00000000000E+00  0.00000000000E+00  0.45593999997E+02  0.45594000000E+02  0.51100000000E-03 0. -1.
         11   -1    0    0    0    0 -0.00000000000E+00 -0.00000000000E+00 -0.45593999997E+02  0.45594000000E+02  0.51100000000E-03 0.  1.
    9900012    2    1    2    0    0 -0.11481038858E+01 -0.27203266330E+00 -0.26227977044E-01  0.90007816875E+02  0.90000079257E+02 0.  0.
        -12    1    1    2    0    0  0.11481038858E+01  0.27203266330E+00  0.26227977044E-01  0.11801831253E+01  0.00000000000E+00 0.  1.
         11    1    3    3    0    0  0.84322469625E+01 -0.22568625282E+02  0.28338690635E+02  0.37195793084E+02  0.51100000000E-03 0. -1.
        -11    1    3    3    0    0 -0.99815257911E+01 -0.50708204244E+01  0.25906341579E+01  0.11491538735E+02  0.51100000000E-03 0.  1.
        -12    1    3    3    0    0  0.40117494276E+00  0.27367413043E+02 -0.30955552770E+02  0.41320485056E+02  0.00000000000E+00 0.  1.
</event>
<event>
 7    1  0.1756449E-015  0.9000771E+02  0.7816164E-02  0.1186339E+00
        -11   -1    0    0    0    0  0.00000000000E+00  0.00000000000E+00  0.45593999997E+02  0.45594000000E+02  0.51100000000E-03 0.  1.
         11   -1    0    0    0    0 -0.00000000000E+00 -0.00000000000E+00 -0.45593999997E+02  0.45594000000E+02  0.51100000000E-03 0. -1.
    9900012    2    1    2    0    0 -0.22017552259E+00  0.11158225855E+01 -0.31551884059E+00  0.90007707900E+02  0.89999968844E+02 0.  0.
        -12    1    1    2    0    0  0.22017552259E+00 -0.11158225855E+01  0.31551884059E+00  0.11802921002E+01  0.00000000000E+00 0.  1.
         11    1    3    3    0    0  0.38918435861E+01  0.87158675847E+01 -0.58394472742E-02  0.95453040084E+01  0.51100000000E-03 0. -1.
        -11    1    3    3    0    0 -0.28902623074E+02  0.21546712234E+02 -0.15568718259E+02  0.39268402274E+02  0.51100000000E-03 0.  1.
         12    1    3    3    0    0  0.24790603965E+02 -0.29146757233E+02  0.15259038866E+02  0.41194001618E+02  0.00000000000E+00 0. -1.
</event>
<event>
 7    1  0.1756449E-015  0.9000769E+02  0.7816164E-02  0.1186339E+00
        -11   -1    0    0    0    0  0.00000000000E+00  0.00000000000E+00  0.45593999997E+02  0.45594000000E+02  0.51100000000E-03 0.  1.
         11   -1    0    0    0    0 -0.00000000000E+00 -0.00000000000E+00 -0.45593999997E+02  0.45594000000E+02  0.51100000000E-03 0. -1.
    9900012    2    1    2    0    0  0.83817331989E+00 -0.74330000826E+00  0.37162636394E+00  0.90007688359E+02  0.89999949045E+02 0.  0.
        -12    1    1    2    0    0 -0.83817331989E+00  0.74330000826E+00 -0.37162636394E+00  0.11803116414E+01  0.00000000000E+00 0.  1.
         11    1    3    3    0    0 -0.18846432911E+01  0.76297420054E+01  0.91941883303E+00  0.79126591393E+01  0.51100000000E-03 0. -1.
        -11    1    3    3    0    0 -0.40102443113E+01  0.36425295095E+02 -0.26811258676E+01  0.36743334339E+02  0.51100000000E-03 0.  1.
         12    1    3    3    0    0  0.67330609223E+01 -0.44798337109E+02  0.21333333985E+01  0.45351694880E+02  0.00000000000E+00 0. -1.
</event>
<event>
 7    1  0.1756449E-015  0.9000763E+02  0.7816164E-02  0.1186339E+00
        -11   -1    0    0    0    0  0.00000000000E+00  0.00000000000E+00  0.45593999997E+02  0.45594000000E+02  0.51100000000E-03 0.  1.
         11   -1    0    0    0    0 -0.00000000000E+00 -0.00000000000E+00 -0.45593999997E+02  0.45594000000E+02  0.51100000000E-03 0. -1.
    9900012    2    1    2    0    0  0.65511582405E+00 -0.47037779187E+00 -0.86188363610E+00  0.90007629121E+02  0.89999889025E+02 0.  0.
        -12    1    1    2    0    0 -0.65511582405E+00  0.47037779187E+00  0.86188363610E+00  0.11803708791E+01  0.00000000000E+00 0.  1.
         11    1    3    3    0    0 -0.81235406683E+01 -0.57975322881E+01 -0.32991273194E+02  0.34467773367E+02  0.51100000000E-03 0. -1.
        -11    1    3    3    0    0 -0.71071631397E+00 -0.26735807681E+01 -0.10646252866E+02  0.10999811459E+02  0.51100000000E-03 0.  1.
        -12    1    3    3    0    0  0.94893728063E+01  0.80007352643E+01  0.42775642424E+02  0.44540044295E+02  0.00000000000E+00 0.  1.
</event>
<event>
 7    1  0.1756449E-015  0.9000748E+02  0.7816164E-02  0.1186340E+00
        -11   -1    0    0    0    0  0.00000000000E+00  0.00000000000E+00  0.45593999997E+02  0.45594000000E+02  0.51100000000E-03 0.  1.
         11   -1    0    0    0    0 -0.00000000000E+00 -0.00000000000E+00 -0.45593999997E+02  0.45594000000E+02  0.51100000000E-03 0. -1.
    9900012    2    1    2    0    0 -0.41490472915E+00  0.98102547830E+00 -0.50899448377E+00  0.90007477951E+02  0.89999735860E+02 0.  0.
        -12    1    1    2    0    0  0.41490472915E+00 -0.98102547830E+00  0.50899448377E+00  0.11805220489E+01  0.00000000000E+00 0.  1.
         11    1    3    3    0    0 -0.45283472342E+01  0.46892973885E+01 -0.31334159641E+01  0.72328234139E+01  0.51100000000E-03 0. -1.
        -11    1    3    3    0    0  0.36122223635E+02  0.20606302888E+02 -0.49191992194E+01  0.41876404815E+02  0.51100000000E-03 0.  1.
         12    1    3    3    0    0 -0.32008781130E+02 -0.24314574799E+02  0.75436206997E+01  0.40898249722E+02  0.00000000000E+00 0. -1.
</event>
<event>
 7    1  0.1756449E-015  0.9000774E+02  0.7816164E-02  0.1186339E+00
        -11   -1    0    0    0    0  0.00000000000E+00  0.00000000000E+00  0.45593999997E+02  0.45594000000E+02  0.51100000000E-03 0. -1.
         11   -1    0    0    0    0 -0.00000000000E+00 -0.00000000000E+00 -0.45593999997E+02  0.45594000000E+02  0.51100000000E-03 0.  1.
    9900012    2    1    2    0    0  0.94958910893E+00 -0.41122586343E+00  0.56761456313E+00  0.90007740504E+02  0.90000001878E+02 0.  0.
        -12    1    1    2    0    0 -0.94958910893E+00  0.41122586343E+00 -0.56761456313E+00  0.11802594964E+01  0.00000000000E+00 0.  1.
         11    1    3    3    0    0  0.31370760155E+02 -0.19427572231E+02 -0.55658351669E+01  0.37316667547E+02  0.51100000000E-03 0. -1.
        -11    1    3    3    0    0  0.28902200262E+01 -0.69659219655E+01 -0.49428365304E+01  0.90171544213E+01  0.51100000000E-03 0.  1.
        -12    1    3    3    0    0 -0.33311391072E+02  0.25982268333E+02  0.11076286260E+02  0.43673918535E+02  0.00000000000E+00 0.  1.
</event>
<event>
 7    1  0.1756449E-015  0.9000776E+02  0.7816164E-02  0.1186339E+00
        -11   -1    0    0    0    0  0.00000000000E+00  0.00000000000E+00  0.45593999997E+02  0.45594000000E+02  0.51100000000E-03 0.  1.
         11   -1    0    0    0    0 -0.00000000000E+00 -0.00000000000E+00 -0.45593999997E+02  0.45594000000E+02  0.51100000000E-03 0. -1.
    9900012    2    1    2    0    0  0.35659369840E+00  0.98611870255E+00 -0.54164103272E+00  0.90007760969E+02  0.90000022614E+02 0.  0.
        -12    1    1    2    0    0 -0.35659369840E+00 -0.98611870255E+00  0.54164103272E+00  0.11802390307E+01  0.00000000000E+00 0.  1.
         11    1    3    3    0    0  0.76885506605E+01 -0.79299171627E+00 -0.26721311671E+01  0.81781986009E+01  0.51100000000E-03 0. -1.
        -11    1    3    3    0    0 -0.35555553234E+02 -0.24392663540E+02  0.39275869806E+01  0.43296943774E+02  0.51100000000E-03 0.  1.
         12    1    3    3    0    0  0.28223596272E+02  0.26171773959E+02 -0.17970968462E+01  0.38532618595E+02  0.00000000000E+00 0. -1.
</event>
<event>
 7    1  0.1756449E-015  0.9000777E+02  0.7816164E-02  0.1186339E+00
        -11   -1    0    0    0    0  0.00000000000E+00  0.00000000000E+00  0.45593999997E+02  0.45594000000E+02  0.51100000000E-03 0.  1.
         11   -1    0    0    0    0 -0.00000000000E+00 -0.00000000000E+00 -0.45593999997E+02  0.45594000000E+02  0.51100000000E-03 0. -1.
    9900012    2    1    2    0    0 -0.10606786471E+01  0.50731236036E+00  0.10270353561E+00  0.90007765684E+02  0.90000027391E+02 0.  0.
        -12    1    1    2    0    0  0.10606786471E+01 -0.50731236036E+00 -0.10270353561E+00  0.11802343156E+01  0.00000000000E+00 0.  1.
         11    1    3    3    0    0 -0.83797162339E+01  0.35902523479E+02 -0.63402783140E+01  0.37408688371E+02  0.51100000000E-03 0. -1.
        -11    1    3    3    0    0 -0.16479526833E+01  0.60630401652E+01  0.79772421223E+01  0.10154437268E+02  0.51100000000E-03 0.  1.
        -12    1    3    3    0    0  0.89669902700E+01 -0.41458251283E+02 -0.15342602726E+01  0.42444640045E+02  0.00000000000E+00 0.  1.
</event>
<event>
 7    1  0.1756449E-015  0.9000727E+02  0.7816164E-02  0.1186340E+00
        -11   -1    0    0    0    0  0.00000000000E+00  0.00000000000E+00  0.45593999997E+02  0.45594000000E+02  0.51100000000E-03 0.  1.
         11   -1    0    0    0    0 -0.00000000000E+00 -0.00000000000E+00 -0.45593999997E+02  0.45594000000E+02  0.51100000000E-03 0. -1.
    9900012    2    1    2    0    0 -0.65979872913E+00  0.15843980452E+00 -0.96627840144E+00  0.90007266548E+02  0.89999521666E+02 0.  0.
        -12    1    1    2    0    0  0.65979872913E+00 -0.15843980452E+00  0.96627840144E+00  0.11807334516E+01  0.00000000000E+00 0.  1.
         11    1    3    3    0    0 -0.25210533257E+01  0.24485047170E+02 -0.23258167721E+02  0.33864666111E+02  0.51100000000E-03 0. -1.
        -11    1    3    3    0    0  0.13037451520E+00  0.11902035019E+02 -0.25604215974E+01  0.12175023373E+02  0.51100000000E-03 0.  1.
        -12    1    3    3    0    0  0.17308800814E+01 -0.36228642385E+02  0.24852310917E+02  0.43967577064E+02  0.00000000000E+00 0.  1.
</event>
<event>
 7    1  0.1756449E-015  0.9000791E+02  0.7816164E-02  0.1186339E+00
        -11   -1    0    0    0    0  0.00000000000E+00  0.00000000000E+00  0.45593999997E+02  0.45594000000E+02  0.51100000000E-03 0.  1.
         11   -1    0    0    0    0 -0.00000000000E+00 -0.00000000000E+00 -0.45593999997E+02  0.45594000000E+02  0.51100000000E-03 0. -1.
    9900012    2    1    2    0    0 -0.56705473669E+00 -0.35482917039E+00 -0.97219820309E+00  0.90007905020E+02  0.90000168567E+02 0.  0.
        -12    1    1    2    0    0  0.56705473669E+00  0.35482917039E+00  0.97219820309E+00  0.11800949795E+01  0.00000000000E+00 0.  1.
         11    1    3    3    0    0 -0.32191260336E+01 -0.19669460562E+02 -0.32756505880E+02  0.38343697382E+02  0.51100000000E-03 0. -1.
        -11    1    3    3    0    0 -0.99688020588E+01 -0.51401978347E+00 -0.23168716605E+01  0.10247396029E+02  0.51100000000E-03 0.  1.
        -12    1    3    3    0    0  0.12620873356E+02  0.19828651175E+02  0.34101179337E+02  0.41416811609E+02  0.00000000000E+00 0.  1.
</event>
<event>
 7    1  0.1756449E-015  0.9000776E+02  0.7816164E-02  0.1186339E+00
        -11   -1    0    0    0    0  0.00000000000E+00  0.00000000000E+00  0.45593999997E+02  0.45594000000E+02  0.51100000000E-03 0. -1.
         11   -1    0    0    0    0 -0.00000000000E+00 -0.00000000000E+00 -0.45593999997E+02  0.45594000000E+02  0.51100000000E-03 0.  1.
    9900012    2    1    2    0    0  0.10165535724E+01 -0.32401882834E+00  0.50457665009E+00  0.90007759786E+02  0.90000021415E+02 0.  0.
        -12    1    1    2    0    0 -0.10165535724E+01  0.32401882834E+00 -0.50457665009E+00  0.11802402139E+01  0.00000000000E+00 0.  1.
         11    1    3    3    0    0 -0.35505096263E+02 -0.11596843783E+02  0.20722426868E+02  0.42714372545E+02  0.51100000000E-03 0. -1.
        -11    1    3    3    0    0  0.69655749730E+01 -0.53674685134E+01 -0.50204702487E+01  0.10125911057E+02  0.51100000000E-03 0.  1.
        -12    1    3    3    0    0  0.29556074863E+02  0.16640293468E+02 -0.15197379969E+02  0.37167476184E+02  0.00000000000E+00 0.  1.
</event>
<event>
 7    1  0.1756449E-015  0.9000777E+02  0.7816164E-02  0.1186339E+00
        -11   -1    0    0    0    0  0.00000000000E+00  0.00000000000E+00  0.45593999997E+02  0.45594000000E+02  0.51100000000E-03 0. -1.
         11   -1    0    0    0    0 -0.00000000000E+00 -0.00000000000E+00 -0.45593999997E+02  0.45594000000E+02  0.51100000000E-03 0.  1.
    9900012    2    1    2    0    0 -0.10835004135E+01 -0.64449147513E-02  0.46790902904E+00  0.90007765471E+02  0.90000027176E+02 0.  0.
        -12    1    1    2    0    0  0.10835004135E+01  0.64449147513E-02 -0.46790902904E+00  0.11802345285E+01  0.00000000000E+00 0.  1.
         11    1    3    3    0    0 -0.25844210098E+01  0.22059580160E+00 -0.96452622675E+01  0.99879416766E+01  0.51100000000E-03 0. -1.
        -11    1    3    3    0    0  0.14889923954E+02 -0.25035924338E+02 -0.22576003048E+02  0.36853537913E+02  0.51100000000E-03 0.  1.
         12    1    3    3    0    0 -0.13389003357E+02  0.24808883622E+02  0.32689174345E+02  0.43166285882E+02  0.00000000000E+00 0. -1.
</event>
<event>
 7    1  0.1756449E-015  0.9000779E+02  0.7816164E-02  0.1186339E+00
        -11   -1    0    0    0    0  0.00000000000E+00  0.00000000000E+00  0.45593999997E+02  0.45594000000E+02  0.51100000000E-03 0.  1.
         11   -1    0    0    0    0 -0.00000000000E+00 -0.00000000000E+00 -0.45593999997E+02  0.45594000000E+02  0.51100000000E-03 0. -1.
    9900012    2    1    2    0    0  0.95735432034E+00  0.49917730298E+00 -0.47665485161E+00  0.90007785985E+02  0.90000047960E+02 0.  0.
        -12    1    1    2    0    0 -0.95735432034E+00 -0.49917730298E+00  0.47665485161E+00  0.11802140154E+01  0.00000000000E+00 0.  1.
         11    1    3    3    0    0  0.40698919615E+01  0.20661672759E+02 -0.34421356974E+02  0.40352181577E+02  0.51100000000E-03 0. -1.
        -11    1    3    3    0    0 -0.83641969082E+01  0.30992040057E+01  0.98581626604E+00  0.89742236077E+01  0.51100000000E-03 0.  1.
        -12    1    3    3    0    0  0.52516592671E+01 -0.23261699462E+02  0.32958885857E+02  0.40681380800E+02  0.00000000000E+00 0.  1.
</event>
<event>
 7    1  0.1756449E-015  0.9000779E+02  0.7816164E-02  0.1186339E+00
        -11   -1    0    0    0    0  0.00000000000E+00  0.00000000000E+00  0.45593999997E+02  0.45594000000E+02  0.51100000000E-03 0.  1.
         11   -1    0    0    0    0 -0.00000000000E+00 -0.00000000000E+00 -0.45593999997E+02  0.45594000000E+02  0.51100000000E-03 0. -1.
    9900012    2    1    2    0    0 -0.89623494205E+00 -0.39874953707E+00  0.65624896999E+00  0.90007787741E+02  0.90000049740E+02 0.  0.
        -12    1    1    2    0    0  0.89623494205E+00  0.39874953707E+00 -0.65624896999E+00  0.11802122586E+01  0.00000000000E+00 0.  1.
         11    1    3    3    0    0  0.14929607616E+02 -0.19713448732E+02 -0.29640751894E+02  0.38601650452E+02  0.51100000000E-03 0. -1.
        -11    1    3    3    0    0  0.16270870220E+01  0.58862863130E+01 -0.62494939818E+01  0.87379605186E+01  0.51100000000E-03 0.  1.
        -12    1    3    3    0    0 -0.17452929580E+02  0.13428412882E+02  0.36546494846E+02  0.42668176771E+02  0.00000000000E+00 0.  1.
</event>
<event>
 7    1  0.1756449E-015  0.9000783E+02  0.7816164E-02  0.1186339E+00
        -11   -1    0    0    0    0  0.00000000000E+00  0.00000000000E+00  0.45593999997E+02  0.45594000000E+02  0.51100000000E-03 0. -1.
         11   -1    0    0    0    0 -0.00000000000E+00 -0.00000000000E+00 -0.45593999997E+02  0.45594000000E+02  0.51100000000E-03 0.  1.
    9900012    2    1    2    0    0 -0.28756121748E+00 -0.89004708260E+00  0.71967866768E+00  0.90007825162E+02  0.90000087654E+02 0.  0.
        -12    1    1    2    0    0  0.28756121748E+00  0.89004708260E+00 -0.71967866768E+00  0.11801748378E+01  0.00000000000E+00 0.  1.
         11    1    3    3    0    0 -0.26374685735E+01  0.82365060232E+01  0.18633878050E+00  0.86504909889E+01  0.51100000000E-03 0. -1.
        -11    1    3    3    0    0 -0.93846096089E+01 -0.69255383987E+01 -0.38662513488E+02  0.40383461084E+02  0.51100000000E-03 0.  1.
         12    1    3    3    0    0  0.11734516965E+02 -0.22010147071E+01  0.39195853375E+02  0.40973873090E+02  0.00000000000E+00 0. -1.
</event>
<event>
 7    1  0.1756449E-015  0.9000768E+02  0.7816164E-02  0.1186339E+00
        -11   -1    0    0    0    0  0.00000000000E+00  0.00000000000E+00  0.45593999997E+02  0.45594000000E+02  0.51100000000E-03 0. -1.
         11   -1    0    0    0    0 -0.00000000000E+00 -0.00000000000E+00 -0.45593999997E+02  0.45594000000E+02  0.51100000000E-03 0.  1.
    9900012    2    1    2    0    0  0.77356321784E+00 -0.25032996460E+00  0.85562630137E+00  0.90007677370E+02  0.89999937911E+02 0.  0.
        -12    1    1    2    0    0 -0.77356321784E+00  0.25032996460E+00 -0.85562630137E+00  0.11803226299E+01  0.00000000000E+00 0.  1.
         11    1    3    3    0    0 -0.32878879923E+02  0.13869618718E+02  0.12324109733E+02  0.37752758169E+02  0.51100000000E-03 0. -1.
        -11    1    3    3    0    0 -0.35916389209E+01 -0.77538272723E+01  0.61863143020E+01  0.10549511477E+02  0.51100000000E-03 0.  1.
        -12    1    3    3    0    0  0.37244082061E+02 -0.63661214105E+01 -0.17654797734E+02  0.41705407724E+02  0.00000000000E+00 0.  1.
</event>
<event>
 7    1  0.1756449E-015  0.9000765E+02  0.7816164E-02  0.1186339E+00
        -11   -1    0    0    0    0  0.00000000000E+00  0.00000000000E+00  0.45593999997E+02  0.45594000000E+02  0.51100000000E-03 0.  1.
         11   -1    0    0    0    0 -0.00000000000E+00 -0.00000000000E+00 -0.45593999997E+02  0.45594000000E+02  0.51100000000E-03 0. -1.
    9900012    2    1    2    0    0 -0.49234828539E+00  0.27678394073E+00 -0.10364449466E+01  0.90007646531E+02  0.89999906665E+02 0.  0.
        -12    1    1    2    0    0  0.49234828539E+00 -0.27678394073E+00  0.10364449466E+01  0.11803534688E+01  0.00000000000E+00 0.  1.
         11    1    3    3    0    0 -0.19890304662E+02  0.29124278864E+02 -0.19289521183E+02  0.40198674936E+02  0.51100000000E-03 0. -1.
        -11    1    3    3    0    0 -0.77666647609E+01 -0.28279870392E+01  0.68722042785E+00  0.82940258246E+01  0.51100000000E-03 0.  1.
        -12    1    3    3    0    0  0.27164621137E+02 -0.26019507884E+02  0.17565855809E+02  0.41514945771E+02  0.00000000000E+00 0.  1.
</event>
<event>
 7    1  0.1756449E-015  0.9000783E+02  0.7816164E-02  0.1186339E+00
        -11   -1    0    0    0    0  0.00000000000E+00  0.00000000000E+00  0.45593999997E+02  0.45594000000E+02  0.51100000000E-03 0.  1.
         11   -1    0    0    0    0 -0.00000000000E+00 -0.00000000000E+00 -0.45593999997E+02  0.45594000000E+02  0.51100000000E-03 0. -1.
    9900012    2    1    2    0    0  0.34896268943E+00 -0.21201026332E+00 -0.11072814011E+01  0.90007832465E+02  0.90000095053E+02 0.  0.
        -12    1    1    2    0    0 -0.34896268943E+00  0.21201026332E+00  0.11072814011E+01  0.11801675354E+01  0.00000000000E+00 0.  1.
         11    1    3    3    0    0  0.30816251175E-01 -0.45592405640E+01  0.82535782612E+01  0.94291663754E+01  0.51100000000E-03 0. -1.
        -11    1    3    3    0    0  0.12003362105E+02  0.41504230973E+01  0.33671702187E+02  0.35987362256E+02  0.51100000000E-03 0.  1.
         12    1    3    3    0    0 -0.11685215667E+02  0.19680720338E+00 -0.43032561849E+02  0.44591303833E+02  0.00000000000E+00 0. -1.
</event>
<event>
 7    1  0.1756449E-015  0.9000773E+02  0.7816164E-02  0.1186339E+00
        -11   -1    0    0    0    0  0.00000000000E+00  0.00000000000E+00  0.45593999997E+02  0.45594000000E+02  0.51100000000E-03 0. -1.
         11   -1    0    0    0    0 -0.00000000000E+00 -0.00000000000E+00 -0.45593999997E+02  0.45594000000E+02  0.51100000000E-03 0.  1.
    9900012    2    1    2    0    0 -0.93976413290E+00 -0.31889810964E+00  0.63889068201E+00  0.90007731415E+02  0.89999992669E+02 0.  0.
        -12    1    1    2    0    0  0.93976413290E+00  0.31889810964E+00 -0.63889068201E+00  0.11802685853E+01  0.00000000000E+00 0.  1.
         11    1    3    3    0    0 -0.82078369510E+01 -0.97526554086E+01  0.60651725680E+01  0.14116274065E+02  0.51100000000E-03 0. -1.
        -11    1    3    3    0    0 -0.10135731101E+02 -0.15846399155E+02  0.25916847787E+02  0.32023810058E+02  0.51100000000E-03 0.  1.
         12    1    3    3    0    0  0.17403803919E+02  0.25280156454E+02 -0.31343129673E+02  0.43867647292E+02  0.00000000000E+00 0. -1.
</event>
<event>
 7    1  0.1756449E-015  0.9000788E+02  0.7816164E-02  0.1186339E+00
        -11   -1    0    0    0    0  0.00000000000E+00  0.00000000000E+00  0.45593999997E+02  0.45594000000E+02  0.51100000000E-03 0.  1.
         11   -1    0    0    0    0 -0.00000000000E+00 -0.00000000000E+00 -0.45593999997E+02  0.45594000000E+02  0.51100000000E-03 0. -1.
    9900012    2    1    2    0    0 -0.67788854013E+00 -0.72574143195E+00 -0.63752664302E+00  0.90007884023E+02  0.90000147292E+02 0.  0.
        -12    1    1    2    0    0  0.67788854013E+00  0.72574143195E+00  0.63752664302E+00  0.11801159771E+01  0.00000000000E+00 0.  1.
         11    1    3    3    0    0 -0.25602080373E+02  0.27751616635E+02 -0.36170019162E+01  0.37930218144E+02  0.51100000000E-03 0. -1.
        -11    1    3    3    0    0  0.85231308279E+00  0.62346841813E+01 -0.62174388170E+01  0.88461443656E+01  0.51100000000E-03 0.  1.
        -12    1    3    3    0    0  0.24071878750E+02 -0.34712042248E+02  0.91969140902E+01  0.43231521514E+02  0.00000000000E+00 0.  1.
</event>
<event>
 7    1  0.1756449E-015  0.9000774E+02  0.7816164E-02  0.1186339E+00
        -11   -1    0    0    0    0  0.00000000000E+00  0.00000000000E+00  0.45593999997E+02  0.45594000000E+02  0.51100000000E-03 0. -1.
         11   -1    0    0    0    0 -0.00000000000E+00 -0.00000000000E+00 -0.45593999997E+02  0.45594000000E+02  0.51100000000E-03 0.  1.
    9900012    2    1    2    0    0 -0.73406357120E+00 -0.90878071406E+00  0.16819198245E+00  0.90007737209E+02  0.89999998540E+02 0.  0.
        -12    1    1    2    0    0  0.73406357120E+00  0.90878071406E+00 -0.16819198245E+00  0.11802627910E+01  0.00000000000E+00 0.  1.
         11    1    3    3    0    0 -0.22304414733E+01  0.11056179655E+02 -0.47298337167E+01  0.12230507143E+02  0.51100000000E-03 0. -1.
        -11    1    3    3    0    0  0.29448158362E+02  0.42179749985E+01  0.25739387269E+02  0.39338294336E+02  0.51100000000E-03 0.  1.
         12    1    3    3    0    0 -0.27951780460E+02 -0.16182935367E+02 -0.20841361570E+02  0.38438935730E+02  0.00000000000E+00 0. -1.
</event>
<event>
 7    1  0.1998030E-015  0.9000775E+02  0.7816164E-02  0.1186339E+00
        -11   -1    0    0    0    0  0.00000000000E+00  0.00000000000E+00  0.45593999997E+02  0.45594000000E+02  0.51100000000E-03 0.  1.
         11   -1    0    0    0    0 -0.00000000000E+00 -0.00000000000E+00 -0.45593999997E+02  0.45594000000E+02  0.51100000000E-03 0. -1.
    9900012    2    1    2    0    0  0.67361426402E-01  0.10619795725E+01 -0.51055019955E+00  0.90007745925E+02  0.90000007372E+02 0.  0.
        -12    1    1    2    0    0 -0.67361426402E-01 -0.10619795725E+01  0.51055019955E+00  0.11802540745E+01  0.00000000000E+00 0.  1.
         11    1    3    3    0    0 -0.84511120511E+01 -0.35531726872E+01  0.20202007329E+01  0.93876270861E+01  0.51100000000E-03 0. -1.
        -11    1    3    3    0    0  0.10222154762E+02 -0.30665889165E+02  0.20662102325E+02  0.38364197880E+02  0.51100000000E-03 0.  1.
         12    1    3    3    0    0 -0.17036812848E+01  0.35281041424E+02 -0.23192853257E+02  0.42255920959E+02  0.00000000000E+00 0. -1.
</event>
<event>
 7    1  0.1756449E-015  0.9000778E+02  0.7816164E-02  0.1186339E+00
        -11   -1    0    0    0    0  0.00000000000E+00  0.00000000000E+00  0.45593999997E+02  0.45594000000E+02  0.51100000000E-03 0.  1.
         11   -1    0    0    0    0 -0.00000000000E+00 -0.00000000000E+00 -0.45593999997E+02  0.45594000000E+02  0.51100000000E-03 0. -1.
    9900012    2    1    2    0    0 -0.21719722903E-01  0.10957059540E+01 -0.43802552320E+00  0.90007784069E+02  0.90000046019E+02 0.  0.
        -12    1    1    2    0    0  0.21719722903E-01 -0.10957059540E+01  0.43802552320E+00  0.11802159306E+01  0.00000000000E+00 0.  1.
         11    1    3    3    0    0 -0.39098427920E+01  0.27789820381E+01  0.77713000350E+01  0.91325087638E+01  0.51100000000E-03 0. -1.
        -11    1    3    3    0    0 -0.19192957238E+02 -0.11416614075E+02  0.28640357721E+02  0.36317747385E+02  0.51100000000E-03 0.  1.
         12    1    3    3    0    0  0.23081080307E+02  0.97333379910E+01 -0.36849683279E+02  0.44557527920E+02  0.00000000000E+00 0. -1.
</event>
<event>
 7    1  0.1756449E-015  0.9000758E+02  0.7816164E-02  0.1186339E+00
        -11   -1    0    0    0    0  0.00000000000E+00  0.00000000000E+00  0.45593999997E+02  0.45594000000E+02  0.51100000000E-03 0. -1.
         11   -1    0    0    0    0 -0.00000000000E+00 -0.00000000000E+00 -0.45593999997E+02  0.45594000000E+02  0.51100000000E-03 0.  1.
    9900012    2    1    2    0    0  0.10000599827E+01 -0.34637907976E+00  0.52276671044E+00  0.90007583349E+02  0.89999842649E+02 0.  0.
        -12    1    1    2    0    0 -0.10000599827E+01  0.34637907976E+00 -0.52276671044E+00  0.11804166508E+01  0.00000000000E+00 0.  1.
         11    1    3    3    0    0 -0.13068568031E+02 -0.32261492299E+02  0.20796153283E+02  0.40547149682E+02  0.51100000000E-03 0. -1.
        -11    1    3    3    0    0 -0.39546514089E+01  0.55227729473E+01  0.52298042969E+01  0.85726974774E+01  0.51100000000E-03 0.  1.
        -12    1    3    3    0    0  0.18023279423E+02  0.26392340272E+02 -0.25503190869E+02  0.40887736189E+02  0.00000000000E+00 0.  1.
</event>
<event>
 7    1  0.1756449E-015  0.9000775E+02  0.7816164E-02  0.1186339E+00
        -11   -1    0    0    0    0  0.00000000000E+00  0.00000000000E+00  0.45593999997E+02  0.45594000000E+02  0.51100000000E-03 0.  1.
         11   -1    0    0    0    0 -0.00000000000E+00 -0.00000000000E+00 -0.45593999997E+02  0.45594000000E+02  0.51100000000E-03 0. -1.
    9900012    2    1    2    0    0  0.78104326565E+00  0.88418159705E+00  0.34298165345E-01  0.90007753397E+02  0.90000014942E+02 0.  0.
        -12    1    1    2    0    0 -0.78104326565E+00 -0.88418159705E+00 -0.34298165345E-01  0.11802466028E+01  0.00000000000E+00 0.  1.
         11    1    3    3    0    0 -0.31792641827E+01  0.55357457917E+01 -0.59640988567E+01  0.87362851171E+01  0.51100000000E-03 0. -1.
        -11    1    3    3    0    0 -0.37150367832E+02 -0.11575434496E+02 -0.13680360988E+01  0.38935999240E+02  0.51100000000E-03 0.  1.
         12    1    3    3    0    0  0.41110675280E+02  0.69238703012E+01  0.73664331209E+01  0.42335469040E+02  0.00000000000E+00 0. -1.
</event>
<event>
 7    1  0.1756449E-015  0.9000771E+02  0.7816164E-02  0.1186339E+00
        -11   -1    0    0    0    0  0.00000000000E+00  0.00000000000E+00  0.45593999997E+02  0.45594000000E+02  0.51100000000E-03 0.  1.
         11   -1    0    0    0    0 -0.00000000000E+00 -0.00000000000E+00 -0.45593999997E+02  0.45594000000E+02  0.51100000000E-03 0. -1.
    9900012    2    1    2    0    0 -0.10225069390E+01  0.57674620152E+00  0.12218787672E+00  0.90007709147E+02  0.89999970107E+02 0.  0.
        -12    1    1    2    0    0  0.10225069390E+01 -0.57674620152E+00 -0.12218787672E+00  0.11802908534E+01  0.00000000000E+00 0.  1.
         11    1    3    3    0    0  0.39693206334E+01  0.41502671974E+00 -0.93294549894E+01  0.10147240222E+02  0.51100000000E-03 0. -1.
        -11    1    3    3    0    0 -0.15827955204E+02  0.28547361983E+02  0.29056590740E+02  0.43700818160E+02  0.51100000000E-03 0.  1.
         12    1    3    3    0    0  0.10836127632E+02 -0.28385642501E+02 -0.19604947874E+02  0.36159650764E+02  0.00000000000E+00 0. -1.
</event>
<event>
 7    1  0.1756449E-015  0.9000773E+02  0.7816164E-02  0.1186339E+00
        -11   -1    0    0    0    0  0.00000000000E+00  0.00000000000E+00  0.45593999997E+02  0.45594000000E+02  0.51100000000E-03 0. -1.
         11   -1    0    0    0    0 -0.00000000000E+00 -0.00000000000E+00 -0.45593999997E+02  0.45594000000E+02  0.51100000000E-03 0.  1.
    9900012    2    1    2    0    0  0.50825318615E+00 -0.10471354260E+01 -0.19550824636E+00  0.90007729956E+02  0.89999991192E+02 0.  0.
        -12    1    1    2    0    0 -0.50825318615E+00  0.10471354260E+01  0.19550824636E+00  0.11802700437E+01  0.00000000000E+00 0.  1.
         11    1    3    3    0    0  0.20198323041E+02 -0.20891467842E+02  0.27483700894E+02  0.39997243622E+02  0.51100000000E-03 0. -1.
        -11    1    3    3    0    0 -0.82717600734E+01 -0.24742834078E+01  0.40795519387E+01  0.95491799321E+01  0.51100000000E-03 0.  1.
        -12    1    3    3    0    0 -0.11418309781E+02  0.22318615824E+02 -0.31758761079E+02  0.40461306403E+02  0.00000000000E+00 0.  1.
</event>
<event>
 7    1  0.1756449E-015  0.9000781E+02  0.7816164E-02  0.1186339E+00
        -11   -1    0    0    0    0  0.00000000000E+00  0.00000000000E+00  0.45593999997E+02  0.45594000000E+02  0.51100000000E-03 0.  1.
         11   -1    0    0    0    0 -0.00000000000E+00 -0.00000000000E+00 -0.45593999997E+02  0.45594000000E+02  0.51100000000E-03 0. -1.
    9900012    2    1    2    0    0 -0.14621615583E+00 -0.95635754475E+00 -0.67591456157E+00  0.90007805350E+02  0.90000067580E+02 0.  0.
        -12    1    1    2    0    0  0.14621615583E+00  0.95635754475E+00  0.67591456157E+00  0.11801946501E+01  0.00000000000E+00 0.  1.
         11    1    3    3    0    0  0.99006437115E+01  0.31370508536E+01  0.21747509563E+01  0.10611002589E+02  0.51100000000E-03 0. -1.
        -11    1    3    3    0    0  0.63714764606E+01  0.13001891689E+02  0.33218371711E+02  0.36236792341E+02  0.51100000000E-03 0.  1.
         12    1    3    3    0    0 -0.16418336328E+02 -0.17095300087E+02 -0.36069037229E+02  0.43160010420E+02  0.00000000000E+00 0. -1.
</event>
<event>
 7    1  0.1756449E-015  0.9000751E+02  0.7816164E-02  0.1186340E+00
        -11   -1    0    0    0    0  0.00000000000E+00  0.00000000000E+00  0.45593999997E+02  0.45594000000E+02  0.51100000000E-03 0.  1.
         11   -1    0    0    0    0 -0.00000000000E+00 -0.00000000000E+00 -0.45593999997E+02  0.45594000000E+02  0.51100000000E-03 0. -1.
    9900012    2    1    2    0    0 -0.85725710364E+00 -0.79689726444E+00  0.15372246334E+00  0.90007506210E+02  0.89999764492E+02 0.  0.
        -12    1    1    2    0    0  0.85725710364E+00  0.79689726444E+00 -0.15372246334E+00  0.11804937897E+01  0.00000000000E+00 0.  1.
         11    1    3    3    0    0  0.32279386206E+02  0.19026972378E+02 -0.39203246526E+01  0.37674306860E+02  0.51100000000E-03 0. -1.
        -11    1    3    3    0    0  0.31398791978E+01 -0.62314855964E+01 -0.90530617261E+01  0.11430143525E+02  0.51100000000E-03 0.  1.
        -12    1    3    3    0    0 -0.36276522508E+02 -0.13592384046E+02  0.13127108842E+02  0.40903055826E+02  0.00000000000E+00 0.  1.
</event>
<event>
 7    1  0.1756449E-015  0.9000783E+02  0.7816164E-02  0.1186339E+00
        -11   -1    0    0    0    0  0.00000000000E+00  0.00000000000E+00  0.45593999997E+02  0.45594000000E+02  0.51100000000E-03 0. -1.
         11   -1    0    0    0    0 -0.00000000000E+00 -0.00000000000E+00 -0.45593999997E+02  0.45594000000E+02  0.51100000000E-03 0.  1.
    9900012    2    1    2    0    0  0.34635838778E+00  0.22096566336E+00  0.11063483023E+01  0.90007831994E+02  0.90000094576E+02 0.  0.
        -12    1    1    2    0    0 -0.34635838778E+00 -0.22096566336E+00 -0.11063483023E+01  0.11801680063E+01  0.00000000000E+00 0.  1.
         11    1    3    3    0    0  0.57931593314E+01  0.37686792495E+02 -0.14804668839E+02  0.40902729045E+02  0.51100000000E-03 0. -1.
        -11    1    3    3    0    0  0.68889553009E+01 -0.74085863024E+01 -0.41344679693E+01  0.10928800565E+02  0.51100000000E-03 0.  1.
        -12    1    3    3    0    0 -0.12335756245E+02 -0.30057240529E+02  0.20045485111E+02  0.38176302384E+02  0.00000000000E+00 0.  1.
</event>
<event>
 7    1  0.1756449E-015  0.9000768E+02  0.7816164E-02  0.1186339E+00
        -11   -1    0    0    0    0  0.00000000000E+00  0.00000000000E+00  0.45593999997E+02  0.45594000000E+02  0.51100000000E-03 0.  1.
         11   -1    0    0    0    0 -0.00000000000E+00 -0.00000000000E+00 -0.45593999997E+02  0.45594000000E+02  0.51100000000E-03 0. -1.
    9900012    2    1    2    0    0 -0.17927378174E+00  0.39750857095E+00 -0.10968111156E+01  0.90007683612E+02  0.89999944236E+02 0.  0.
        -12    1    1    2    0    0  0.17927378174E+00 -0.39750857095E+00  0.10968111156E+01  0.11803163881E+01  0.00000000000E+00 0.  1.
         11    1    3    3    0    0  0.48237187955E+01  0.30083137962E+02 -0.21757924233E+02  0.37438893144E+02  0.51100000000E-03 0. -1.
        -11    1    3    3    0    0  0.19719208946E+01 -0.29826991796E+00 -0.96051507078E+01  0.98100131161E+01  0.51100000000E-03 0.  1.
        -12    1    3    3    0    0 -0.69749134718E+01 -0.29387359473E+02  0.30266263825E+02  0.42758777352E+02  0.00000000000E+00 0.  1.
</event>
<event>
 7    1  0.1756449E-015  0.9000775E+02  0.7816164E-02  0.1186339E+00
        -11   -1    0    0    0    0  0.00000000000E+00  0.00000000000E+00  0.45593999997E+02  0.45594000000E+02  0.51100000000E-03 0.  1.
         11   -1    0    0    0    0 -0.00000000000E+00 -0.00000000000E+00 -0.45593999997E+02  0.45594000000E+02  0.51100000000E-03 0. -1.
    9900012    2    1    2    0    0 -0.43441137360E+00  0.79929749636E+00 -0.75192656655E+00  0.90007752869E+02  0.90000014407E+02 0.  0.
        -12    1    1    2    0    0  0.43441137360E+00 -0.79929749636E+00  0.75192656655E+00  0.11802471312E+01  0.00000000000E+00 0.  1.
         11    1    3    3    0    0 -0.94794028841E+01 -0.10645611878E+02 -0.33252316765E+02  0.36178788009E+02  0.51100000000E-03 0. -1.
        -11    1    3    3    0    0 -0.90110104240E+00  0.44003028946E+01 -0.92785234311E+01  0.10308522977E+02  0.51100000000E-03 0.  1.
        -12    1    3    3    0    0  0.99460925529E+01  0.70446064797E+01  0.41778913630E+02  0.43520441882E+02  0.00000000000E+00 0.  1.
</event>
<event>
 7    1  0.1756449E-015  0.9000787E+02  0.7816164E-02  0.1186339E+00
        -11   -1    0    0    0    0  0.00000000000E+00  0.00000000000E+00  0.45593999997E+02  0.45594000000E+02  0.51100000000E-03 0.  1.
         11   -1    0    0    0    0 -0.00000000000E+00 -0.00000000000E+00 -0.45593999997E+02  0.45594000000E+02  0.51100000000E-03 0. -1.
    9900012    2    1    2    0    0  0.41932305858E+00 -0.11023176324E+01  0.42180713946E-01  0.90007866447E+02  0.90000129484E+02 0.  0.
        -12    1    1    2    0    0 -0.41932305858E+00  0.11023176324E+01 -0.42180713946E-01  0.11801335529E+01  0.00000000000E+00 0.  1.
         11    1    3    3    0    0 -0.59122710454E+01 -0.88557369756E+01 -0.39373397497E+00  0.10655235943E+02  0.51100000000E-03 0. -1.
        -11    1    3    3    0    0  0.15216334009E+02 -0.20279488550E+02  0.28887012010E+02  0.38435061333E+02  0.51100000000E-03 0.  1.
         12    1    3    3    0    0 -0.88847399046E+01  0.28032907894E+02 -0.28451097321E+02  0.40917569172E+02  0.00000000000E+00 0. -1.
</event>
<event>
 7    1  0.1756449E-015  0.9000771E+02  0.7816164E-02  0.1186339E+00
        -11   -1    0    0    0    0  0.00000000000E+00  0.00000000000E+00  0.45593999997E+02  0.45594000000E+02  0.51100000000E-03 0.  1.
         11   -1    0    0    0    0 -0.00000000000E+00 -0.00000000000E+00 -0.45593999997E+02  0.45594000000E+02  0.51100000000E-03 0. -1.
    9900012    2    1    2    0    0  0.10384908250E+01 -0.53928679094E+00 -0.15422532085E+00  0.90007712371E+02  0.89999973375E+02 0.  0.
        -12    1    1    2    0    0 -0.10384908250E+01  0.53928679094E+00  0.15422532085E+00  0.11802876285E+01  0.00000000000E+00 0.  1.
         11    1    3    3    0    0 -0.29832226450E+02 -0.19788886567E+02  0.40615591993E+00  0.35801211284E+02  0.51100000000E-03 0. -1.
        -11    1    3    3    0    0 -0.62458577540E+01 -0.12775144502E+01  0.87068059598E+01  0.10791258154E+02  0.51100000000E-03 0.  1.
        -12    1    3    3    0    0  0.37116575029E+02  0.20527114226E+02 -0.92671872006E+01  0.43415242933E+02  0.00000000000E+00 0.  1.
</event>
<event>
 7    1  0.1756449E-015  0.9000776E+02  0.7816164E-02  0.1186339E+00
        -11   -1    0    0    0    0  0.00000000000E+00  0.00000000000E+00  0.45593999997E+02  0.45594000000E+02  0.51100000000E-03 0.  1.
         11   -1    0    0    0    0 -0.00000000000E+00 -0.00000000000E+00 -0.45593999997E+02  0.45594000000E+02  0.51100000000E-03 0. -1.
    9900012    2    1    2    0    0  0.61654476503E+00  0.92515186828E+00 -0.39616067846E+00  0.90007755657E+02  0.90000017231E+02 0.  0.
        -12    1    1    2    0    0 -0.61654476503E+00 -0.92515186828E+00  0.39616067846E+00  0.11802443433E+01  0.00000000000E+00 0.  1.
         11    1    3    3    0    0 -0.70161433800E+01  0.79000011962E+01 -0.14422317567E+01  0.10663785422E+02  0.51100000000E-03 0. -1.
        -11    1    3    3    0    0 -0.24318132237E+02 -0.11387542246E+02  0.26898694006E+02  0.38007728338E+02  0.51100000000E-03 0.  1.
         12    1    3    3    0    0  0.31950820382E+02  0.44126929185E+01 -0.25852622928E+02  0.41336241897E+02  0.00000000000E+00 0. -1.
</event>
<event>
 7    1  0.1756449E-015  0.9000771E+02  0.7816164E-02  0.1186339E+00
        -11   -1    0    0    0    0  0.00000000000E+00  0.00000000000E+00  0.45593999997E+02  0.45594000000E+02  0.51100000000E-03 0.  1.
         11   -1    0    0    0    0 -0.00000000000E+00 -0.00000000000E+00 -0.45593999997E+02  0.45594000000E+02  0.51100000000E-03 0. -1.
    9900012    2    1    2    0    0 -0.31403926141E+00 -0.11279924998E+01 -0.14861970483E+00  0.90007713783E+02  0.89999974805E+02 0.  0.
        -12    1    1    2    0    0  0.31403926141E+00  0.11279924998E+01  0.14861970483E+00  0.11802862170E+01  0.00000000000E+00 0.  1.
         11    1    3    3    0    0  0.53379217625E+01  0.34674691118E+00  0.26784889001E+01  0.59823026681E+01  0.51100000000E-03 0. -1.
        -11    1    3    3    0    0  0.18299496150E+02 -0.30365507383E+02 -0.22161283885E+02  0.41809784760E+02  0.51100000000E-03 0.  1.
         12    1    3    3    0    0 -0.23951457174E+02  0.28890767972E+02  0.19334175280E+02  0.42215626355E+02  0.00000000000E+00 0. -1.
</event>
<event>
 7    1  0.1756449E-015  0.9000778E+02  0.7816164E-02  0.1186339E+00
        -11   -1    0    0    0    0  0.00000000000E+00  0.00000000000E+00  0.45593999997E+02  0.45594000000E+02  0.51100000000E-03 0. -1.
         11   -1    0    0    0    0 -0.00000000000E+00 -0.00000000000E+00 -0.45593999997E+02  0.45594000000E+02  0.51100000000E-03 0.  1.
    9900012    2    1    2    0    0 -0.77387790830E+00 -0.89040250919E+00  0.34703298412E-01  0.90007784781E+02  0.90000046740E+02 0.  0.
        -12    1    1    2    0    0  0.77387790830E+00  0.89040250919E+00 -0.34703298412E-01  0.11802152195E+01  0.00000000000E+00 0.  1.
         11    1    3    3    0    0 -0.26069102124E-01  0.48836798228E+01  0.97114306023E+01  0.10870275655E+02  0.51100000000E-03 0. -1.
        -11    1    3    3    0    0  0.36350574792E+02 -0.14115006339E+02 -0.12654119819E+02  0.40996639378E+02  0.51100000000E-03 0.  1.
         12    1    3    3    0    0 -0.37098383598E+02  0.83409240068E+01  0.29773925156E+01  0.38140869747E+02  0.00000000000E+00 0. -1.
</event>
<event>
 7    1  0.1756449E-015  0.9000809E+02  0.7816164E-02  0.1186338E+00
        -11   -1    0    0    0    0  0.00000000000E+00  0.00000000000E+00  0.45593999997E+02  0.45594000000E+02  0.51100000000E-03 0.  1.
         11   -1    0    0    0    0 -0.00000000000E+00 -0.00000000000E+00 -0.45593999997E+02  0.45594000000E+02  0.51100000000E-03 0. -1.
    9900012    2    1    2    0    0  0.75371530734E+00  0.51709405803E+00 -0.74613480729E+00  0.90008088910E+02  0.90000354883E+02 0.  0.
        -12    1    1    2    0    0 -0.75371530734E+00 -0.51709405803E+00  0.74613480729E+00  0.11799110899E+01  0.00000000000E+00 0.  1.
         11    1    3    3    0    0 -0.10379506328E+01 -0.33661804104E+01 -0.67921466467E+01  0.76512592691E+01  0.51100000000E-03 0. -1.
        -11    1    3    3    0    0 -0.31864963217E+02  0.18046790293E+02 -0.15713880326E+02  0.39849574099E+02  0.51100000000E-03 0.  1.
         12    1    3    3    0    0  0.33656629157E+02 -0.14163515824E+02  0.21759892165E+02  0.42507255543E+02  0.00000000000E+00 0. -1.
</event>
<event>
 7    1  0.1756449E-015  0.9000772E+02  0.7816164E-02  0.1186339E+00
        -11   -1    0    0    0    0  0.00000000000E+00  0.00000000000E+00  0.45593999997E+02  0.45594000000E+02  0.51100000000E-03 0. -1.
         11   -1    0    0    0    0 -0.00000000000E+00 -0.00000000000E+00 -0.45593999997E+02  0.45594000000E+02  0.51100000000E-03 0.  1.
    9900012    2    1    2    0    0 -0.67519172131E+00  0.95909885041E+00 -0.13154882636E+00  0.90007720559E+02  0.89999981670E+02 0.  0.
        -12    1    1    2    0    0  0.67519172131E+00 -0.95909885041E+00  0.13154882636E+00  0.11802794411E+01  0.00000000000E+00 0.  1.
         11    1    3    3    0    0 -0.40510994341E+01  0.30309274003E+01  0.78551230292E+01  0.93434942926E+01  0.51100000000E-03 0. -1.
        -11    1    3    3    0    0  0.10944094236E+02  0.33672634747E+02 -0.21827083753E+02  0.41593762932E+02  0.51100000000E-03 0.  1.
         12    1    3    3    0    0 -0.75681865235E+01 -0.35744463297E+02  0.13840411898E+02  0.39070463334E+02  0.00000000000E+00 0. -1.
</event>
<event>
 7    1  0.1756449E-015  0.9000771E+02  0.7816164E-02  0.1186339E+00
        -11   -1    0    0    0    0  0.00000000000E+00  0.00000000000E+00  0.45593999997E+02  0.45594000000E+02  0.51100000000E-03 0.  1.
         11   -1    0    0    0    0 -0.00000000000E+00 -0.00000000000E+00 -0.45593999997E+02  0.45594000000E+02  0.51100000000E-03 0. -1.
    9900012    2    1    2    0    0  0.73613349103E-01  0.12085461634E+00 -0.11717792366E+01  0.90007707095E+02  0.89999968028E+02 0.  0.
        -12    1    1    2    0    0 -0.73613349103E-01 -0.12085461634E+00  0.11717792366E+01  0.11802929055E+01  0.00000000000E+00 0.  1.
         11    1    3    3    0    0 -0.82142359650E+01 -0.36745578247E+01 -0.27171600605E+00  0.90027705483E+01  0.51100000000E-03 0. -1.
        -11    1    3    3    0    0 -0.31296650218E+02  0.19690056300E+02 -0.78133945890E+01  0.37791900815E+02  0.51100000000E-03 0.  1.
         12    1    3    3    0    0  0.39584499532E+02 -0.15894643859E+02  0.69133313585E+01  0.43213035731E+02  0.00000000000E+00 0. -1.
</event>
<event>
 7    1  0.1756449E-015  0.9000773E+02  0.7816164E-02  0.1186339E+00
        -11   -1    0    0    0    0  0.00000000000E+00  0.00000000000E+00  0.45593999997E+02  0.45594000000E+02  0.51100000000E-03 0. -1.
         11   -1    0    0    0    0 -0.00000000000E+00 -0.00000000000E+00 -0.45593999997E+02  0.45594000000E+02  0.51100000000E-03 0.  1.
    9900012    2    1    2    0    0 -0.84793162203E+00  0.17543124213E+00  0.80203838982E+00  0.90007733193E+02  0.89999994471E+02 0.  0.
        -12    1    1    2    0    0  0.84793162203E+00 -0.17543124213E+00 -0.80203838982E+00  0.11802668067E+01  0.00000000000E+00 0.  1.
         11    1    3    3    0    0 -0.98156444157E-01  0.96601764870E+01  0.32505419968E+01  0.10192873392E+02  0.51100000000E-03 0. -1.
        -11    1    3    3    0    0 -0.12467954978E+02  0.27253758490E+02 -0.21420736597E+02  0.36838366003E+02  0.51100000000E-03 0.  1.
         12    1    3    3    0    0  0.11718179801E+02 -0.36738503735E+02  0.18972232990E+02  0.42976493798E+02  0.00000000000E+00 0. -1.
</event>
<event>
 7    1  0.1756449E-015  0.9000773E+02  0.7816164E-02  0.1186339E+00
        -11   -1    0    0    0    0  0.00000000000E+00  0.00000000000E+00  0.45593999997E+02  0.45594000000E+02  0.51100000000E-03 0.  1.
         11   -1    0    0    0    0 -0.00000000000E+00 -0.00000000000E+00 -0.45593999997E+02  0.45594000000E+02  0.51100000000E-03 0. -1.
    9900012    2    1    2    0    0  0.13809973809E-01 -0.70223423784E+00 -0.94853367240E+00  0.90007728943E+02  0.89999990165E+02 0.  0.
        -12    1    1    2    0    0 -0.13809973809E-01  0.70223423784E+00  0.94853367240E+00  0.11802710569E+01  0.00000000000E+00 0.  1.
         11    1    3    3    0    0  0.37336833195E+02 -0.39421309215E+01 -0.19874566264E+02  0.42480323606E+02  0.51100000000E-03 0. -1.
        -11    1    3    3    0    0 -0.14289160815E+02 -0.44739979739E+01 -0.24472520946E+01  0.15171875881E+02  0.51100000000E-03 0.  1.
        -12    1    3    3    0    0 -0.23033862406E+02  0.77138946575E+01  0.21373284686E+02  0.32355529456E+02  0.00000000000E+00 0.  1.
</event>
<event>
 7    1  0.1756449E-015  0.9000771E+02  0.7816164E-02  0.1186339E+00
        -11   -1    0    0    0    0  0.00000000000E+00  0.00000000000E+00  0.45593999997E+02  0.45594000000E+02  0.51100000000E-03 0. -1.
         11   -1    0    0    0    0 -0.00000000000E+00 -0.00000000000E+00 -0.45593999997E+02  0.45594000000E+02  0.51100000000E-03 0.  1.
    9900012    2    1    2    0    0  0.10873612998E+01 -0.22567801449E+00  0.39974746832E+00  0.90007710544E+02  0.89999971523E+02 0.  0.
        -12    1    1    2    0    0 -0.10873612998E+01  0.22567801449E+00 -0.39974746832E+00  0.11802894564E+01  0.00000000000E+00 0.  1.
         11    1    3    3    0    0 -0.65810534460E+01  0.62882363610E+01  0.58522137928E+01  0.10821302488E+02  0.51100000000E-03 0. -1.
        -11    1    3    3    0    0 -0.26932335344E+02 -0.16140274885E+02 -0.23282855689E+02  0.39089007787E+02  0.51100000000E-03 0.  1.
         12    1    3    3    0    0  0.34600750090E+02  0.96263605099E+01  0.17830389364E+02  0.40097400269E+02  0.00000000000E+00 0. -1.
</event>
<event>
 7    1  0.1756449E-015  0.9000768E+02  0.7816164E-02  0.1186339E+00
        -11   -1    0    0    0    0  0.00000000000E+00  0.00000000000E+00  0.45593999997E+02  0.45594000000E+02  0.51100000000E-03 0.  1.
         11   -1    0    0    0    0 -0.00000000000E+00 -0.00000000000E+00 -0.45593999997E+02  0.45594000000E+02  0.51100000000E-03 0. -1.
    9900012    2    1    2    0    0  0.10944392587E+01 -0.43844853831E+00  0.55881349306E-01  0.90007679223E+02  0.89999939789E+02 0.  0.
        -12    1    1    2    0    0 -0.10944392587E+01  0.43844853831E+00 -0.55881349306E-01  0.11803207771E+01  0.00000000000E+00 0.  1.
         11    1    3    3    0    0  0.46809629184E+01 -0.46605121875E+01 -0.70392873513E+01  0.96531525611E+01  0.51100000000E-03 0. -1.
        -11    1    3    3    0    0 -0.34089725552E+02  0.22721190930E+02  0.15329874864E+02  0.43742050353E+02  0.51100000000E-03 0.  1.
         12    1    3    3    0    0  0.30503201893E+02 -0.18499127281E+02 -0.82347061631E+01  0.36612476309E+02  0.00000000000E+00 0. -1.
</event>
<event>
 7    1  0.1756449E-015  0.9000765E+02  0.7816164E-02  0.1186339E+00
        -11   -1    0    0    0    0  0.00000000000E+00  0.00000000000E+00  0.45593999997E+02  0.45594000000E+02  0.51100000000E-03 0. -1.
         11   -1    0    0    0    0 -0.00000000000E+00 -0.00000000000E+00 -0.45593999997E+02  0.45594000000E+02  0.51100000000E-03 0.  1.
    9900012    2    1    2    0    0  0.39697259542E+00  0.70787553129E+00  0.85706365355E+00  0.90007647038E+02  0.89999907179E+02 0.  0.
        -12    1    1    2    0    0 -0.39697259542E+00 -0.70787553129E+00 -0.85706365355E+00  0.11803529623E+01  0.00000000000E+00 0.  1.
         11    1    3    3    0    0  0.31528710654E+02 -0.20941263087E+02  0.19271193366E+02  0.42473226734E+02  0.51100000000E-03 0. -1.
        -11    1    3    3    0    0  0.16065894251E+01  0.27675973142E+01 -0.75665851057E+01  0.82154692439E+01  0.51100000000E-03 0.  1.
        -12    1    3    3    0    0 -0.32738327484E+02  0.18881541304E+02 -0.10847544607E+02  0.39318951060E+02  0.00000000000E+00 0.  1.
</event>
<event>
 7    1  0.1756449E-015  0.9000782E+02  0.7816164E-02  0.1186339E+00
        -11   -1    0    0    0    0  0.00000000000E+00  0.00000000000E+00  0.45593999997E+02  0.45594000000E+02  0.51100000000E-03 0.  1.
         11   -1    0    0    0    0 -0.00000000000E+00 -0.00000000000E+00 -0.45593999997E+02  0.45594000000E+02  0.51100000000E-03 0. -1.
    9900012    2    1    2    0    0 -0.80570171854E-01 -0.71384120185E+00 -0.93635166598E+00  0.90007824057E+02  0.90000086535E+02 0.  0.
        -12    1    1    2    0    0  0.80570171854E-01  0.71384120185E+00  0.93635166598E+00  0.11801759430E+01  0.00000000000E+00 0.  1.
         11    1    3    3    0    0  0.21608010322E+01 -0.35703503066E+02  0.66980758426E+01  0.36390567631E+02  0.51100000000E-03 0. -1.
        -11    1    3    3    0    0 -0.18010420445E+01 -0.86674574239E+01 -0.42696388805E+01  0.98284478466E+01  0.51100000000E-03 0.  1.
        -12    1    3    3    0    0 -0.44032915948E+00  0.43657119288E+02 -0.33647886281E+01  0.43788808579E+02  0.00000000000E+00 0.  1.
</event>
<event>
 7    1  0.1756449E-015  0.9000776E+02  0.7816164E-02  0.1186339E+00
        -11   -1    0    0    0    0  0.00000000000E+00  0.00000000000E+00  0.45593999997E+02  0.45594000000E+02  0.51100000000E-03 0.  1.
         11   -1    0    0    0    0 -0.00000000000E+00 -0.00000000000E+00 -0.45593999997E+02  0.45594000000E+02  0.51100000000E-03 0. -1.
    9900012    2    1    2    0    0 -0.53113087998E+00 -0.82587462903E+00 -0.65483251802E+00  0.90007756575E+02  0.90000018162E+02 0.  0.
        -12    1    1    2    0    0  0.53113087998E+00  0.82587462903E+00  0.65483251802E+00  0.11802434246E+01  0.00000000000E+00 0.  1.
         11    1    3    3    0    0 -0.32432063589E+02  0.16593042723E+02 -0.13605096998E+02  0.38887870603E+02  0.51100000000E-03 0. -1.
        -11    1    3    3    0    0  0.94948142137E+00  0.54473023965E+01 -0.60557152446E+01  0.82003844881E+01  0.51100000000E-03 0.  1.
        -12    1    3    3    0    0  0.30951451287E+02 -0.22866219748E+02  0.19005979725E+02  0.42919501485E+02  0.00000000000E+00 0.  1.
</event>
<event>
 7    1  0.1756449E-015  0.9000779E+02  0.7816164E-02  0.1186339E+00
        -11   -1    0    0    0    0  0.00000000000E+00  0.00000000000E+00  0.45593999997E+02  0.45594000000E+02  0.51100000000E-03 0.  1.
         11   -1    0    0    0    0 -0.00000000000E+00 -0.00000000000E+00 -0.45593999997E+02  0.45594000000E+02  0.51100000000E-03 0. -1.
    9900012    2    1    2    0    0 -0.57323968416E+00  0.10247598134E+01  0.11901502995E+00  0.90007787736E+02  0.90000049734E+02 0.  0.
        -12    1    1    2    0    0  0.57323968416E+00 -0.10247598134E+01 -0.11901502995E+00  0.11802122640E+01  0.00000000000E+00 0.  1.
         11    1    3    3    0    0  0.57735340950E+01 -0.42094847536E+01 -0.38979460750E+02  0.39628926537E+02  0.51100000000E-03 0. -1.
        -11    1    3    3    0    0  0.87678866997E+01 -0.22463892586E+00  0.75412129483E+00  0.88031243894E+01  0.51100000000E-03 0.  1.
        -12    1    3    3    0    0 -0.15114660479E+02  0.54588834928E+01  0.38344354485E+02  0.41575736810E+02  0.00000000000E+00 0.  1.
</event>
<event>
 7    1  0.1756449E-015  0.9000775E+02  0.7816164E-02  0.1186339E+00
        -11   -1    0    0    0    0  0.00000000000E+00  0.00000000000E+00  0.45593999997E+02  0.45594000000E+02  0.51100000000E-03 0. -1.
         11   -1    0    0    0    0 -0.00000000000E+00 -0.00000000000E+00 -0.45593999997E+02  0.45594000000E+02  0.51100000000E-03 0.  1.
    9900012    2    1    2    0    0  0.12618653870E+00  0.94974600243E+00  0.68923663689E+00  0.90007751021E+02  0.90000012534E+02 0.  0.
        -12    1    1    2    0    0 -0.12618653870E+00 -0.94974600243E+00 -0.68923663689E+00  0.11802489794E+01  0.00000000000E+00 0.  1.
         11    1    3    3    0    0  0.98323870416E+01  0.21276832255E+02  0.14472880950E+02  0.27547117980E+02  0.51100000000E-03 0. -1.
        -11    1    3    3    0    0 -0.63925808761E+01  0.18968643648E+02 -0.11208763617E+02  0.22941467132E+02  0.51100000000E-03 0.  1.
         12    1    3    3    0    0 -0.33136196267E+01 -0.39295729901E+02 -0.25748806970E+01  0.39519165908E+02  0.00000000000E+00 0. -1.
</event>
<event>
 7    1  0.1756449E-015  0.9000772E+02  0.7816164E-02  0.1186339E+00
        -11   -1    0    0    0    0  0.00000000000E+00  0.00000000000E+00  0.45593999997E+02  0.45594000000E+02  0.51100000000E-03 0.  1.
         11   -1    0    0    0    0 -0.00000000000E+00 -0.00000000000E+00 -0.45593999997E+02  0.45594000000E+02  0.51100000000E-03 0. -1.
    9900012    2    1    2    0    0  0.79458913008E+00 -0.86607691574E+00  0.10768346612E+00  0.90007721711E+02  0.89999982838E+02 0.  0.
        -12    1    1    2    0    0 -0.79458913008E+00  0.86607691574E+00 -0.10768346612E+00  0.11802782886E+01  0.00000000000E+00 0.  1.
         11    1    3    3    0    0 -0.77931420860E+01 -0.52692941023E+01 -0.24410701860E+01  0.97189170088E+01  0.51100000000E-03 0. -1.
        -11    1    3    3    0    0 -0.10447946335E+02 -0.30585107735E+02  0.18662409099E+02  0.37321493960E+02  0.51100000000E-03 0.  1.
         12    1    3    3    0    0  0.19035677551E+02  0.34988324921E+02 -0.16113655447E+02  0.42967310743E+02  0.00000000000E+00 0. -1.
</event>
<event>
 7    1  0.1756449E-015  0.9000775E+02  0.7816164E-02  0.1186339E+00
        -11   -1    0    0    0    0  0.00000000000E+00  0.00000000000E+00  0.45593999997E+02  0.45594000000E+02  0.51100000000E-03 0.  1.
         11   -1    0    0    0    0 -0.00000000000E+00 -0.00000000000E+00 -0.45593999997E+02  0.45594000000E+02  0.51100000000E-03 0. -1.
    9900012    2    1    2    0    0 -0.87564256438E+00  0.16691127708E+00 -0.77355590524E+00  0.90007746632E+02  0.90000008087E+02 0.  0.
        -12    1    1    2    0    0  0.87564256438E+00 -0.16691127708E+00  0.77355590524E+00  0.11802533684E+01  0.00000000000E+00 0.  1.
         11    1    3    3    0    0 -0.63921412137E+01 -0.10814599584E+02  0.10410713715E+02  0.16315575190E+02  0.51100000000E-03 0. -1.
        -11    1    3    3    0    0  0.17836678033E+02  0.51703375464E+01  0.27215488047E+02  0.32947871911E+02  0.51100000000E-03 0.  1.
         12    1    3    3    0    0 -0.12320179384E+02  0.58111733150E+01 -0.38399757667E+02  0.40744299530E+02  0.00000000000E+00 0. -1.
</event>
<event>
 7    1  0.1756449E-015  0.9000698E+02  0.7816164E-02  0.1186341E+00
        -11   -1    0    0    0    0  0.00000000000E+00  0.00000000000E+00  0.45593999997E+02  0.45594000000E+02  0.51100000000E-03 0. -1.
         11   -1    0    0    0    0 -0.00000000000E+00 -0.00000000000E+00 -0.45593999997E+02  0.45594000000E+02  0.51100000000E-03 0.  1.
    9900012    2    1    2    0    0 -0.77963020710E+00  0.32077424906E+00  0.82709978226E+00  0.90006977804E+02  0.89999229107E+02 0.  0.
        -12    1    1    2    0    0  0.77963020710E+00 -0.32077424906E+00 -0.82709978226E+00  0.11810221964E+01  0.00000000000E+00 0.  1.
         11    1    3    3    0    0 -0.28291543079E+02  0.33340057850E+00  0.26906618455E+02  0.39044701083E+02  0.51100000000E-03 0. -1.
        -11    1    3    3    0    0 -0.64620806963E+01 -0.29795411436E+01  0.12931441809E+01  0.72324528678E+01  0.51100000000E-03 0.  1.
        -12    1    3    3    0    0  0.33973993568E+02  0.29669148142E+01 -0.27372662854E+02  0.43729823853E+02  0.00000000000E+00 0.  1.
</event>
<event>
 7    1  0.1756449E-015  0.9000775E+02  0.7816164E-02  0.1186339E+00
        -11   -1    0    0    0    0  0.00000000000E+00  0.00000000000E+00  0.45593999997E+02  0.45594000000E+02  0.51100000000E-03 0. -1.
         11   -1    0    0    0    0 -0.00000000000E+00 -0.00000000000E+00 -0.45593999997E+02  0.45594000000E+02  0.51100000000E-03 0.  1.
    9900012    2    1    2    0    0 -0.70206867159E+00  0.63051254690E+00 -0.70890485281E+00  0.90007748933E+02  0.90000010419E+02 0.  0.
        -12    1    1    2    0    0  0.70206867159E+00 -0.63051254690E+00  0.70890485281E+00  0.11802510673E+01  0.00000000000E+00 0.  1.
         11    1    3    3    0    0  0.16547483217E+02  0.22490298119E+02  0.29205823362E+02  0.40405603928E+02  0.51100000000E-03 0. -1.
        -11    1    3    3    0    0 -0.12823025572E+01 -0.14190387064E+02  0.66363494488E+00  0.14263652985E+02  0.51100000000E-03 0.  1.
        -12    1    3    3    0    0 -0.15967249331E+02 -0.76693985082E+01 -0.30578363160E+02  0.35338492020E+02  0.00000000000E+00 0.  1.
</event>
<event>
 7    1  0.1756449E-015  0.9000777E+02  0.7816164E-02  0.1186339E+00
        -11   -1    0    0    0    0  0.00000000000E+00  0.00000000000E+00  0.45593999997E+02  0.45594000000E+02  0.51100000000E-03 0. -1.
         11   -1    0    0    0    0 -0.00000000000E+00 -0.00000000000E+00 -0.45593999997E+02  0.45594000000E+02  0.51100000000E-03 0.  1.
    9900012    2    1    2    0    0  0.32918755582E+00 -0.91208859845E+00  0.67281523270E+00  0.90007766805E+02  0.90000028526E+02 0.  0.
        -12    1    1    2    0    0 -0.32918755582E+00  0.91208859845E+00 -0.67281523270E+00  0.11802331955E+01  0.00000000000E+00 0.  1.
         11    1    3    3    0    0  0.35219954655E+01  0.41129353231E+01  0.12298762893E+02  0.13438015403E+02  0.51100000000E-03 0. -1.
        -11    1    3    3    0    0  0.23253189590E+02  0.17511629637E+02 -0.25940301717E+02  0.38990604664E+02  0.51100000000E-03 0.  1.
         12    1    3    3    0    0 -0.26445997500E+02 -0.22536653559E+02  0.14314354057E+02  0.37579146737E+02  0.00000000000E+00 0. -1.
</event>
<event>
 7    1  0.1756449E-015  0.9000769E+02  0.7816164E-02  0.1186339E+00
        -11   -1    0    0    0    0  0.00000000000E+00  0.00000000000E+00  0.45593999997E+02  0.45594000000E+02  0.51100000000E-03 0. -1.
         11   -1    0    0    0    0 -0.00000000000E+00 -0.00000000000E+00 -0.45593999997E+02  0.45594000000E+02  0.51100000000E-03 0.  1.
    9900012    2    1    2    0    0 -0.42161143925E+00  0.10844384086E+01  0.19842712494E+00  0.90007688096E+02  0.89999948778E+02 0.  0.
        -12    1    1    2    0    0  0.42161143925E+00 -0.10844384086E+01 -0.19842712494E+00  0.11803119044E+01  0.00000000000E+00 0.  1.
         11    1    3    3    0    0  0.10964593219E+02 -0.29735984109E+02  0.16870465273E+02  0.35903532614E+02  0.51100000000E-03 0. -1.
        -11    1    3    3    0    0 -0.45754061869E+00 -0.95782537630E+01 -0.23779987477E+01  0.98796339442E+01  0.51100000000E-03 0.  1.
        -12    1    3    3    0    0 -0.10928664039E+02  0.40398676280E+02 -0.14294039400E+02  0.44224521538E+02  0.00000000000E+00 0.  1.
</event>
<event>
 7    1  0.1756449E-015  0.9000772E+02  0.7816164E-02  0.1186339E+00
        -11   -1    0    0    0    0  0.00000000000E+00  0.00000000000E+00  0.45593999997E+02  0.45594000000E+02  0.51100000000E-03 0.  1.
         11   -1    0    0    0    0 -0.00000000000E+00 -0.00000000000E+00 -0.45593999997E+02  0.45594000000E+02  0.51100000000E-03 0. -1.
    9900012    2    1    2    0    0 -0.96792418994E+00  0.54422964598E+00  0.40000767003E+00  0.90007716440E+02  0.89999977497E+02 0.  0.
        -12    1    1    2    0    0  0.96792418994E+00 -0.54422964598E+00 -0.40000767003E+00  0.11802835596E+01  0.00000000000E+00 0.  1.
         11    1    3    3    0    0 -0.19972048933E+02  0.18980429952E+02 -0.32590558577E+02  0.42676503704E+02  0.51100000000E-03 0. -1.
        -11    1    3    3    0    0 -0.14332516318E+01  0.29109473189E+01  0.79834350407E+01  0.86176017455E+01  0.51100000000E-03 0.  1.
        -12    1    3    3    0    0  0.20437376375E+02 -0.21347147625E+02  0.25007131206E+02  0.38713610991E+02  0.00000000000E+00 0.  1.
</event>
<event>
 7    1  0.1756449E-015  0.9000773E+02  0.7816164E-02  0.1186339E+00
        -11   -1    0    0    0    0  0.00000000000E+00  0.00000000000E+00  0.45593999997E+02  0.45594000000E+02  0.51100000000E-03 0. -1.
         11   -1    0    0    0    0 -0.00000000000E+00 -0.00000000000E+00 -0.45593999997E+02  0.45594000000E+02  0.51100000000E-03 0.  1.
    9900012    2    1    2    0    0  0.10817692698E+01  0.43515383516E+00  0.18292284271E+00  0.90007726989E+02  0.89999988186E+02 0.  0.
        -12    1    1    2    0    0 -0.10817692698E+01 -0.43515383516E+00 -0.18292284271E+00  0.11802730106E+01  0.00000000000E+00 0.  1.
         11    1    3    3    0    0 -0.70637085743E+01  0.85924633263E+01  0.23908466583E+01  0.11377282313E+02  0.51100000000E-03 0. -1.
        -11    1    3    3    0    0 -0.30793672389E+02  0.11256761957E+01 -0.17897938429E+02  0.35635005351E+02  0.51100000000E-03 0.  1.
         12    1    3    3    0    0  0.38939150233E+02 -0.92829856868E+01  0.15690014613E+02  0.42995439325E+02  0.00000000000E+00 0. -1.
</event>
<event>
 7    1  0.1756449E-015  0.9000773E+02  0.7816164E-02  0.1186339E+00
        -11   -1    0    0    0    0  0.00000000000E+00  0.00000000000E+00  0.45593999997E+02  0.45594000000E+02  0.51100000000E-03 0.  1.
         11   -1    0    0    0    0 -0.00000000000E+00 -0.00000000000E+00 -0.45593999997E+02  0.45594000000E+02  0.51100000000E-03 0. -1.
    9900012    2    1    2    0    0  0.10370103804E+01  0.12521855888E+00  0.54951101230E+00  0.90007731993E+02  0.89999993255E+02 0.  0.
        -12    1    1    2    0    0 -0.10370103804E+01 -0.12521855888E+00 -0.54951101230E+00  0.11802680074E+01  0.00000000000E+00 0.  1.
         11    1    3    3    0    0  0.25193964860E+02 -0.88101679342E+01 -0.32781852796E+02  0.42272979519E+02  0.51100000000E-03 0. -1.
        -11    1    3    3    0    0  0.27471226629E+01 -0.32117196125E+01  0.70066845724E+01  0.81826312853E+01  0.51100000000E-03 0.  1.
        -12    1    3    3    0    0 -0.26904077143E+02  0.12147106106E+02  0.26324679236E+02  0.39552121188E+02  0.00000000000E+00 0.  1.
</event>
<event>
 7    1  0.1756449E-015  0.9000773E+02  0.7816164E-02  0.1186339E+00
        -11   -1    0    0    0    0  0.00000000000E+00  0.00000000000E+00  0.45593999997E+02  0.45594000000E+02  0.51100000000E-03 0.  1.
         11   -1    0    0    0    0 -0.00000000000E+00 -0.00000000000E+00 -0.45593999997E+02  0.45594000000E+02  0.51100000000E-03 0. -1.
    9900012    2    1    2    0    0 -0.42468177316E+00 -0.89290210635E+00 -0.64452443487E+00  0.90007728621E+02  0.89999989839E+02 0.  0.
        -12    1    1    2    0    0  0.42468177316E+00  0.89290210635E+00  0.64452443487E+00  0.11802713786E+01  0.00000000000E+00 0.  1.
         11    1    3    3    0    0  0.18989514033E+01 -0.11641860758E+02 -0.33816438117E+02  0.35814667743E+02  0.51100000000E-03 0. -1.
        -11    1    3    3    0    0  0.57806100577E+01 -0.53201694560E+01 -0.67783312197E+01  0.10376195356E+02  0.51100000000E-03 0.  1.
        -12    1    3    3    0    0 -0.81042432341E+01  0.16069128108E+02  0.39950244902E+02  0.43816865523E+02  0.00000000000E+00 0.  1.
</event>
<event>
 7    1  0.1756449E-015  0.9000771E+02  0.7816164E-02  0.1186339E+00
        -11   -1    0    0    0    0  0.00000000000E+00  0.00000000000E+00  0.45593999997E+02  0.45594000000E+02  0.51100000000E-03 0.  1.
         11   -1    0    0    0    0 -0.00000000000E+00 -0.00000000000E+00 -0.45593999997E+02  0.45594000000E+02  0.51100000000E-03 0. -1.
    9900012    2    1    2    0    0 -0.29332330691E+00 -0.10279803229E+01  0.50029881146E+00  0.90007711473E+02  0.89999972464E+02 0.  0.
        -12    1    1    2    0    0  0.29332330691E+00  0.10279803229E+01 -0.50029881146E+00  0.11802885272E+01  0.00000000000E+00 0.  1.
         11    1    3    3    0    0 -0.27032805257E+02 -0.25354986281E+02 -0.33138963410E+01  0.37210614058E+02  0.51100000000E-03 0. -1.
        -11    1    3    3    0    0 -0.94069276763E+01  0.76438254619E+00  0.17561225922E+01  0.95999237395E+01  0.51100000000E-03 0.  1.
        -12    1    3    3    0    0  0.36146409626E+02  0.23562623411E+02  0.20580725603E+01  0.43197173676E+02  0.00000000000E+00 0.  1.
</event>
<event>
 7    1  0.1756449E-015  0.9000773E+02  0.7816164E-02  0.1186339E+00
        -11   -1    0    0    0    0  0.00000000000E+00  0.00000000000E+00  0.45593999997E+02  0.45594000000E+02  0.51100000000E-03 0.  1.
         11   -1    0    0    0    0 -0.00000000000E+00 -0.00000000000E+00 -0.45593999997E+02  0.45594000000E+02  0.51100000000E-03 0. -1.
    9900012    2    1    2    0    0  0.10757741981E+01 -0.22548193506E+00 -0.43001455208E+00  0.90007726835E+02  0.89999988029E+02 0.  0.
        -12    1    1    2    0    0 -0.10757741981E+01  0.22548193506E+00  0.43001455208E+00  0.11802731647E+01  0.00000000000E+00 0.  1.
         11    1    3    3    0    0  0.10778594613E+02  0.21248673598E+02 -0.86733677559E+01  0.25355700346E+02  0.51100000000E-03 0. -1.
        -11    1    3    3    0    0  0.16161491770E+02  0.98863344048E+01 -0.84030147250E+01  0.20725445252E+02  0.51100000000E-03 0.  1.
         12    1    3    3    0    0 -0.25864312185E+02 -0.31360489938E+02  0.16646367929E+02  0.43926581237E+02  0.00000000000E+00 0. -1.
</event>
<event>
 7    1  0.1756449E-015  0.9000770E+02  0.7816164E-02  0.1186339E+00
        -11   -1    0    0    0    0  0.00000000000E+00  0.00000000000E+00  0.45593999997E+02  0.45594000000E+02  0.51100000000E-03 0. -1.
         11   -1    0    0    0    0 -0.00000000000E+00 -0.00000000000E+00 -0.45593999997E+02  0.45594000000E+02  0.51100000000E-03 0.  1.
    9900012    2    1    2    0    0  0.49762900265E+00 -0.58432646892E+00 -0.89667471299E+00  0.90007704449E+02  0.89999965348E+02 0.  0.
        -12    1    1    2    0    0 -0.49762900265E+00  0.58432646892E+00  0.89667471299E+00  0.11802955509E+01  0.00000000000E+00 0.  1.
         11    1    3    3    0    0  0.27134847940E+02  0.30249502177E+01 -0.28205471714E+02  0.39255559242E+02  0.51100000000E-03 0. -1.
        -11    1    3    3    0    0  0.67975231293E+01 -0.60739909965E+01  0.42201868627E+01  0.10045380268E+02  0.51100000000E-03 0.  1.
        -12    1    3    3    0    0 -0.33434742066E+02  0.24647143098E+01  0.23088610138E+02  0.40706764939E+02  0.00000000000E+00 0.  1.
</event>
<event>
 7    1  0.1756449E-015  0.9000776E+02  0.7816164E-02  0.1186339E+00
        -11   -1    0    0    0    0  0.00000000000E+00  0.00000000000E+00  0.45593999997E+02  0.45594000000E+02  0.51100000000E-03 0. -1.
         11   -1    0    0    0    0 -0.00000000000E+00 -0.00000000000E+00 -0.45593999997E+02  0.45594000000E+02  0.51100000000E-03 0.  1.
    9900012    2    1    2    0    0 -0.24669906536E+00  0.29366778333E-01  0.11537946664E+01  0.90007760631E+02  0.90000022271E+02 0.  0.
        -12    1    1    2    0    0  0.24669906536E+00 -0.29366778333E-01 -0.11537946664E+01  0.11802393693E+01  0.00000000000E+00 0.  1.
         11    1    3    3    0    0  0.66100134706E+01 -0.33634514496E+02 -0.17970191281E+02  0.38702721072E+02  0.51100000000E-03 0. -1.
        -11    1    3    3    0    0  0.63662132598E+01 -0.40102167162E+01  0.45970152160E+01  0.88172024212E+01  0.51100000000E-03 0.  1.
        -12    1    3    3    0    0 -0.13222925796E+02  0.37674097990E+02  0.14526970732E+02  0.42487837137E+02  0.00000000000E+00 0.  1.
</event>
<event>
 7    1  0.1756449E-015  0.9000720E+02  0.7816164E-02  0.1186340E+00
        -11   -1    0    0    0    0  0.00000000000E+00  0.00000000000E+00  0.45593999997E+02  0.45594000000E+02  0.51100000000E-03 0. -1.
         11   -1    0    0    0    0 -0.00000000000E+00 -0.00000000000E+00 -0.45593999997E+02  0.45594000000E+02  0.51100000000E-03 0.  1.
    9900012    2    1    2    0    0  0.76067923359E+00 -0.81815872973E+00  0.38246533311E+00  0.90007196742E+02  0.89999450937E+02 0.  0.
        -12    1    1    2    0    0 -0.76067923359E+00  0.81815872973E+00 -0.38246533311E+00  0.11808032582E+01  0.00000000000E+00 0.  1.
         11    1    3    3    0    0 -0.83073194070E+00  0.30571159970E+01 -0.97071052614E+01  0.10210972852E+02  0.51100000000E-03 0. -1.
        -11    1    3    3    0    0  0.42742679390E+01 -0.34013280866E+02 -0.17817219438E+02  0.38634517603E+02  0.51100000000E-03 0.  1.
         12    1    3    3    0    0 -0.26828567647E+01  0.30138006139E+02  0.27906790033E+02  0.41161706286E+02  0.00000000000E+00 0. -1.
</event>
<event>
 7    1  0.1756449E-015  0.9000778E+02  0.7816164E-02  0.1186339E+00
        -11   -1    0    0    0    0  0.00000000000E+00  0.00000000000E+00  0.45593999997E+02  0.45594000000E+02  0.51100000000E-03 0.  1.
         11   -1    0    0    0    0 -0.00000000000E+00 -0.00000000000E+00 -0.45593999997E+02  0.45594000000E+02  0.51100000000E-03 0. -1.
    9900012    2    1    2    0    0 -0.10323680498E+01 -0.34263012688E+00 -0.45796112837E+00  0.90007784939E+02  0.90000046901E+02 0.  0.
        -12    1    1    2    0    0  0.10323680498E+01  0.34263012688E+00  0.45796112837E+00  0.11802150606E+01  0.00000000000E+00 0.  1.
         11    1    3    3    0    0 -0.24694444591E+02 -0.24554970794E+01 -0.38955479339E+01  0.25120118501E+02  0.51100000000E-03 0. -1.
        -11    1    3    3    0    0 -0.88057998689E+01  0.22639963707E+02  0.93368859716E+01  0.26024747989E+02  0.51100000000E-03 0.  1.
        -12    1    3    3    0    0  0.32467876410E+02 -0.20527096754E+02 -0.58992991661E+01  0.38862918449E+02  0.00000000000E+00 0.  1.
</event>
<event>
 7    1  0.1756449E-015  0.9000737E+02  0.7816164E-02  0.1186340E+00
        -11   -1    0    0    0    0  0.00000000000E+00  0.00000000000E+00  0.45593999997E+02  0.45594000000E+02  0.51100000000E-03 0.  1.
         11   -1    0    0    0    0 -0.00000000000E+00 -0.00000000000E+00 -0.45593999997E+02  0.45594000000E+02  0.51100000000E-03 0. -1.
    9900012    2    1    2    0    0 -0.72244859491E+00  0.42674424271E+00 -0.83056333093E+00  0.90007373866E+02  0.89999630401E+02 0.  0.
        -12    1    1    2    0    0  0.72244859491E+00 -0.42674424271E+00  0.83056333093E+00  0.11806261337E+01  0.00000000000E+00 0.  1.
         11    1    3    3    0    0 -0.11417843189E+01 -0.41297943110E+02 -0.97184551884E+01  0.42441396632E+02  0.51100000000E-03 0. -1.
        -11    1    3    3    0    0 -0.17220597591E+01  0.62950287401E+01 -0.61964337185E+01  0.89993704081E+01  0.51100000000E-03 0.  1.
        -12    1    3    3    0    0  0.21413954831E+01  0.35429658613E+02  0.15084325576E+02  0.38566606826E+02  0.00000000000E+00 0.  1.
</event>
<event>
 7    1  0.1756449E-015  0.9000767E+02  0.7816164E-02  0.1186339E+00
        -11   -1    0    0    0    0  0.00000000000E+00  0.00000000000E+00  0.45593999997E+02  0.45594000000E+02  0.51100000000E-03 0. -1.
         11   -1    0    0    0    0 -0.00000000000E+00 -0.00000000000E+00 -0.45593999997E+02  0.45594000000E+02  0.51100000000E-03 0.  1.
    9900012    2    1    2    0    0 -0.49179247058E+00  0.11766870355E+00  0.10665216631E+01  0.90007671988E+02  0.89999932458E+02 0.  0.
        -12    1    1    2    0    0  0.49179247058E+00 -0.11766870355E+00 -0.10665216631E+01  0.11803280119E+01  0.00000000000E+00 0.  1.
         11    1    3    3    0    0 -0.26434716459E+02 -0.19338457029E+02  0.19205067603E+02  0.37968470821E+02  0.51100000000E-03 0. -1.
        -11    1    3    3    0    0 -0.72143847000E+01  0.22081264126E+01  0.40610379234E+01  0.85682669269E+01  0.51100000000E-03 0.  1.
        -12    1    3    3    0    0  0.33157308689E+02  0.17247999320E+02 -0.22199583864E+02  0.43470934241E+02  0.00000000000E+00 0.  1.
</event>
<event>
 7    1  0.1756449E-015  0.9000772E+02  0.7816164E-02  0.1186339E+00
        -11   -1    0    0    0    0  0.00000000000E+00  0.00000000000E+00  0.45593999997E+02  0.45594000000E+02  0.51100000000E-03 0. -1.
         11   -1    0    0    0    0 -0.00000000000E+00 -0.00000000000E+00 -0.45593999997E+02  0.45594000000E+02  0.51100000000E-03 0.  1.
    9900012    2    1    2    0    0  0.19793064137E+00  0.88343713290E-01  0.11602069220E+01  0.90007719842E+02  0.89999980944E+02 0.  0.
        -12    1    1    2    0    0 -0.19793064137E+00 -0.88343713290E-01 -0.11602069220E+01  0.11802801584E+01  0.00000000000E+00 0.  1.
         11    1    3    3    0    0  0.12672998279E+02  0.23210028963E+02  0.10764372898E+01  0.26466375788E+02  0.51100000000E-03 0. -1.
        -11    1    3    3    0    0  0.16766944897E+02  0.72154446214E+01  0.91842114085E+01  0.20433864581E+02  0.51100000000E-03 0.  1.
        -12    1    3    3    0    0 -0.29242012535E+02 -0.30337129872E+02 -0.91004417763E+01  0.43107479472E+02  0.00000000000E+00 0.  1.
</event>
<event>
 7    1  0.1756449E-015  0.9000809E+02  0.7816164E-02  0.1186338E+00
        -11   -1    0    0    0    0  0.00000000000E+00  0.00000000000E+00  0.45593999997E+02  0.45594000000E+02  0.51100000000E-03 0. -1.
         11   -1    0    0    0    0 -0.00000000000E+00 -0.00000000000E+00 -0.45593999997E+02  0.45594000000E+02  0.51100000000E-03 0.  1.
    9900012    2    1    2    0    0 -0.95286827239E-01  0.94433856489E+00  0.70094422902E+00  0.90008094192E+02  0.90000360234E+02 0.  0.
        -12    1    1    2    0    0  0.95286827239E-01 -0.94433856489E+00 -0.70094422902E+00  0.11799058084E+01  0.00000000000E+00 0.  1.
         11    1    3    3    0    0  0.84365852980E+01 -0.18814573306E+02  0.97767316233E+01  0.22819917214E+02  0.51100000000E-03 0.  1.
        -11    1    3    3    0    0  0.16280726742E+02  0.14321805213E+02  0.19353292262E+02  0.29064171921E+02  0.51100000000E-03 0. -1.
        -12    1    3    3    0    0 -0.24812598868E+02  0.54371066575E+01 -0.28429079657E+02  0.38124005056E+02  0.00000000000E+00 0.  1.
</event>
<event>
 7    1  0.1756449E-015  0.9000774E+02  0.7816164E-02  0.1186339E+00
        -11   -1    0    0    0    0  0.00000000000E+00  0.00000000000E+00  0.45593999997E+02  0.45594000000E+02  0.51100000000E-03 0.  1.
         11   -1    0    0    0    0 -0.00000000000E+00 -0.00000000000E+00 -0.45593999997E+02  0.45594000000E+02  0.51100000000E-03 0. -1.
    9900012    2    1    2    0    0  0.11721879166E+01 -0.12482006927E+00 -0.58364486758E-01  0.90007741141E+02  0.90000002524E+02 0.  0.
        -12    1    1    2    0    0 -0.11721879166E+01  0.12482006927E+00  0.58364486758E-01  0.11802588593E+01  0.00000000000E+00 0.  1.
         11    1    3    3    0    0  0.36437257001E+01 -0.18402143369E+01 -0.69622642791E+01  0.80707031873E+01  0.51100000000E-03 0. -1.
        -11    1    3    3    0    0  0.26492669809E+02 -0.21699358446E+02 -0.16434209154E+02  0.37984298616E+02  0.51100000000E-03 0.  1.
         12    1    3    3    0    0 -0.28964207592E+02  0.23414752714E+02  0.23338108946E+02  0.43952739338E+02  0.00000000000E+00 0. -1.
</event>
<event>
 7    1  0.1756449E-015  0.9000776E+02  0.7816164E-02  0.1186339E+00
        -11   -1    0    0    0    0  0.00000000000E+00  0.00000000000E+00  0.45593999997E+02  0.45594000000E+02  0.51100000000E-03 0.  1.
         11   -1    0    0    0    0 -0.00000000000E+00 -0.00000000000E+00 -0.45593999997E+02  0.45594000000E+02  0.51100000000E-03 0. -1.
    9900012    2    1    2    0    0  0.86613253696E-01  0.11624230748E+01 -0.18500846991E+00  0.90007763840E+02  0.90000025522E+02 0.  0.
        -12    1    1    2    0    0 -0.86613253696E-01 -0.11624230748E+01  0.18500846991E+00  0.11802361605E+01  0.00000000000E+00 0.  1.
         11    1    3    3    0    0  0.19531608230E+02  0.20762817521E+02 -0.75381424984E+01  0.29485621989E+02  0.51100000000E-03 0. -1.
        -11    1    3    3    0    0  0.10483295111E+02  0.83427489034E+01  0.13614060593E+02  0.19100879083E+02  0.51100000000E-03 0.  1.
        -12    1    3    3    0    0 -0.29928290087E+02 -0.27943143350E+02 -0.62609265642E+01  0.41421262768E+02  0.00000000000E+00 0.  1.
</event>
<event>
 7    1  0.1756449E-015  0.9000785E+02  0.7816164E-02  0.1186339E+00
        -11   -1    0    0    0    0  0.00000000000E+00  0.00000000000E+00  0.45593999997E+02  0.45594000000E+02  0.51100000000E-03 0. -1.
         11   -1    0    0    0    0 -0.00000000000E+00 -0.00000000000E+00 -0.45593999997E+02  0.45594000000E+02  0.51100000000E-03 0.  1.
    9900012    2    1    2    0    0  0.71252491331E+00 -0.63501669805E+00  0.69413672173E+00  0.90007845880E+02  0.90000108645E+02 0.  0.
        -12    1    1    2    0    0 -0.71252491331E+00  0.63501669805E+00 -0.69413672173E+00  0.11801541202E+01  0.00000000000E+00 0.  1.
         11    1    3    3    0    0  0.18974054413E+02  0.26796764006E+02  0.77058498338E+01  0.33726272014E+02  0.51100000000E-03 0. -1.
        -11    1    3    3    0    0  0.12698788488E+02  0.20305416803E+01  0.58444358164E+00  0.12873379631E+02  0.51100000000E-03 0.  1.
        -12    1    3    3    0    0 -0.30960317987E+02 -0.29462322385E+02 -0.75961566937E+01  0.43408194234E+02  0.00000000000E+00 0.  1.
</event>
<event>
 7    1  0.1756449E-015  0.9000774E+02  0.7816164E-02  0.1186339E+00
        -11   -1    0    0    0    0  0.00000000000E+00  0.00000000000E+00  0.45593999997E+02  0.45594000000E+02  0.51100000000E-03 0.  1.
         11   -1    0    0    0    0 -0.00000000000E+00 -0.00000000000E+00 -0.45593999997E+02  0.45594000000E+02  0.51100000000E-03 0. -1.
    9900012    2    1    2    0    0 -0.72264779421E+00  0.86931683805E+00  0.33924812581E+00  0.90007736940E+02  0.89999998268E+02 0.  0.
        -12    1    1    2    0    0  0.72264779421E+00 -0.86931683805E+00 -0.33924812581E+00  0.11802630598E+01  0.00000000000E+00 0.  1.
         11    1    3    3    0    0 -0.99038347667E+01 -0.10122771964E+01  0.26916253831E+00  0.99590710883E+01  0.51100000000E-03 0. -1.
        -11    1    3    3    0    0 -0.12935201409E+02 -0.20262076263E+02  0.28835021531E+02  0.37541039370E+02  0.51100000000E-03 0.  1.
         12    1    3    3    0    0  0.22116388382E+02  0.22143670298E+02 -0.28764935944E+02  0.42507626482E+02  0.00000000000E+00 0. -1.
</event>
<event>
 7    1  0.1756449E-015  0.9000775E+02  0.7816164E-02  0.1186339E+00
        -11   -1    0    0    0    0  0.00000000000E+00  0.00000000000E+00  0.45593999997E+02  0.45594000000E+02  0.51100000000E-03 0.  1.
         11   -1    0    0    0    0 -0.00000000000E+00 -0.00000000000E+00 -0.45593999997E+02  0.45594000000E+02  0.51100000000E-03 0. -1.
    9900012    2    1    2    0    0 -0.34520295890E+00 -0.47246885499E+00 -0.10249901651E+01  0.90007747171E+02  0.90000008634E+02 0.  0.
        -12    1    1    2    0    0  0.34520295890E+00  0.47246885499E+00  0.10249901651E+01  0.11802528289E+01  0.00000000000E+00 0.  1.
         11    1    3    3    0    0 -0.22967270554E+01 -0.11566924432E+02 -0.23267337657E+02  0.26085200744E+02  0.51100000000E-03 0. -1.
        -11    1    3    3    0    0 -0.15974281576E+02 -0.65385608440E+01 -0.12301912244E+02  0.21195931094E+02  0.51100000000E-03 0.  1.
        -12    1    3    3    0    0  0.17925805673E+02  0.17633016421E+02  0.34544259736E+02  0.42726615333E+02  0.00000000000E+00 0.  1.
</event>
<event>
 7    1  0.1756449E-015  0.9000778E+02  0.7816164E-02  0.1186339E+00
        -11   -1    0    0    0    0  0.00000000000E+00  0.00000000000E+00  0.45593999997E+02  0.45594000000E+02  0.51100000000E-03 0.  1.
         11   -1    0    0    0    0 -0.00000000000E+00 -0.00000000000E+00 -0.45593999997E+02  0.45594000000E+02  0.51100000000E-03 0. -1.
    9900012    2    1    2    0    0  0.81696708169E-01 -0.49441365616E+00 -0.10685547115E+01  0.90007776128E+02  0.90000037973E+02 0.  0.
        -12    1    1    2    0    0 -0.81696708169E-01  0.49441365616E+00  0.10685547115E+01  0.11802238715E+01  0.00000000000E+00 0.  1.
         11    1    3    3    0    0 -0.31001225736E+02  0.17344730392E+02  0.23810195869E+01  0.35603158905E+02  0.51100000000E-03 0. -1.
        -11    1    3    3    0    0 -0.21982578059E+01  0.76127702840E+01 -0.91686025402E+01  0.12118163292E+02  0.51100000000E-03 0.  1.
        -12    1    3    3    0    0  0.33281180250E+02 -0.25451914332E+02  0.57190282418E+01  0.42286453931E+02  0.00000000000E+00 0.  1.
</event>
<event>
 7    1  0.1756449E-015  0.9000774E+02  0.7816164E-02  0.1186339E+00
        -11   -1    0    0    0    0  0.00000000000E+00  0.00000000000E+00  0.45593999997E+02  0.45594000000E+02  0.51100000000E-03 0. -1.
         11   -1    0    0    0    0 -0.00000000000E+00 -0.00000000000E+00 -0.45593999997E+02  0.45594000000E+02  0.51100000000E-03 0.  1.
    9900012    2    1    2    0    0  0.27390879559E+00  0.76776423005E+00 -0.85353394146E+00  0.90007742346E+02  0.90000003745E+02 0.  0.
        -12    1    1    2    0    0 -0.27390879559E+00 -0.76776423005E+00  0.85353394146E+00  0.11802576543E+01  0.00000000000E+00 0.  1.
         11    1    3    3    0    0 -0.28661713452E+02  0.19044080676E+02  0.23856211754E+02  0.41872301899E+02  0.51100000000E-03 0. -1.
        -11    1    3    3    0    0  0.92790332781E+01 -0.46342884097E+00  0.30118580140E+01  0.97666019589E+01  0.51100000000E-03 0.  1.
        -12    1    3    3    0    0  0.19656588969E+02 -0.17812887605E+02 -0.27721603709E+02  0.38368838488E+02  0.00000000000E+00 0.  1.
</event>
<event>
 7    1  0.1756449E-015  0.9000774E+02  0.7816164E-02  0.1186339E+00
        -11   -1    0    0    0    0  0.00000000000E+00  0.00000000000E+00  0.45593999997E+02  0.45594000000E+02  0.51100000000E-03 0. -1.
         11   -1    0    0    0    0 -0.00000000000E+00 -0.00000000000E+00 -0.45593999997E+02  0.45594000000E+02  0.51100000000E-03 0.  1.
    9900012    2    1    2    0    0  0.65034353779E+00 -0.14949031825E+00  0.97350950835E+00  0.90007739505E+02  0.90000000867E+02 0.  0.
        -12    1    1    2    0    0 -0.65034353779E+00  0.14949031825E+00 -0.97350950835E+00  0.11802604947E+01  0.00000000000E+00 0.  1.
         11    1    3    3    0    0  0.27795807454E+01  0.16535359900E+01  0.11325740516E+02  0.11778482452E+02  0.51100000000E-03 0. -1.
        -11    1    3    3    0    0  0.11757536942E+02  0.26137361888E+02 -0.29894368729E+02  0.41413459689E+02  0.51100000000E-03 0.  1.
         12    1    3    3    0    0 -0.13886774150E+02 -0.27940388196E+02  0.19542137722E+02  0.36815797364E+02  0.00000000000E+00 0. -1.
</event>
<event>
 7    1  0.1756449E-015  0.9000773E+02  0.7816164E-02  0.1186339E+00
        -11   -1    0    0    0    0  0.00000000000E+00  0.00000000000E+00  0.45593999997E+02  0.45594000000E+02  0.51100000000E-03 0. -1.
         11   -1    0    0    0    0 -0.00000000000E+00 -0.00000000000E+00 -0.45593999997E+02  0.45594000000E+02  0.51100000000E-03 0.  1.
    9900012    2    1    2    0    0  0.40478230572E+00 -0.90942914748E+00  0.63414240328E+00  0.90007726016E+02  0.89999987200E+02 0.  0.
        -12    1    1    2    0    0 -0.40478230572E+00  0.90942914748E+00 -0.63414240328E+00  0.11802739839E+01  0.00000000000E+00 0.  1.
         11    1    3    3    0    0  0.17783858769E+02 -0.31864474325E+02  0.69976156550E+01  0.37156116345E+02  0.51100000000E-03 0. -1.
        -11    1    3    3    0    0 -0.10433914703E+02 -0.73354349731E+01  0.23591935502E+01  0.12970773945E+02  0.51100000000E-03 0.  1.
         12    1    3    3    0    0 -0.69451617604E+01  0.38290480151E+02 -0.87226668018E+01  0.39880835726E+02  0.00000000000E+00 0. -1.
</event>
<event>
 7    1  0.1756449E-015  0.9000779E+02  0.7816164E-02  0.1186339E+00
        -11   -1    0    0    0    0  0.00000000000E+00  0.00000000000E+00  0.45593999997E+02  0.45594000000E+02  0.51100000000E-03 0. -1.
         11   -1    0    0    0    0 -0.00000000000E+00 -0.00000000000E+00 -0.45593999997E+02  0.45594000000E+02  0.51100000000E-03 0.  1.
    9900012    2    1    2    0    0 -0.80767240540E-01  0.15112788386E+00  0.11677048088E+01  0.90007789212E+02  0.90000051229E+02 0.  0.
        -12    1    1    2    0    0  0.80767240540E-01 -0.15112788386E+00 -0.11677048088E+01  0.11802107884E+01  0.00000000000E+00 0.  1.
         11    1    3    3    0    0 -0.26478734650E+01 -0.41730601727E+02 -0.42185895991E+01  0.42026787325E+02  0.51100000000E-03 0. -1.
        -11    1    3    3    0    0 -0.48371067238E+01  0.67584747845E+01 -0.60814227516E+01  0.10298460361E+02  0.51100000000E-03 0.  1.
        -12    1    3    3    0    0  0.74042129483E+01  0.35123254826E+02  0.11467717159E+02  0.37682541526E+02  0.00000000000E+00 0.  1.
</event>
<event>
 7    1  0.1756449E-015  0.9000781E+02  0.7816164E-02  0.1186339E+00
        -11   -1    0    0    0    0  0.00000000000E+00  0.00000000000E+00  0.45593999997E+02  0.45594000000E+02  0.51100000000E-03 0.  1.
         11   -1    0    0    0    0 -0.00000000000E+00 -0.00000000000E+00 -0.45593999997E+02  0.45594000000E+02  0.51100000000E-03 0. -1.
    9900012    2    1    2    0    0  0.58206113703E+00  0.11413291258E+00 -0.10203117062E+01  0.90007806174E+02  0.90000068416E+02 0.  0.
        -12    1    1    2    0    0 -0.58206113703E+00 -0.11413291258E+00  0.10203117062E+01  0.11801938259E+01  0.00000000000E+00 0.  1.
         11    1    3    3    0    0  0.71552836485E+01 -0.32021163591E+01  0.27552841648E+01  0.83092252561E+01  0.51100000000E-03 0. -1.
        -11    1    3    3    0    0  0.13004095158E+02 -0.32240994600E+02  0.13881718451E+02  0.37433812671E+02  0.51100000000E-03 0.  1.
         12    1    3    3    0    0 -0.19577317669E+02  0.35557243872E+02 -0.17657314322E+02  0.44264768247E+02  0.00000000000E+00 0. -1.
</event>
<event>
 7    1  0.1756449E-015  0.9000739E+02  0.7816164E-02  0.1186340E+00
        -11   -1    0    0    0    0  0.00000000000E+00  0.00000000000E+00  0.45593999997E+02  0.45594000000E+02  0.51100000000E-03 0.  1.
         11   -1    0    0    0    0 -0.00000000000E+00 -0.00000000000E+00 -0.45593999997E+02  0.45594000000E+02  0.51100000000E-03 0. -1.
    9900012    2    1    2    0    0  0.78352821325E+00  0.85750222598E+00  0.21123210601E+00  0.90007387646E+02  0.89999644362E+02 0.  0.
        -12    1    1    2    0    0 -0.78352821325E+00 -0.85750222598E+00 -0.21123210601E+00  0.11806123543E+01  0.00000000000E+00 0.  1.
         11    1    3    3    0    0  0.25198116404E+02 -0.48895125216E+01 -0.28601265415E+02  0.38430258737E+02  0.51100000000E-03 0. -1.
        -11    1    3    3    0    0 -0.48374057850E+01 -0.55499966794E+01 -0.63861836139E+01  0.97460914874E+01  0.51100000000E-03 0.  1.
        -12    1    3    3    0    0 -0.19577182406E+02  0.11297011427E+02  0.35198681135E+02  0.41831037421E+02  0.00000000000E+00 0.  1.
</event>
<event>
 7    1  0.1756449E-015  0.9000773E+02  0.7816164E-02  0.1186339E+00
        -11   -1    0    0    0    0  0.00000000000E+00  0.00000000000E+00  0.45593999997E+02  0.45594000000E+02  0.51100000000E-03 0. -1.
         11   -1    0    0    0    0 -0.00000000000E+00 -0.00000000000E+00 -0.45593999997E+02  0.45594000000E+02  0.51100000000E-03 0.  1.
    9900012    2    1    2    0    0  0.32480539930E+00  0.77699116802E+00  0.82693288952E+00  0.90007732307E+02  0.89999993574E+02 0.  0.
        -12    1    1    2    0    0 -0.32480539930E+00 -0.77699116802E+00 -0.82693288952E+00  0.11802676927E+01  0.00000000000E+00 0.  1.
         11    1    3    3    0    0  0.38374529751E+02  0.18158288963E+02 -0.13098213040E+01  0.42474034701E+02  0.51100000000E-03 0. -1.
        -11    1    3    3    0    0 -0.71086515995E+01  0.54508530512E+01 -0.63640519151E+00  0.89805199391E+01  0.51100000000E-03 0.  1.
        -12    1    3    3    0    0 -0.30941072752E+02 -0.22832150846E+02  0.27731593851E+01  0.38553177668E+02  0.00000000000E+00 0.  1.
</event>
<event>
 7    1  0.1756449E-015  0.9000778E+02  0.7816164E-02  0.1186339E+00
        -11   -1    0    0    0    0  0.00000000000E+00  0.00000000000E+00  0.45593999997E+02  0.45594000000E+02  0.51100000000E-03 0. -1.
         11   -1    0    0    0    0 -0.00000000000E+00 -0.00000000000E+00 -0.45593999997E+02  0.45594000000E+02  0.51100000000E-03 0.  1.
    9900012    2    1    2    0    0  0.52573774922E-01 -0.63429525978E+00  0.99388999357E+00  0.90007783156E+02  0.90000045094E+02 0.  0.
        -12    1    1    2    0    0 -0.52573774922E-01  0.63429525978E+00 -0.99388999357E+00  0.11802168435E+01  0.00000000000E+00 0.  1.
         11    1    3    3    0    0  0.57545198911E+01  0.81894957144E+00  0.83632428829E+01  0.10184743951E+02  0.51100000000E-03 0. -1.
        -11    1    3    3    0    0 -0.31209065275E+01 -0.38529115526E+02  0.82211443950E+01  0.39519868626E+02  0.51100000000E-03 0.  1.
         12    1    3    3    0    0 -0.25810395887E+01  0.37075870695E+02 -0.15590497284E+02  0.40303170579E+02  0.00000000000E+00 0. -1.
</event>
<event>
 7    1  0.1756449E-015  0.9000778E+02  0.7816164E-02  0.1186339E+00
        -11   -1    0    0    0    0  0.00000000000E+00  0.00000000000E+00  0.45593999997E+02  0.45594000000E+02  0.51100000000E-03 0. -1.
         11   -1    0    0    0    0 -0.00000000000E+00 -0.00000000000E+00 -0.45593999997E+02  0.45594000000E+02  0.51100000000E-03 0.  1.
    9900012    2    1    2    0    0  0.11521592961E+01 -0.17434867793E+00  0.18722919912E+00  0.90007778293E+02  0.90000040166E+02 0.  0.
        -12    1    1    2    0    0 -0.11521592961E+01  0.17434867793E+00 -0.18722919912E+00  0.11802217072E+01  0.00000000000E+00 0.  1.
         11    1    3    3    0    0  0.67367936499E+01 -0.26640693871E+01  0.72714356506E+01  0.10264279374E+02  0.51100000000E-03 0. -1.
        -11    1    3    3    0    0  0.32441316101E+02  0.14945830817E+02 -0.15362302490E+02  0.38882093400E+02  0.51100000000E-03 0.  1.
         12    1    3    3    0    0 -0.38025950454E+02 -0.12456110107E+02  0.82780960381E+01  0.40861405519E+02  0.00000000000E+00 0. -1.
</event>
<event>
 7    1  0.1756449E-015  0.9000790E+02  0.7816164E-02  0.1186339E+00
        -11   -1    0    0    0    0  0.00000000000E+00  0.00000000000E+00  0.45593999997E+02  0.45594000000E+02  0.51100000000E-03 0.  1.
         11   -1    0    0    0    0 -0.00000000000E+00 -0.00000000000E+00 -0.45593999997E+02  0.45594000000E+02  0.51100000000E-03 0. -1.
    9900012    2    1    2    0    0  0.17004905690E+00  0.86544209815E+00 -0.78404131152E+00  0.90007903612E+02  0.90000167139E+02 0.  0.
        -12    1    1    2    0    0 -0.17004905690E+00 -0.86544209815E+00  0.78404131152E+00  0.11800963881E+01  0.00000000000E+00 0.  1.
         11    1    3    3    0    0 -0.57963244052E+01  0.33112178713E+01 -0.80739576435E+01  0.10476179298E+02  0.51100000000E-03 0. -1.
        -11    1    3    3    0    0  0.24751635854E+02 -0.34107737966E+02  0.80784171288E+00  0.42150134936E+02  0.51100000000E-03 0.  1.
         12    1    3    3    0    0 -0.18785262392E+02  0.31661962193E+02  0.64820746191E+01  0.37381589378E+02  0.00000000000E+00 0. -1.
</event>
<event>
 7    1  0.1756449E-015  0.9000770E+02  0.7816164E-02  0.1186339E+00
        -11   -1    0    0    0    0  0.00000000000E+00  0.00000000000E+00  0.45593999997E+02  0.45594000000E+02  0.51100000000E-03 0.  1.
         11   -1    0    0    0    0 -0.00000000000E+00 -0.00000000000E+00 -0.45593999997E+02  0.45594000000E+02  0.51100000000E-03 0. -1.
    9900012    2    1    2    0    0  0.31729431610E+00 -0.23325115701E+00 -0.11126671852E+01  0.90007699170E+02  0.89999959999E+02 0.  0.
        -12    1    1    2    0    0 -0.31729431610E+00  0.23325115701E+00  0.11126671852E+01  0.11803008304E+01  0.00000000000E+00 0.  1.
         11    1    3    3    0    0  0.28091181034E+01 -0.89472835191E+01  0.91784401726E+01  0.13122072670E+02  0.51100000000E-03 0. -1.
        -11    1    3    3    0    0  0.60556215100E+01 -0.10067831908E+01  0.32038390899E+02  0.32621199486E+02  0.51100000000E-03 0.  1.
         12    1    3    3    0    0 -0.85474452973E+01  0.97208155529E+01 -0.42329498257E+02  0.44264427013E+02  0.00000000000E+00 0. -1.
</event>
<event>
 7    1  0.1756449E-015  0.9000772E+02  0.7816164E-02  0.1186339E+00
        -11   -1    0    0    0    0  0.00000000000E+00  0.00000000000E+00  0.45593999997E+02  0.45594000000E+02  0.51100000000E-03 0.  1.
         11   -1    0    0    0    0 -0.00000000000E+00 -0.00000000000E+00 -0.45593999997E+02  0.45594000000E+02  0.51100000000E-03 0. -1.
    9900012    2    1    2    0    0  0.29771888561E+00  0.80818571154E+00 -0.80701308166E+00  0.90007715800E+02  0.89999976848E+02 0.  0.
        -12    1    1    2    0    0 -0.29771888561E+00 -0.80818571154E+00  0.80701308166E+00  0.11802842002E+01  0.00000000000E+00 0.  1.
         11    1    3    3    0    0 -0.18600837302E+02 -0.14209946068E+02 -0.34509744694E+02  0.41699354848E+02  0.51100000000E-03 0. -1.
        -11    1    3    3    0    0  0.79197551156E+01  0.11586743949E+02  0.15020818895E+01  0.14114935590E+02  0.51100000000E-03 0.  1.
        -12    1    3    3    0    0  0.10978801072E+02  0.34313878304E+01  0.32200649723E+02  0.34193425362E+02  0.00000000000E+00 0.  1.
</event>
<event>
 7    1  0.1756449E-015  0.9000804E+02  0.7816164E-02  0.1186338E+00
        -11   -1    0    0    0    0  0.00000000000E+00  0.00000000000E+00  0.45593999997E+02  0.45594000000E+02  0.51100000000E-03 0. -1.
         11   -1    0    0    0    0 -0.00000000000E+00 -0.00000000000E+00 -0.45593999997E+02  0.45594000000E+02  0.51100000000E-03 0.  1.
    9900012    2    1    2    0    0 -0.40934452622E+00 -0.10762725774E+01 -0.25762136468E+00  0.90008044760E+02  0.90000310150E+02 0.  0.
        -12    1    1    2    0    0  0.40934452622E+00  0.10762725774E+01  0.25762136468E+00  0.11799552405E+01  0.00000000000E+00 0.  1.
         11    1    3    3    0    0  0.50745187623E+01 -0.13457388422E+02  0.49950197094E+01  0.15225053890E+02  0.51100000000E-03 0. -1.
        -11    1    3    3    0    0  0.27997190882E+02 -0.14521749923E+02 -0.42178733616E+01  0.31820031019E+02  0.51100000000E-03 0.  1.
         12    1    3    3    0    0 -0.33481054170E+02  0.26902865768E+02 -0.10347677126E+01  0.42962959850E+02  0.00000000000E+00 0. -1.
</event>
<event>
 7    1  0.1756449E-015  0.9000781E+02  0.7816164E-02  0.1186339E+00
        -11   -1    0    0    0    0  0.00000000000E+00  0.00000000000E+00  0.45593999997E+02  0.45594000000E+02  0.51100000000E-03 0.  1.
         11   -1    0    0    0    0 -0.00000000000E+00 -0.00000000000E+00 -0.45593999997E+02  0.45594000000E+02  0.51100000000E-03 0. -1.
    9900012    2    1    2    0    0  0.47646649648E+00 -0.52234914202E+00 -0.94497868293E+00  0.90007807787E+02  0.90000070050E+02 0.  0.
        -12    1    1    2    0    0 -0.47646649648E+00  0.52234914202E+00  0.94497868293E+00  0.11801922130E+01  0.00000000000E+00 0.  1.
         11    1    3    3    0    0  0.30914774702E+02  0.20661645784E+02 -0.86273524239E+01  0.38171430566E+02  0.51100000000E-03 0. -1.
        -11    1    3    3    0    0  0.11432419005E+01  0.58308409518E+01  0.83778304809E+01  0.10271015143E+02  0.51100000000E-03 0.  1.
        -12    1    3    3    0    0 -0.31581550106E+02 -0.27014835877E+02 -0.69545674000E+00  0.41565362078E+02  0.00000000000E+00 0.  1.
</event>
<event>
 7    1  0.1756449E-015  0.9000781E+02  0.7816164E-02  0.1186339E+00
        -11   -1    0    0    0    0  0.00000000000E+00  0.00000000000E+00  0.45593999997E+02  0.45594000000E+02  0.51100000000E-03 0.  1.
         11   -1    0    0    0    0 -0.00000000000E+00 -0.00000000000E+00 -0.45593999997E+02  0.45594000000E+02  0.51100000000E-03 0. -1.
    9900012    2    1    2    0    0  0.37074172852E+00 -0.10725156853E+01 -0.32422200242E+00  0.90007805427E+02  0.90000067658E+02 0.  0.
        -12    1    1    2    0    0 -0.37074172852E+00  0.10725156853E+01  0.32422200242E+00  0.11801945735E+01  0.00000000000E+00 0.  1.
         11    1    3    3    0    0 -0.74280201233E+01  0.41026490092E+01  0.23363064116E+01  0.88014510028E+01  0.51100000000E-03 0. -1.
        -11    1    3    3    0    0  0.25194281930E+02 -0.28818243517E+02  0.20859053990E+02  0.43592925286E+02  0.51100000000E-03 0.  1.
         12    1    3    3    0    0 -0.17395520079E+02  0.23643078823E+02 -0.23519582404E+02  0.37613429137E+02  0.00000000000E+00 0. -1.
</event>
<event>
 7    1  0.1756449E-015  0.9000778E+02  0.7816164E-02  0.1186339E+00
        -11   -1    0    0    0    0  0.00000000000E+00  0.00000000000E+00  0.45593999997E+02  0.45594000000E+02  0.51100000000E-03 0.  1.
         11   -1    0    0    0    0 -0.00000000000E+00 -0.00000000000E+00 -0.45593999997E+02  0.45594000000E+02  0.51100000000E-03 0. -1.
    9900012    2    1    2    0    0 -0.70599267024E+00  0.85700564744E+00 -0.40004949427E+00  0.90007778017E+02  0.90000039887E+02 0.  0.
        -12    1    1    2    0    0  0.70599267024E+00 -0.85700564744E+00  0.40004949427E+00  0.11802219825E+01  0.00000000000E+00 0.  1.
         11    1    3    3    0    0 -0.57799144925E+01 -0.37067197991E+02 -0.10231867815E+02  0.38885417546E+02  0.51100000000E-03 0. -1.
        -11    1    3    3    0    0 -0.42232474763E+01 -0.25043174620E+01  0.82596562120E+01  0.96088160664E+01  0.51100000000E-03 0.  1.
        -12    1    3    3    0    0  0.92971692986E+01  0.40428521101E+02  0.15721621088E+01  0.41513544405E+02  0.00000000000E+00 0.  1.
</event>
<event>
 7    1  0.1756449E-015  0.9000838E+02  0.7816164E-02  0.1186338E+00
        -11   -1    0    0    0    0  0.00000000000E+00  0.00000000000E+00  0.45593999997E+02  0.45594000000E+02  0.51100000000E-03 0. -1.
         11   -1    0    0    0    0 -0.00000000000E+00 -0.00000000000E+00 -0.45593999997E+02  0.45594000000E+02  0.51100000000E-03 0.  1.
    9900012    2    1    2    0    0  0.11764718534E+01  0.70780158200E-01 -0.49099085259E-01  0.90008378632E+02  0.90000648427E+02 0.  0.
        -12    1    1    2    0    0 -0.11764718534E+01 -0.70780158200E-01  0.49099085259E-01  0.11796213684E+01  0.00000000000E+00 0.  1.
         11    1    3    3    0    0  0.46583712944E+01  0.79994570395E+01  0.25747950169E+02  0.27361445032E+02  0.51100000000E-03 0. -1.
        -11    1    3    3    0    0 -0.57478911020E+01  0.10508885172E+02  0.14181627402E+02  0.18563229129E+02  0.51100000000E-03 0.  1.
        -12    1    3    3    0    0  0.22659916610E+01 -0.18437562053E+02 -0.39978676656E+02  0.44083704471E+02  0.00000000000E+00 0.  1.
</event>
<event>
 7    1  0.1756449E-015  0.9000770E+02  0.7816164E-02  0.1186339E+00
        -11   -1    0    0    0    0  0.00000000000E+00  0.00000000000E+00  0.45593999997E+02  0.45594000000E+02  0.51100000000E-03 0.  1.
         11   -1    0    0    0    0 -0.00000000000E+00 -0.00000000000E+00 -0.45593999997E+02  0.45594000000E+02  0.51100000000E-03 0. -1.
    9900012    2    1    2    0    0  0.63287979370E+00 -0.54062020806E+00 -0.83683694008E+00  0.90007702111E+02  0.89999962979E+02 0.  0.
        -12    1    1    2    0    0 -0.63287979370E+00  0.54062020806E+00  0.83683694008E+00  0.11802978891E+01  0.00000000000E+00 0.  1.
         11    1    3    3    0    0 -0.15271784654E+01  0.36738063448E+02 -0.19568189756E+01  0.36821823974E+02  0.51100000000E-03 0. -1.
        -11    1    3    3    0    0 -0.82089702131E+01  0.41905353525E+01 -0.41657432409E+01  0.10114405346E+02  0.51100000000E-03 0.  1.
        -12    1    3    3    0    0  0.10369028472E+02 -0.41469219009E+02  0.52857252764E+01  0.43071472791E+02  0.00000000000E+00 0.  1.
</event>
<event>
 7    1  0.1756449E-015  0.9000790E+02  0.7816164E-02  0.1186339E+00
        -11   -1    0    0    0    0  0.00000000000E+00  0.00000000000E+00  0.45593999997E+02  0.45594000000E+02  0.51100000000E-03 0.  1.
         11   -1    0    0    0    0 -0.00000000000E+00 -0.00000000000E+00 -0.45593999997E+02  0.45594000000E+02  0.51100000000E-03 0. -1.
    9900012    2    1    2    0    0  0.86068707099E+00 -0.79389895825E+00  0.14686145278E+00  0.90007904209E+02  0.90000167744E+02 0.  0.
        -12    1    1    2    0    0 -0.86068707099E+00  0.79389895825E+00 -0.14686145278E+00  0.11800957912E+01  0.00000000000E+00 0.  1.
         11    1    3    3    0    0  0.21113864450E+02  0.33364755968E+02  0.27604457867E+01  0.39580579506E+02  0.51100000000E-03 0. -1.
        -11    1    3    3    0    0  0.21271570992E+01 -0.18680198194E+00 -0.89981927183E+01  0.92480897899E+01  0.51100000000E-03 0.  1.
        -12    1    3    3    0    0 -0.22380334478E+02 -0.33971852944E+02  0.63846083843E+01  0.41179234913E+02  0.00000000000E+00 0.  1.
</event>
<event>
 7    1  0.1756449E-015  0.9000765E+02  0.7816164E-02  0.1186339E+00
        -11   -1    0    0    0    0  0.00000000000E+00  0.00000000000E+00  0.45593999997E+02  0.45594000000E+02  0.51100000000E-03 0. -1.
         11   -1    0    0    0    0 -0.00000000000E+00 -0.00000000000E+00 -0.45593999997E+02  0.45594000000E+02  0.51100000000E-03 0.  1.
    9900012    2    1    2    0    0 -0.72094389554E+00 -0.49488838292E+00  0.79281567619E+00  0.90007647803E+02  0.89999907954E+02 0.  0.
        -12    1    1    2    0    0  0.72094389554E+00  0.49488838292E+00 -0.79281567619E+00  0.11803521968E+01  0.00000000000E+00 0.  1.
         11    1    3    3    0    0 -0.50714479122E+00 -0.21176007419E+02 -0.32512772878E+01  0.21430149096E+02  0.51100000000E-03 0. -1.
        -11    1    3    3    0    0 -0.17786389681E+02  0.30265615929E+02 -0.17453091743E+02  0.39204254579E+02  0.51100000000E-03 0.  1.
         12    1    3    3    0    0  0.17572590576E+02 -0.95844968933E+01  0.21497184707E+02  0.29373244128E+02  0.00000000000E+00 0. -1.
</event>
<event>
 7    1  0.1756449E-015  0.9000794E+02  0.7816164E-02  0.1186339E+00
        -11   -1    0    0    0    0  0.00000000000E+00  0.00000000000E+00  0.45593999997E+02  0.45594000000E+02  0.51100000000E-03 0.  1.
         11   -1    0    0    0    0 -0.00000000000E+00 -0.00000000000E+00 -0.45593999997E+02  0.45594000000E+02  0.51100000000E-03 0. -1.
    9900012    2    1    2    0    0  0.19776559904E+00 -0.80236181557E+00  0.84240231633E+00  0.90007941790E+02  0.90000205822E+02 0.  0.
        -12    1    1    2    0    0 -0.19776559904E+00  0.80236181557E+00 -0.84240231633E+00  0.11800582095E+01  0.00000000000E+00 0.  1.
         11    1    3    3    0    0 -0.23751614285E+00 -0.15264718212E+01  0.10191192362E+02  0.10307615251E+02  0.51100000000E-03 0. -1.
        -11    1    3    3    0    0  0.47912432506E+01 -0.28275189352E+02  0.22467576377E+02  0.36431227447E+02  0.51100000000E-03 0.  1.
         12    1    3    3    0    0 -0.43559615087E+01  0.28999299358E+02 -0.31816366423E+02  0.43269099092E+02  0.00000000000E+00 0. -1.
</event>
<event>
 7    1  0.1756449E-015  0.9000771E+02  0.7816164E-02  0.1186339E+00
        -11   -1    0    0    0    0  0.00000000000E+00  0.00000000000E+00  0.45593999997E+02  0.45594000000E+02  0.51100000000E-03 0. -1.
         11   -1    0    0    0    0 -0.00000000000E+00 -0.00000000000E+00 -0.45593999997E+02  0.45594000000E+02  0.51100000000E-03 0.  1.
    9900012    2    1    2    0    0  0.21620795500E+00  0.80558922916E-01  0.11575227301E+01  0.90007705761E+02  0.89999966677E+02 0.  0.
        -12    1    1    2    0    0 -0.21620795500E+00 -0.80558922916E-01 -0.11575227301E+01  0.11802942390E+01  0.00000000000E+00 0.  1.
         11    1    3    3    0    0 -0.22891616641E+02  0.82565228717E+00 -0.22403179667E+02  0.32040759567E+02  0.51100000000E-03 0. -1.
        -11    1    3    3    0    0 -0.10144978543E+02  0.10230198823E+02 -0.20922176500E+01  0.14558672074E+02  0.51100000000E-03 0.  1.
        -12    1    3    3    0    0  0.33252803139E+02 -0.10975292187E+02  0.25652920047E+02  0.43408274121E+02  0.00000000000E+00 0.  1.
</event>
<event>
 7    1  0.1756449E-015  0.9000776E+02  0.7816164E-02  0.1186339E+00
        -11   -1    0    0    0    0  0.00000000000E+00  0.00000000000E+00  0.45593999997E+02  0.45594000000E+02  0.51100000000E-03 0.  1.
         11   -1    0    0    0    0 -0.00000000000E+00 -0.00000000000E+00 -0.45593999997E+02  0.45594000000E+02  0.51100000000E-03 0. -1.
    9900012    2    1    2    0    0 -0.75076964612E+00 -0.90453792432E+00  0.10546240814E+00  0.90007760093E+02  0.90000021726E+02 0.  0.
        -12    1    1    2    0    0  0.75076964612E+00  0.90453792432E+00 -0.10546240814E+00  0.11802399068E+01  0.00000000000E+00 0.  1.
         11    1    3    3    0    0 -0.23846772446E+01 -0.32144331286E+02  0.16456513682E+02  0.36190628099E+02  0.51100000000E-03 0. -1.
        -11    1    3    3    0    0 -0.52111555883E+00 -0.43705848227E+01  0.90223085880E+01  0.10038706373E+02  0.51100000000E-03 0.  1.
        -12    1    3    3    0    0  0.21550231573E+01  0.35610378184E+02 -0.25373359862E+02  0.43778425622E+02  0.00000000000E+00 0.  1.
</event>
<event>
 7    1  0.1756449E-015  0.9000766E+02  0.7816164E-02  0.1186339E+00
        -11   -1    0    0    0    0  0.00000000000E+00  0.00000000000E+00  0.45593999997E+02  0.45594000000E+02  0.51100000000E-03 0.  1.
         11   -1    0    0    0    0 -0.00000000000E+00 -0.00000000000E+00 -0.45593999997E+02  0.45594000000E+02  0.51100000000E-03 0. -1.
    9900012    2    1    2    0    0 -0.12886643435E+00  0.11366724897E+01  0.29079246833E+00  0.90007664808E+02  0.89999925183E+02 0.  0.
        -12    1    1    2    0    0  0.12886643435E+00 -0.11366724897E+01 -0.29079246833E+00  0.11803351924E+01  0.00000000000E+00 0.  1.
         11    1    3    3    0    0 -0.67659775489E+01  0.59505956042E+01 -0.39876415692E+01  0.98533915878E+01  0.51100000000E-03 0. -1.
        -11    1    3    3    0    0 -0.10745354500E+02 -0.30867850496E+01  0.39385502749E+02  0.40941527967E+02  0.51100000000E-03 0.  1.
         12    1    3    3    0    0  0.17382465615E+02 -0.17271380648E+01 -0.35107068711E+02  0.39212745252E+02  0.00000000000E+00 0. -1.
</event>
<event>
 7    1  0.1756449E-015  0.9000777E+02  0.7816164E-02  0.1186339E+00
        -11   -1    0    0    0    0  0.00000000000E+00  0.00000000000E+00  0.45593999997E+02  0.45594000000E+02  0.51100000000E-03 0. -1.
         11   -1    0    0    0    0 -0.00000000000E+00 -0.00000000000E+00 -0.45593999997E+02  0.45594000000E+02  0.51100000000E-03 0.  1.
    9900012    2    1    2    0    0 -0.36490125526E+00  0.23080813322E+00  0.10984179683E+01  0.90007768093E+02  0.90000029832E+02 0.  0.
        -12    1    1    2    0    0  0.36490125525E+00 -0.23080813322E+00 -0.10984179683E+01  0.11802319067E+01  0.00000000000E+00 0.  1.
         11    1    3    3    0    0 -0.10660532003E+02 -0.21533682546E+02  0.23090859313E+02  0.33324678703E+02  0.51100000000E-03 0. -1.
        -11    1    3    3    0    0 -0.12376143620E+02 -0.88767765541E+00  0.63152757987E+01  0.13922629464E+02  0.51100000000E-03 0.  1.
        -12    1    3    3    0    0  0.22671774368E+02  0.22652168334E+02 -0.28307717143E+02  0.42760459926E+02  0.00000000000E+00 0.  1.
</event>
<event>
 7    1  0.1756449E-015  0.9000769E+02  0.7816164E-02  0.1186339E+00
        -11   -1    0    0    0    0  0.00000000000E+00  0.00000000000E+00  0.45593999997E+02  0.45594000000E+02  0.51100000000E-03 0. -1.
         11   -1    0    0    0    0 -0.00000000000E+00 -0.00000000000E+00 -0.45593999997E+02  0.45594000000E+02  0.51100000000E-03 0.  1.
    9900012    2    1    2    0    0  0.52984645866E-01 -0.95416369566E-01  0.11752545601E+01  0.90007688627E+02  0.89999949317E+02 0.  0.
        -12    1    1    2    0    0 -0.52984645866E-01  0.95416369566E-01 -0.11752545601E+01  0.11803113730E+01  0.00000000000E+00 0.  1.
         11    1    3    3    0    0 -0.34529288602E+02  0.31871291381E+01 -0.72180351520E+01  0.35419339283E+02  0.51100000000E-03 0. -1.
        -11    1    3    3    0    0 -0.33611306854E+01  0.69255309878E+01 -0.88059683704E+01  0.11696377993E+02  0.51100000000E-03 0.  1.
        -12    1    3    3    0    0  0.37943403934E+02 -0.10208076495E+02  0.17199258083E+02  0.42891971351E+02  0.00000000000E+00 0.  1.
</event>
<event>
 7    1  0.1756449E-015  0.9000756E+02  0.7816164E-02  0.1186339E+00
        -11   -1    0    0    0    0  0.00000000000E+00  0.00000000000E+00  0.45593999997E+02  0.45594000000E+02  0.51100000000E-03 0. -1.
         11   -1    0    0    0    0 -0.00000000000E+00 -0.00000000000E+00 -0.45593999997E+02  0.45594000000E+02  0.51100000000E-03 0.  1.
    9900012    2    1    2    0    0  0.88445135520E+00 -0.45041672320E+00 -0.63899819182E+00  0.90007555968E+02  0.89999814906E+02 0.  0.
        -12    1    1    2    0    0 -0.88445135520E+00  0.45041672320E+00  0.63899819182E+00  0.11804440323E+01  0.00000000000E+00 0.  1.
         11    1    3    3    0    0 -0.17935684229E+02  0.14702946043E+02  0.33236650185E+02  0.40528265530E+02  0.51100000000E-03 0. -1.
        -11    1    3    3    0    0  0.54635010517E+01  0.53148535235E+01  0.10392576588E+00  0.76228808560E+01  0.51100000000E-03 0.  1.
        -12    1    3    3    0    0  0.13356634532E+02 -0.20468216290E+02 -0.33979574143E+02  0.41856409581E+02  0.00000000000E+00 0.  1.
</event>
<event>
 7    1  0.1756449E-015  0.9000774E+02  0.7816164E-02  0.1186339E+00
        -11   -1    0    0    0    0  0.00000000000E+00  0.00000000000E+00  0.45593999997E+02  0.45594000000E+02  0.51100000000E-03 0.  1.
         11   -1    0    0    0    0 -0.00000000000E+00 -0.00000000000E+00 -0.45593999997E+02  0.45594000000E+02  0.51100000000E-03 0. -1.
    9900012    2    1    2    0    0  0.92358286397E+00  0.12142314960E+00 -0.72475538653E+00  0.90007737632E+02  0.89999998968E+02 0.  0.
        -12    1    1    2    0    0 -0.92358286397E+00 -0.12142314960E+00  0.72475538653E+00  0.11802623684E+01  0.00000000000E+00 0.  1.
         11    1    3    3    0    0 -0.16918613537E+02 -0.38333819036E+02  0.57990245565E+01  0.42300707464E+02  0.51100000000E-03 0. -1.
        -11    1    3    3    0    0  0.45035867917E+01  0.35364858962E+01  0.59915968959E+01  0.82878380841E+01  0.51100000000E-03 0.  1.
        -12    1    3    3    0    0  0.13338609610E+02  0.34918756289E+02 -0.12515376839E+02  0.39419192084E+02  0.00000000000E+00 0.  1.
</event>
<event>
 7    1  0.1756449E-015  0.9000759E+02  0.7816164E-02  0.1186339E+00
        -11   -1    0    0    0    0  0.00000000000E+00  0.00000000000E+00  0.45593999997E+02  0.45594000000E+02  0.51100000000E-03 0.  1.
         11   -1    0    0    0    0 -0.00000000000E+00 -0.00000000000E+00 -0.45593999997E+02  0.45594000000E+02  0.51100000000E-03 0. -1.
    9900012    2    1    2    0    0  0.51718980722E+00 -0.10602594144E+01  0.41624251724E-01  0.90007589944E+02  0.89999849331E+02 0.  0.
        -12    1    1    2    0    0 -0.51718980722E+00  0.10602594144E+01 -0.41624251724E-01  0.11804100562E+01  0.00000000000E+00 0.  1.
         11    1    3    3    0    0 -0.58766498666E+01 -0.38873393728E+02 -0.14724223475E+02  0.41981883126E+02  0.51100000000E-03 0. -1.
        -11    1    3    3    0    0 -0.74495011112E+01  0.27820059863E+01  0.36711768798E+01  0.87585480565E+01  0.51100000000E-03 0.  1.
        -12    1    3    3    0    0  0.13843340785E+02  0.35031128328E+02  0.11094670847E+02  0.39267158761E+02  0.00000000000E+00 0.  1.
</event>
<event>
 7    1  0.1756449E-015  0.9000798E+02  0.7816164E-02  0.1186339E+00
        -11   -1    0    0    0    0  0.00000000000E+00  0.00000000000E+00  0.45593999997E+02  0.45594000000E+02  0.51100000000E-03 0.  1.
         11   -1    0    0    0    0 -0.00000000000E+00 -0.00000000000E+00 -0.45593999997E+02  0.45594000000E+02  0.51100000000E-03 0. -1.
    9900012    2    1    2    0    0 -0.84826513478E-02 -0.11731503509E+01 -0.12681913380E+00  0.90007984410E+02  0.90000249003E+02 0.  0.
        -12    1    1    2    0    0  0.84826513478E-02  0.11731503509E+01  0.12681913380E+00  0.11800155905E+01  0.00000000000E+00 0.  1.
         11    1    3    3    0    0  0.73346072019E+01  0.24475894508E+01 -0.27185243474E+01  0.81961900792E+01  0.51100000000E-03 0. -1.
        -11    1    3    3    0    0  0.33761369115E+02  0.10853361118E+01  0.17237790118E+02  0.37922940385E+02  0.51100000000E-03 0.  1.
         12    1    3    3    0    0 -0.41104458969E+02 -0.47060759135E+01 -0.14646084904E+02  0.43888853945E+02  0.00000000000E+00 0. -1.
</event>
<event>
 7    1  0.1756449E-015  0.9000768E+02  0.7816164E-02  0.1186339E+00
        -11   -1    0    0    0    0  0.00000000000E+00  0.00000000000E+00  0.45593999997E+02  0.45594000000E+02  0.51100000000E-03 0. -1.
         11   -1    0    0    0    0 -0.00000000000E+00 -0.00000000000E+00 -0.45593999997E+02  0.45594000000E+02  0.51100000000E-03 0.  1.
    9900012    2    1    2    0    0 -0.77938380114E-01 -0.86579996375E+00  0.79842213674E+00  0.90007677215E+02  0.89999937754E+02 0.  0.
        -12    1    1    2    0    0  0.77938380114E-01  0.86579996375E+00 -0.79842213674E+00  0.11803227850E+01  0.00000000000E+00 0.  1.
         11    1    3    3    0    0 -0.13321566357E+02 -0.30691135708E+02  0.10248557954E+02  0.34992040261E+02  0.51100000000E-03 0. -1.
        -11    1    3    3    0    0  0.59244326547E+01 -0.87433722236E+01 -0.11615124155E+02  0.15698935299E+02  0.51100000000E-03 0.  1.
        -12    1    3    3    0    0  0.73191953217E+01  0.38568707968E+02  0.21649883384E+01  0.39316701655E+02  0.00000000000E+00 0.  1.
</event>
<event>
 7    1  0.1756449E-015  0.9000750E+02  0.7816164E-02  0.1186340E+00
        -11   -1    0    0    0    0  0.00000000000E+00  0.00000000000E+00  0.45593999997E+02  0.45594000000E+02  0.51100000000E-03 0.  1.
         11   -1    0    0    0    0 -0.00000000000E+00 -0.00000000000E+00 -0.45593999997E+02  0.45594000000E+02  0.51100000000E-03 0. -1.
    9900012    2    1    2    0    0 -0.21689455939E+00 -0.81407055424E+00  0.82694379144E+00  0.90007495806E+02  0.89999753951E+02 0.  0.
        -12    1    1    2    0    0  0.21689455939E+00  0.81407055424E+00 -0.82694379144E+00  0.11805041937E+01  0.00000000000E+00 0.  1.
         11    1    3    3    0    0  0.39012337777E+01 -0.17618328938E+02 -0.35696646646E+02  0.39998446489E+02  0.51100000000E-03 0. -1.
        -11    1    3    3    0    0  0.22172854425E+00 -0.81646628819E+01  0.50598807959E+01  0.96079798841E+01  0.51100000000E-03 0.  1.
        -12    1    3    3    0    0 -0.43398568813E+01  0.24968921265E+02  0.31463709642E+02  0.40401069433E+02  0.00000000000E+00 0.  1.
</event>
<event>
 7    1  0.1909676E-015  0.9000772E+02  0.7816164E-02  0.1186339E+00
        -11   -1    0    0    0    0  0.00000000000E+00  0.00000000000E+00  0.45593999997E+02  0.45594000000E+02  0.51100000000E-03 0. -1.
         11   -1    0    0    0    0 -0.00000000000E+00 -0.00000000000E+00 -0.45593999997E+02  0.45594000000E+02  0.51100000000E-03 0.  1.
    9900012    2    1    2    0    0 -0.22729535340E+00  0.89703765120E+00  0.73261319866E+00  0.90007719599E+02  0.89999980698E+02 0.  0.
        -12    1    1    2    0    0  0.22729535340E+00 -0.89703765120E+00 -0.73261319866E+00  0.11802804007E+01  0.00000000000E+00 0.  1.
         11    1    3    3    0    0  0.55501654045E+01 -0.52766742801E+01 -0.62329171050E+01  0.98740510114E+01  0.51100000000E-03 0. -1.
        -11    1    3    3    0    0 -0.30083720298E+02  0.48565400663E+01 -0.25375823790E+02  0.39655373427E+02  0.51100000000E-03 0.  1.
         12    1    3    3    0    0  0.24306259540E+02  0.13171718651E+01  0.32341354093E+02  0.40478295161E+02  0.00000000000E+00 0. -1.
</event>
<event>
 7    1  0.1756449E-015  0.9000772E+02  0.7816164E-02  0.1186339E+00
        -11   -1    0    0    0    0  0.00000000000E+00  0.00000000000E+00  0.45593999997E+02  0.45594000000E+02  0.51100000000E-03 0. -1.
         11   -1    0    0    0    0 -0.00000000000E+00 -0.00000000000E+00 -0.45593999997E+02  0.45594000000E+02  0.51100000000E-03 0.  1.
    9900012    2    1    2    0    0 -0.49777540856E+00  0.88357298582E+00  0.60379535856E+00  0.90007724433E+02  0.89999985596E+02 0.  0.
        -12    1    1    2    0    0  0.49777540856E+00 -0.88357298582E+00 -0.60379535856E+00  0.11802755668E+01  0.00000000000E+00 0.  1.
         11    1    3    3    0    0  0.97013808221E+01 -0.28217141987E+02  0.27344106273E+02  0.40472509681E+02  0.51100000000E-03 0. -1.
        -11    1    3    3    0    0 -0.97044376047E+01 -0.31011904884E-01  0.40576097584E+00  0.97129662406E+01  0.51100000000E-03 0.  1.
        -12    1    3    3    0    0 -0.49471862605E+00  0.29131726878E+02 -0.27146071890E+02  0.39822248511E+02  0.00000000000E+00 0.  1.
</event>
<event>
 7    1  0.1756449E-015  0.9000833E+02  0.7816164E-02  0.1186338E+00
        -11   -1    0    0    0    0  0.00000000000E+00  0.00000000000E+00  0.45593999997E+02  0.45594000000E+02  0.51100000000E-03 0. -1.
         11   -1    0    0    0    0 -0.00000000000E+00 -0.00000000000E+00 -0.45593999997E+02  0.45594000000E+02  0.51100000000E-03 0.  1.
    9900012    2    1    2    0    0  0.33622215646E+00 -0.39591884733E+00  0.10591638562E+01  0.90008328374E+02  0.90000597506E+02 0.  0.
        -12    1    1    2    0    0 -0.33622215646E+00  0.39591884733E+00 -0.10591638562E+01  0.11796716265E+01  0.00000000000E+00 0.  1.
         11    1    3    3    0    0 -0.18555261972E+02 -0.10119776385E+02  0.25840307721E-01  0.21135474655E+02  0.51100000000E-03 0. -1.
        -11    1    3    3    0    0  0.50660414983E+00  0.10127730493E+02 -0.30625546970E+02  0.32260683505E+02  0.51100000000E-03 0.  1.
         12    1    3    3    0    0  0.18384879979E+02 -0.40387295508E+00  0.31658870519E+02  0.36612170213E+02  0.00000000000E+00 0. -1.
</event>
<event>
 7    1  0.1756449E-015  0.9000794E+02  0.7816164E-02  0.1186339E+00
        -11   -1    0    0    0    0  0.00000000000E+00  0.00000000000E+00  0.45593999997E+02  0.45594000000E+02  0.51100000000E-03 0. -1.
         11   -1    0    0    0    0 -0.00000000000E+00 -0.00000000000E+00 -0.45593999997E+02  0.45594000000E+02  0.51100000000E-03 0.  1.
    9900012    2    1    2    0    0  0.11324638369E+01  0.18138610320E+00  0.27778606849E+00  0.90007940527E+02  0.90000204542E+02 0.  0.
        -12    1    1    2    0    0 -0.11324638369E+01 -0.18138610320E+00 -0.27778606849E+00  0.11800594731E+01  0.00000000000E+00 0.  1.
         11    1    3    3    0    0 -0.49297852294E+01 -0.10049096966E+02 -0.30157383336E+01  0.11592316860E+02  0.51100000000E-03 0. -1.
        -11    1    3    3    0    0 -0.50353006649E+01 -0.76381052112E+01 -0.34212175932E+02  0.35414232820E+02  0.51100000000E-03 0.  1.
         12    1    3    3    0    0  0.11097549731E+02  0.17868588280E+02  0.37505700334E+02  0.43001390846E+02  0.00000000000E+00 0. -1.
</event>
<event>
 7    1  0.1756449E-015  0.9000770E+02  0.7816164E-02  0.1186339E+00
        -11   -1    0    0    0    0  0.00000000000E+00  0.00000000000E+00  0.45593999997E+02  0.45594000000E+02  0.51100000000E-03 0. -1.
         11   -1    0    0    0    0 -0.00000000000E+00 -0.00000000000E+00 -0.45593999997E+02  0.45594000000E+02  0.51100000000E-03 0.  1.
    9900012    2    1    2    0    0 -0.43842889022E+00 -0.92039390111E+00 -0.59477667518E+00  0.90007701682E+02  0.89999962545E+02 0.  0.
        -12    1    1    2    0    0  0.43842889022E+00  0.92039390111E+00  0.59477667518E+00  0.11802983175E+01  0.00000000000E+00 0.  1.
         11    1    3    3    0    0  0.14170746542E+01 -0.28926843528E+02  0.31351856712E+02  0.42681486579E+02  0.51100000000E-03 0. -1.
        -11    1    3    3    0    0  0.47981830000E+01  0.28076196694E+01  0.64363942563E+00  0.55963881460E+01  0.51100000000E-03 0.  1.
        -12    1    3    3    0    0 -0.66536865444E+01  0.25198829958E+02 -0.32590272813E+02  0.41729826957E+02  0.00000000000E+00 0.  1.
</event>
<event>
 7    1  0.1756449E-015  0.9000789E+02  0.7816164E-02  0.1186339E+00
        -11   -1    0    0    0    0  0.00000000000E+00  0.00000000000E+00  0.45593999997E+02  0.45594000000E+02  0.51100000000E-03 0.  1.
         11   -1    0    0    0    0 -0.00000000000E+00 -0.00000000000E+00 -0.45593999997E+02  0.45594000000E+02  0.51100000000E-03 0. -1.
    9900012    2    1    2    0    0  0.11448113655E+01  0.16571209629E+00  0.23365851276E+00  0.90007894131E+02  0.90000157533E+02 0.  0.
        -12    1    1    2    0    0 -0.11448113655E+01 -0.16571209629E+00 -0.23365851276E+00  0.11801058690E+01  0.00000000000E+00 0.  1.
         11    1    3    3    0    0 -0.34681965821E+01  0.46851485196E+01  0.90826552980E+01  0.10792295016E+02  0.51100000000E-03 0. -1.
        -11    1    3    3    0    0  0.31927287082E+02  0.62083421233E+01 -0.29033502930E+02  0.43598617695E+02  0.51100000000E-03 0.  1.
         12    1    3    3    0    0 -0.27314279134E+02 -0.10727778547E+02  0.20184506145E+02  0.35616981420E+02  0.00000000000E+00 0. -1.
</event>
<event>
 7    1  0.1756449E-015  0.9000774E+02  0.7816164E-02  0.1186339E+00
        -11   -1    0    0    0    0  0.00000000000E+00  0.00000000000E+00  0.45593999997E+02  0.45594000000E+02  0.51100000000E-03 0. -1.
         11   -1    0    0    0    0 -0.00000000000E+00 -0.00000000000E+00 -0.45593999997E+02  0.45594000000E+02  0.51100000000E-03 0.  1.
    9900012    2    1    2    0    0  0.36080275923E+00  0.59939268188E+00  0.95055454831E+00  0.90007744025E+02  0.90000005446E+02 0.  0.
        -12    1    1    2    0    0 -0.36080275923E+00 -0.59939268188E+00 -0.95055454831E+00  0.11802559754E+01  0.00000000000E+00 0.  1.
         11    1    3    3    0    0  0.22245934887E+02  0.30225242642E+02  0.21922415329E+02  0.43463078652E+02  0.51100000000E-03 0. -1.
        -11    1    3    3    0    0  0.28908499709E+01 -0.67369681269E+01 -0.66561871600E+01  0.99019483369E+01  0.51100000000E-03 0.  1.
        -12    1    3    3    0    0 -0.24775982099E+02 -0.22888881833E+02 -0.14315673621E+02  0.36642717036E+02  0.00000000000E+00 0.  1.
</event>
<event>
 7    1  0.1756449E-015  0.9000788E+02  0.7816164E-02  0.1186339E+00
        -11   -1    0    0    0    0  0.00000000000E+00  0.00000000000E+00  0.45593999997E+02  0.45594000000E+02  0.51100000000E-03 0.  1.
         11   -1    0    0    0    0 -0.00000000000E+00 -0.00000000000E+00 -0.45593999997E+02  0.45594000000E+02  0.51100000000E-03 0. -1.
    9900012    2    1    2    0    0  0.47749362801E+00  0.10783849737E+01 -0.41955011936E-01  0.90007883676E+02  0.90000146940E+02 0.  0.
        -12    1    1    2    0    0 -0.47749362801E+00 -0.10783849737E+01  0.41955011936E-01  0.11801163244E+01  0.00000000000E+00 0.  1.
         11    1    3    3    0    0  0.30413493572E+02 -0.17408756623E+02  0.11101984988E+02  0.36760025426E+02  0.51100000000E-03 0. -1.
        -11    1    3    3    0    0  0.87937184366E+01  0.14949598806E+01  0.16299213844E+01  0.90675814288E+01  0.51100000000E-03 0.  1.
        -12    1    3    3    0    0 -0.38729718380E+02  0.16992181716E+02 -0.12773861384E+02  0.44180276821E+02  0.00000000000E+00 0.  1.
</event>
<event>
 7    1  0.1756449E-015  0.9000782E+02  0.7816164E-02  0.1186339E+00
        -11   -1    0    0    0    0  0.00000000000E+00  0.00000000000E+00  0.45593999997E+02  0.45594000000E+02  0.51100000000E-03 0.  1.
         11   -1    0    0    0    0 -0.00000000000E+00 -0.00000000000E+00 -0.45593999997E+02  0.45594000000E+02  0.51100000000E-03 0. -1.
    9900012    2    1    2    0    0 -0.27216627246E+00  0.24967111192E+00 -0.11208965460E+01  0.90007822382E+02  0.90000084837E+02 0.  0.
        -12    1    1    2    0    0  0.27216627246E+00 -0.24967111192E+00  0.11208965460E+01  0.11801776183E+01  0.00000000000E+00 0.  1.
         11    1    3    3    0    0 -0.19102940964E+02 -0.35628544746E+02 -0.92328887694E+00  0.40437210794E+02  0.51100000000E-03 0. -1.
        -11    1    3    3    0    0 -0.41093533558E+00  0.47578665318E+01 -0.10520576542E+02  0.11553730689E+02  0.51100000000E-03 0.  1.
        -12    1    3    3    0    0  0.19241710027E+02  0.31120349326E+02  0.10322968873E+02  0.38016880899E+02  0.00000000000E+00 0.  1.
</event>
<event>
 7    1  0.1756449E-015  0.9000777E+02  0.7816164E-02  0.1186339E+00
        -11   -1    0    0    0    0  0.00000000000E+00  0.00000000000E+00  0.45593999997E+02  0.45594000000E+02  0.51100000000E-03 0.  1.
         11   -1    0    0    0    0 -0.00000000000E+00 -0.00000000000E+00 -0.45593999997E+02  0.45594000000E+02  0.51100000000E-03 0. -1.
    9900012    2    1    2    0    0 -0.27608455839E+00 -0.11367212779E+01 -0.15681358817E+00  0.90007767630E+02  0.90000029362E+02 0.  0.
        -12    1    1    2    0    0  0.27608455839E+00  0.11367212779E+01  0.15681358817E+00  0.11802323705E+01  0.00000000000E+00 0.  1.
         11    1    3    3    0    0 -0.30129376077E+01 -0.24103716534E+01  0.84717100520E+01  0.93090040285E+01  0.51100000000E-03 0. -1.
        -11    1    3    3    0    0  0.42010490969E+01  0.32076224602E+02  0.20484176203E+02  0.38290135456E+02  0.51100000000E-03 0.  1.
         12    1    3    3    0    0 -0.14641960476E+01 -0.30802574226E+02 -0.29112699843E+02  0.42408628146E+02  0.00000000000E+00 0. -1.
</event>
<event>
 7    1  0.1756449E-015  0.9000780E+02  0.7816164E-02  0.1186339E+00
        -11   -1    0    0    0    0  0.00000000000E+00  0.00000000000E+00  0.45593999997E+02  0.45594000000E+02  0.51100000000E-03 0. -1.
         11   -1    0    0    0    0 -0.00000000000E+00 -0.00000000000E+00 -0.45593999997E+02  0.45594000000E+02  0.51100000000E-03 0.  1.
    9900012    2    1    2    0    0  0.77811154822E-01  0.27079290359E+00  0.11460730090E+01  0.90007802256E+02  0.90000064446E+02 0.  0.
        -12    1    1    2    0    0 -0.77811154822E-01 -0.27079290359E+00 -0.11460730090E+01  0.11801977438E+01  0.00000000000E+00 0.  1.
         11    1    3    3    0    0 -0.77333391338E+01 -0.27684484415E+00 -0.71569079585E+01  0.10540517493E+02  0.51100000000E-03 0. -1.
        -11    1    3    3    0    0  0.36978027016E+01 -0.21839024738E+02 -0.28560445072E+02  0.36142990597E+02  0.51100000000E-03 0.  1.
         12    1    3    3    0    0  0.41133475870E+01  0.22386662486E+02  0.36863426039E+02  0.43324294166E+02  0.00000000000E+00 0. -1.
</event>
<event>
 7    1  0.1756449E-015  0.9000784E+02  0.7816164E-02  0.1186339E+00
        -11   -1    0    0    0    0  0.00000000000E+00  0.00000000000E+00  0.45593999997E+02  0.45594000000E+02  0.51100000000E-03 0.  1.
         11   -1    0    0    0    0 -0.00000000000E+00 -0.00000000000E+00 -0.45593999997E+02  0.45594000000E+02  0.51100000000E-03 0. -1.
    9900012    2    1    2    0    0  0.25724991950E-01 -0.86720414034E+00 -0.80004923797E+00  0.90007837478E+02  0.90000100132E+02 0.  0.
        -12    1    1    2    0    0 -0.25724991950E-01  0.86720414034E+00  0.80004923797E+00  0.11801625225E+01  0.00000000000E+00 0.  1.
         11    1    3    3    0    0  0.53406295368E+01  0.93512496527E+00  0.59481618956E+01  0.80484416348E+01  0.51100000000E-03 0. -1.
        -11    1    3    3    0    0  0.16028010517E+02  0.25141889186E+02  0.22076702311E+02  0.37099764126E+02  0.51100000000E-03 0.  1.
         12    1    3    3    0    0 -0.21342915062E+02 -0.26944218292E+02 -0.28824913444E+02  0.44859631717E+02  0.00000000000E+00 0. -1.
</event>
<event>
 7    1  0.1756449E-015  0.9000738E+02  0.7816164E-02  0.1186340E+00
        -11   -1    0    0    0    0  0.00000000000E+00  0.00000000000E+00  0.45593999997E+02  0.45594000000E+02  0.51100000000E-03 0.  1.
         11   -1    0    0    0    0 -0.00000000000E+00 -0.00000000000E+00 -0.45593999997E+02  0.45594000000E+02  0.51100000000E-03 0. -1.
    9900012    2    1    2    0    0  0.67027551030E+00  0.34391541414E+00 -0.90902503586E+00  0.90007375764E+02  0.89999632323E+02 0.  0.
        -12    1    1    2    0    0 -0.67027551030E+00 -0.34391541414E+00  0.90902503586E+00  0.11806242364E+01  0.00000000000E+00 0.  1.
         11    1    3    3    0    0 -0.45857938143E+01  0.52417540650E+01 -0.35172276630E+01  0.78023317847E+01  0.51100000000E-03 0. -1.
        -11    1    3    3    0    0  0.23190429233E+02  0.22107356456E+02  0.26787938815E+02  0.41762721220E+02  0.51100000000E-03 0.  1.
         12    1    3    3    0    0 -0.17934359908E+02 -0.27005195106E+02 -0.24179736188E+02  0.40442322759E+02  0.00000000000E+00 0. -1.
</event>
<event>
 7    1  0.1756449E-015  0.9000774E+02  0.7816164E-02  0.1186339E+00
        -11   -1    0    0    0    0  0.00000000000E+00  0.00000000000E+00  0.45593999997E+02  0.45594000000E+02  0.51100000000E-03 0.  1.
         11   -1    0    0    0    0 -0.00000000000E+00 -0.00000000000E+00 -0.45593999997E+02  0.45594000000E+02  0.51100000000E-03 0. -1.
    9900012    2    1    2    0    0 -0.31931594265E+00 -0.78107022666E+00 -0.82521529373E+00  0.90007740007E+02  0.90000001375E+02 0.  0.
        -12    1    1    2    0    0  0.31931594265E+00  0.78107022666E+00  0.82521529373E+00  0.11802599931E+01  0.00000000000E+00 0.  1.
         11    1    3    3    0    0  0.43763662666E+01 -0.23195325251E+02 -0.32959885665E+02  0.40540470625E+02  0.51100000000E-03 0. -1.
        -11    1    3    3    0    0 -0.12466965583E+02  0.23477757277E+01  0.26412955918E+01  0.12958152815E+02  0.51100000000E-03 0.  1.
        -12    1    3    3    0    0  0.77712833734E+01  0.20066479297E+02  0.29493374779E+02  0.36509116567E+02  0.00000000000E+00 0.  1.
</event>
<event>
 7    1  0.1756449E-015  0.9000775E+02  0.7816164E-02  0.1186339E+00
        -11   -1    0    0    0    0  0.00000000000E+00  0.00000000000E+00  0.45593999997E+02  0.45594000000E+02  0.51100000000E-03 0. -1.
         11   -1    0    0    0    0 -0.00000000000E+00 -0.00000000000E+00 -0.45593999997E+02  0.45594000000E+02  0.51100000000E-03 0.  1.
    9900012    2    1    2    0    0  0.83967294501E+00 -0.51371510675E+00 -0.65117540439E+00  0.90007752876E+02  0.90000014414E+02 0.  0.
        -12    1    1    2    0    0 -0.83967294501E+00  0.51371510675E+00  0.65117540439E+00  0.11802471236E+01  0.00000000000E+00 0.  1.
         11    1    3    3    0    0  0.65905847211E+00 -0.10499511110E+02  0.30595428949E+01  0.10956043748E+02  0.51100000000E-03 0. -1.
        -11    1    3    3    0    0 -0.19223323294E+02 -0.27910896736E+02  0.81469852478E+01  0.34855812771E+02  0.51100000000E-03 0.  1.
         12    1    3    3    0    0  0.19403937766E+02  0.37896692739E+02 -0.11857703547E+02  0.44195896357E+02  0.00000000000E+00 0. -1.
</event>
<event>
 7    1  0.1756449E-015  0.9000788E+02  0.7816164E-02  0.1186339E+00
        -11   -1    0    0    0    0  0.00000000000E+00  0.00000000000E+00  0.45593999997E+02  0.45594000000E+02  0.51100000000E-03 0. -1.
         11   -1    0    0    0    0 -0.00000000000E+00 -0.00000000000E+00 -0.45593999997E+02  0.45594000000E+02  0.51100000000E-03 0.  1.
    9900012    2    1    2    0    0 -0.13471715083E+00 -0.11361967151E+01  0.28910331746E+00  0.90007884576E+02  0.90000147852E+02 0.  0.
        -12    1    1    2    0    0  0.13471715083E+00  0.11361967151E+01 -0.28910331746E+00  0.11801154242E+01  0.00000000000E+00 0.  1.
         11    1    3    3    0    0 -0.30521726401E+01 -0.67970997311E+01  0.75144494453E+01  0.10582214953E+02  0.51100000000E-03 0. -1.
        -11    1    3    3    0    0  0.35228810460E+02 -0.13440369100E+02 -0.15867873042E+02  0.40908458821E+02  0.51100000000E-03 0.  1.
         12    1    3    3    0    0 -0.32311354971E+02  0.19101272116E+02  0.86425269140E+01  0.38517210802E+02  0.00000000000E+00 0. -1.
</event>
<event>
 7    1  0.1756449E-015  0.9000748E+02  0.7816164E-02  0.1186340E+00
        -11   -1    0    0    0    0  0.00000000000E+00  0.00000000000E+00  0.45593999997E+02  0.45594000000E+02  0.51100000000E-03 0. -1.
         11   -1    0    0    0    0 -0.00000000000E+00 -0.00000000000E+00 -0.45593999997E+02  0.45594000000E+02  0.51100000000E-03 0.  1.
    9900012    2    1    2    0    0  0.62967499815E-01 -0.11665927663E+01  0.16944998742E+00  0.90007484483E+02  0.89999742477E+02 0.  0.
        -12    1    1    2    0    0 -0.62967499815E-01  0.11665927663E+01 -0.16944998742E+00  0.11805155173E+01  0.00000000000E+00 0.  1.
         11    1    3    3    0    0  0.16042571751E+02 -0.13936207499E+01  0.57984777545E+01  0.17115157952E+02  0.51100000000E-03 0. -1.
        -11    1    3    3    0    0  0.24974214230E+01  0.28007263762E+02 -0.22024909639E+02  0.35717510861E+02  0.51100000000E-03 0.  1.
         12    1    3    3    0    0 -0.18477025675E+02 -0.27780235779E+02  0.16395881872E+02  0.37174815670E+02  0.00000000000E+00 0. -1.
</event>
<event>
 7    1  0.1756449E-015  0.9000775E+02  0.7816164E-02  0.1186339E+00
        -11   -1    0    0    0    0  0.00000000000E+00  0.00000000000E+00  0.45593999997E+02  0.45594000000E+02  0.51100000000E-03 0.  1.
         11   -1    0    0    0    0 -0.00000000000E+00 -0.00000000000E+00 -0.45593999997E+02  0.45594000000E+02  0.51100000000E-03 0. -1.
    9900012    2    1    2    0    0 -0.44388082585E+00 -0.28695149895E+00 -0.10552848765E+01  0.90007746840E+02  0.90000008299E+02 0.  0.
        -12    1    1    2    0    0  0.44388082585E+00  0.28695149895E+00  0.10552848765E+01  0.11802531596E+01  0.00000000000E+00 0.  1.
         11    1    3    3    0    0 -0.66085005629E+01  0.53827181515E+00 -0.43940994443E+02  0.44438418167E+02  0.51100000000E-03 0. -1.
        -11    1    3    3    0    0  0.11830478619E+00  0.37155995042E+01  0.24955059263E+01  0.44774128453E+01  0.51100000000E-03 0.  1.
        -12    1    3    3    0    0  0.60463149509E+01 -0.45408228183E+01  0.40390203640E+02  0.41091915829E+02  0.00000000000E+00 0.  1.
</event>
<event>
 7    1  0.1756449E-015  0.9000783E+02  0.7816164E-02  0.1186339E+00
        -11   -1    0    0    0    0  0.00000000000E+00  0.00000000000E+00  0.45593999997E+02  0.45594000000E+02  0.51100000000E-03 0. -1.
         11   -1    0    0    0    0 -0.00000000000E+00 -0.00000000000E+00 -0.45593999997E+02  0.45594000000E+02  0.51100000000E-03 0.  1.
    9900012    2    1    2    0    0 -0.88109926555E+00 -0.56979907649E+00  0.54018615336E+00  0.90007827138E+02  0.90000089656E+02 0.  0.
        -12    1    1    2    0    0  0.88109926555E+00  0.56979907649E+00 -0.54018615336E+00  0.11801728617E+01  0.00000000000E+00 0.  1.
         11    1    3    3    0    0 -0.25888208155E+02  0.22491002421E+02 -0.51650531751E+01  0.34680286705E+02  0.51100000000E-03 0. -1.
        -11    1    3    3    0    0 -0.71974828733E+01  0.82519919670E+00 -0.99293358494E+01  0.12291314986E+02  0.51100000000E-03 0.  1.
        -12    1    3    3    0    0  0.32204591763E+02 -0.23886000694E+02  0.15634575178E+02  0.43036225447E+02  0.00000000000E+00 0.  1.
</event>
<event>
 7    1  0.1756449E-015  0.9000778E+02  0.7816164E-02  0.1186339E+00
        -11   -1    0    0    0    0  0.00000000000E+00  0.00000000000E+00  0.45593999997E+02  0.45594000000E+02  0.51100000000E-03 0.  1.
         11   -1    0    0    0    0 -0.00000000000E+00 -0.00000000000E+00 -0.45593999997E+02  0.45594000000E+02  0.51100000000E-03 0. -1.
    9900012    2    1    2    0    0 -0.62050112685E+00  0.10025515834E+01 -0.52785516344E-01  0.90007780683E+02  0.90000042588E+02 0.  0.
        -12    1    1    2    0    0  0.62050112685E+00 -0.10025515834E+01  0.52785516344E-01  0.11802193171E+01  0.00000000000E+00 0.  1.
         11    1    3    3    0    0 -0.12568781256E+01 -0.74106801026E+01 -0.63709615976E+01  0.98532773302E+01  0.51100000000E-03 0. -1.
        -11    1    3    3    0    0 -0.27845018004E+02 -0.20282259446E+02  0.16887478747E+02  0.38365375204E+02  0.51100000000E-03 0.  1.
         12    1    3    3    0    0  0.28481395002E+02  0.28695491132E+02 -0.10569302666E+02  0.41789128149E+02  0.00000000000E+00 0. -1.
</event>
<event>
 7    1  0.1756449E-015  0.9000772E+02  0.7816164E-02  0.1186339E+00
        -11   -1    0    0    0    0  0.00000000000E+00  0.00000000000E+00  0.45593999997E+02  0.45594000000E+02  0.51100000000E-03 0.  1.
         11   -1    0    0    0    0 -0.00000000000E+00 -0.00000000000E+00 -0.45593999997E+02  0.45594000000E+02  0.51100000000E-03 0. -1.
    9900012    2    1    2    0    0 -0.22524184246E+00 -0.95939510803E+00 -0.64952602420E+00  0.90007721678E+02  0.89999982804E+02 0.  0.
        -12    1    1    2    0    0  0.22524184246E+00  0.95939510803E+00  0.64952602420E+00  0.11802783218E+01  0.00000000000E+00 0.  1.
         11    1    3    3    0    0 -0.79616153231E+01 -0.28586267449E+01  0.10588723779E+02  0.13552864529E+02  0.51100000000E-03 0. -1.
        -11    1    3    3    0    0  0.10241875966E+02  0.10658577812E+02  0.30415062982E+02  0.33816820678E+02  0.51100000000E-03 0.  1.
         12    1    3    3    0    0 -0.25055024853E+01 -0.87593461750E+01 -0.41653312785E+02  0.42638036471E+02  0.00000000000E+00 0. -1.
</event>
<event>
 7    1  0.1756449E-015  0.9000778E+02  0.7816164E-02  0.1186339E+00
        -11   -1    0    0    0    0  0.00000000000E+00  0.00000000000E+00  0.45593999997E+02  0.45594000000E+02  0.51100000000E-03 0. -1.
         11   -1    0    0    0    0 -0.00000000000E+00 -0.00000000000E+00 -0.45593999997E+02  0.45594000000E+02  0.51100000000E-03 0.  1.
    9900012    2    1    2    0    0  0.11272989361E+01 -0.34048573811E+00  0.78724422900E-01  0.90007775037E+02  0.90000036867E+02 0.  0.
        -12    1    1    2    0    0 -0.11272989361E+01  0.34048573811E+00 -0.78724422900E-01  0.11802249633E+01  0.00000000000E+00 0.  1.
         11    1    3    3    0    0  0.22789968293E+01  0.97093835271E+01  0.27756517087E+01  0.10352303980E+02  0.51100000000E-03 0. -1.
        -11    1    3    3    0    0  0.34749692974E+02  0.14234484486E+01 -0.17779011600E+02  0.39059705849E+02  0.51100000000E-03 0.  1.
         12    1    3    3    0    0 -0.35901390867E+02 -0.11473317714E+02  0.15082084314E+02  0.40595765208E+02  0.00000000000E+00 0. -1.
</event>
<event>
 7    1  0.1756449E-015  0.9000766E+02  0.7816164E-02  0.1186339E+00
        -11   -1    0    0    0    0  0.00000000000E+00  0.00000000000E+00  0.45593999997E+02  0.45594000000E+02  0.51100000000E-03 0.  1.
         11   -1    0    0    0    0 -0.00000000000E+00 -0.00000000000E+00 -0.45593999997E+02  0.45594000000E+02  0.51100000000E-03 0. -1.
    9900012    2    1    2    0    0  0.22192313399E+00  0.19773491638E+00 -0.11423009384E+01  0.90007660893E+02  0.89999921216E+02 0.  0.
        -12    1    1    2    0    0 -0.22192313399E+00 -0.19773491638E+00  0.11423009384E+01  0.11803391074E+01  0.00000000000E+00 0.  1.
         11    1    3    3    0    0  0.23801057486E+01  0.96839015778E+01 -0.32621636998E+02  0.34111787608E+02  0.51100000000E-03 0. -1.
        -11    1    3    3    0    0 -0.48531012949E+00 -0.51777148998E+01 -0.11524959252E+02  0.12643929118E+02  0.51100000000E-03 0.  1.
        -12    1    3    3    0    0 -0.16728724851E+01 -0.43084517616E+01  0.43004295312E+02  0.43251944167E+02  0.00000000000E+00 0.  1.
</event>
<event>
 7    1  0.1756449E-015  0.9000777E+02  0.7816164E-02  0.1186339E+00
        -11   -1    0    0    0    0  0.00000000000E+00  0.00000000000E+00  0.45593999997E+02  0.45594000000E+02  0.51100000000E-03 0.  1.
         11   -1    0    0    0    0 -0.00000000000E+00 -0.00000000000E+00 -0.45593999997E+02  0.45594000000E+02  0.51100000000E-03 0. -1.
    9900012    2    1    2    0    0 -0.50451450323E+00  0.10527440292E+01 -0.17361991576E+00  0.90007767502E+02  0.90000029233E+02 0.  0.
        -12    1    1    2    0    0  0.50451450323E+00 -0.10527440292E+01  0.17361991576E+00  0.11802324984E+01  0.00000000000E+00 0.  1.
         11    1    3    3    0    0  0.38295696569E+01  0.37641398367E+01 -0.82575543770E+01  0.98499521328E+01  0.51100000000E-03 0. -1.
        -11    1    3    3    0    0  0.15237139558E+02  0.32504823591E+02 -0.79954458905E+01  0.36778541758E+02  0.51100000000E-03 0.  1.
         12    1    3    3    0    0 -0.19571223718E+02 -0.35216219398E+02  0.16079380352E+02  0.43379273611E+02  0.00000000000E+00 0. -1.
</event>
<event>
 7    1  0.1756449E-015  0.9000776E+02  0.7816164E-02  0.1186339E+00
        -11   -1    0    0    0    0  0.00000000000E+00  0.00000000000E+00  0.45593999997E+02  0.45594000000E+02  0.51100000000E-03 0.  1.
         11   -1    0    0    0    0 -0.00000000000E+00 -0.00000000000E+00 -0.45593999997E+02  0.45594000000E+02  0.51100000000E-03 0. -1.
    9900012    2    1    2    0    0 -0.52127518759E+00 -0.10380598264E+01 -0.20896185047E+00  0.90007762278E+02  0.90000023941E+02 0.  0.
        -12    1    1    2    0    0  0.52127518759E+00  0.10380598264E+01  0.20896185047E+00  0.11802377216E+01  0.00000000000E+00 0.  1.
         11    1    3    3    0    0  0.41445588108E+01  0.26521626837E+01 -0.90831773073E+01  0.10330316786E+02  0.51100000000E-03 0. -1.
        -11    1    3    3    0    0 -0.33914560838E+02 -0.25638489986E+02  0.27868611769E+01  0.42606292975E+02  0.51100000000E-03 0.  1.
         12    1    3    3    0    0  0.29248726839E+02  0.21948267476E+02  0.60873542799E+01  0.37071152518E+02  0.00000000000E+00 0. -1.
</event>
<event>
 7    1  0.1756449E-015  0.9000756E+02  0.7816164E-02  0.1186339E+00
        -11   -1    0    0    0    0  0.00000000000E+00  0.00000000000E+00  0.45593999997E+02  0.45594000000E+02  0.51100000000E-03 0. -1.
         11   -1    0    0    0    0 -0.00000000000E+00 -0.00000000000E+00 -0.45593999997E+02  0.45594000000E+02  0.51100000000E-03 0.  1.
    9900012    2    1    2    0    0 -0.11201964596E+01  0.16595125774E+00 -0.33326500044E+00  0.90007557080E+02  0.89999816033E+02 0.  0.
        -12    1    1    2    0    0  0.11201964596E+01 -0.16595125774E+00  0.33326500044E+00  0.11804429205E+01  0.00000000000E+00 0.  1.
         11    1    3    3    0    0 -0.32537896538E+02  0.14839445353E+02 -0.69113066525E+01  0.36423756113E+02  0.51100000000E-03 0. -1.
        -11    1    3    3    0    0 -0.27240929092E+01  0.92345432673E+01 -0.42432916684E+01  0.10521549124E+02  0.51100000000E-03 0.  1.
        -12    1    3    3    0    0  0.34141792987E+02 -0.23908037362E+02  0.10821333320E+02  0.43062251842E+02  0.00000000000E+00 0.  1.
</event>
<event>
 7    1  0.1756449E-015  0.9000775E+02  0.7816164E-02  0.1186339E+00
        -11   -1    0    0    0    0  0.00000000000E+00  0.00000000000E+00  0.45593999997E+02  0.45594000000E+02  0.51100000000E-03 0. -1.
         11   -1    0    0    0    0 -0.00000000000E+00 -0.00000000000E+00 -0.45593999997E+02  0.45594000000E+02  0.51100000000E-03 0.  1.
    9900012    2    1    2    0    0  0.10120081296E+01 -0.39042371539E+00 -0.46517470600E+00  0.90007754839E+02  0.90000016403E+02 0.  0.
        -12    1    1    2    0    0 -0.10120081296E+01  0.39042371539E+00  0.46517470600E+00  0.11802451606E+01  0.00000000000E+00 0.  1.
         11    1    3    3    0    0 -0.45130174203E+01 -0.95539948607E+01 -0.59735950867E+01  0.12137956276E+02  0.51100000000E-03 0. -1.
        -11    1    3    3    0    0 -0.25591438473E+02 -0.19967876698E+02 -0.74790872514E+01  0.33310277233E+02  0.51100000000E-03 0.  1.
         12    1    3    3    0    0  0.31116464023E+02  0.29131447843E+02  0.12987507632E+02  0.44559521331E+02  0.00000000000E+00 0. -1.
</event>
<event>
 7    1  0.1756449E-015  0.9000777E+02  0.7816164E-02  0.1186339E+00
        -11   -1    0    0    0    0  0.00000000000E+00  0.00000000000E+00  0.45593999997E+02  0.45594000000E+02  0.51100000000E-03 0.  1.
         11   -1    0    0    0    0 -0.00000000000E+00 -0.00000000000E+00 -0.45593999997E+02  0.45594000000E+02  0.51100000000E-03 0. -1.
    9900012    2    1    2    0    0 -0.84881279468E+00 -0.58234865890E+00 -0.57734086873E+00  0.90007773073E+02  0.90000034877E+02 0.  0.
        -12    1    1    2    0    0  0.84881279468E+00  0.58234865890E+00  0.57734086873E+00  0.11802269272E+01  0.00000000000E+00 0.  1.
         11    1    3    3    0    0  0.28045723421E+00  0.37719202822E+02  0.14276656822E+02  0.40331623425E+02  0.51100000000E-03 0. -1.
        -11    1    3    3    0    0 -0.82104573782E+01 -0.25835632602E+01 -0.95871012455E+01  0.12884056816E+02  0.51100000000E-03 0.  1.
        -12    1    3    3    0    0  0.70811873493E+01 -0.35717988221E+02 -0.52668964454E+01  0.36792092832E+02  0.00000000000E+00 0.  1.
</event>
<event>
 7    1  0.1756449E-015  0.9000760E+02  0.7816164E-02  0.1186339E+00
        -11   -1    0    0    0    0  0.00000000000E+00  0.00000000000E+00  0.45593999997E+02  0.45594000000E+02  0.51100000000E-03 0.  1.
         11   -1    0    0    0    0 -0.00000000000E+00 -0.00000000000E+00 -0.45593999997E+02  0.45594000000E+02  0.51100000000E-03 0. -1.
    9900012    2    1    2    0    0 -0.36887458104E+00  0.10907557981E+01 -0.25984568542E+00  0.90007603267E+02  0.89999862830E+02 0.  0.
        -12    1    1    2    0    0  0.36887458104E+00 -0.10907557981E+01  0.25984568542E+00  0.11803967332E+01  0.00000000000E+00 0.  1.
         11    1    3    3    0    0  0.10996041434E+02  0.20205473676E+02 -0.33398697456E+02  0.40554248677E+02  0.51100000000E-03 0. -1.
        -11    1    3    3    0    0  0.66351477312E+01  0.36842130191E+01  0.56621059624E+01  0.94687937550E+01  0.51100000000E-03 0.  1.
        -12    1    3    3    0    0 -0.18000063746E+02 -0.22798930897E+02  0.27476745809E+02  0.39984560835E+02  0.00000000000E+00 0.  1.
</event>
<event>
 7    1  0.1756449E-015  0.9000777E+02  0.7816164E-02  0.1186339E+00
        -11   -1    0    0    0    0  0.00000000000E+00  0.00000000000E+00  0.45593999997E+02  0.45594000000E+02  0.51100000000E-03 0.  1.
         11   -1    0    0    0    0 -0.00000000000E+00 -0.00000000000E+00 -0.45593999997E+02  0.45594000000E+02  0.51100000000E-03 0. -1.
    9900012    2    1    2    0    0  0.48923919351E-01  0.11792024127E+01 -0.61926292308E-02  0.90007766875E+02  0.90000028598E+02 0.  0.
        -12    1    1    2    0    0 -0.48923919351E-01 -0.11792024127E+01  0.61926292308E-02  0.11802331247E+01  0.00000000000E+00 0.  1.
         11    1    3    3    0    0 -0.20434891465E+02  0.25334257606E+02  0.69621911156E+01  0.33284853958E+02  0.51100000000E-03 0. -1.
        -11    1    3    3    0    0 -0.14456598504E+02 -0.11899331286E+02 -0.60743058678E+01  0.19684626423E+02  0.51100000000E-03 0.  1.
         12    1    3    3    0    0  0.34940413888E+02 -0.12255723907E+02 -0.89407787709E+00  0.37038286494E+02  0.00000000000E+00 0. -1.
</event>
<event>
 7    1  0.1756449E-015  0.9000780E+02  0.7816164E-02  0.1186339E+00
        -11   -1    0    0    0    0  0.00000000000E+00  0.00000000000E+00  0.45593999997E+02  0.45594000000E+02  0.51100000000E-03 0. -1.
         11   -1    0    0    0    0 -0.00000000000E+00 -0.00000000000E+00 -0.45593999997E+02  0.45594000000E+02  0.51100000000E-03 0.  1.
    9900012    2    1    2    0    0 -0.25340900356E-01 -0.86399690491E+00  0.80358026024E+00  0.90007799149E+02  0.90000061298E+02 0.  0.
        -12    1    1    2    0    0  0.25340900357E-01  0.86399690491E+00 -0.80358026024E+00  0.11802008505E+01  0.00000000000E+00 0.  1.
         11    1    3    3    0    0 -0.89100159208E+00 -0.26747358950E+01 -0.10389134361E+02  0.10764859914E+02  0.51100000000E-03 0. -1.
        -11    1    3    3    0    0  0.37960738772E+02 -0.65388526578E+01  0.14310552641E+02  0.41092167128E+02  0.51100000000E-03 0.  1.
         12    1    3    3    0    0 -0.37095078080E+02  0.83495916480E+01 -0.31178380202E+01  0.38150772107E+02  0.00000000000E+00 0. -1.
</event>
<event>
 7    1  0.1756449E-015  0.9000733E+02  0.7816164E-02  0.1186340E+00
        -11   -1    0    0    0    0  0.00000000000E+00  0.00000000000E+00  0.45593999997E+02  0.45594000000E+02  0.51100000000E-03 0. -1.
         11   -1    0    0    0    0 -0.00000000000E+00 -0.00000000000E+00 -0.45593999997E+02  0.45594000000E+02  0.51100000000E-03 0.  1.
    9900012    2    1    2    0    0  0.99230091414E+00  0.45903161245E+00  0.44565338791E+00  0.90007331517E+02  0.89999587492E+02 0.  0.
        -12    1    1    2    0    0 -0.99230091414E+00 -0.45903161245E+00 -0.44565338791E+00  0.11806684834E+01  0.00000000000E+00 0.  1.
         11    1    3    3    0    0  0.11455701503E+02 -0.54043027796E+01  0.34721101696E+02  0.36959362666E+02  0.51100000000E-03 0. -1.
        -11    1    3    3    0    0 -0.31375623299E+01  0.23339419231E+01  0.85793427607E+01  0.94285049048E+01  0.51100000000E-03 0.  1.
        -12    1    3    3    0    0 -0.73258382588E+01  0.35293924690E+01 -0.42854791068E+02  0.43619463946E+02  0.00000000000E+00 0.  1.
</event>
<event>
 7    1  0.1756449E-015  0.9000748E+02  0.7816164E-02  0.1186340E+00
        -11   -1    0    0    0    0  0.00000000000E+00  0.00000000000E+00  0.45593999997E+02  0.45594000000E+02  0.51100000000E-03 0.  1.
         11   -1    0    0    0    0 -0.00000000000E+00 -0.00000000000E+00 -0.45593999997E+02  0.45594000000E+02  0.51100000000E-03 0. -1.
    9900012    2    1    2    0    0  0.10234793800E+01 -0.42105700857E+00 -0.41089831663E+00  0.90007476187E+02  0.89999734073E+02 0.  0.
        -12    1    1    2    0    0 -0.10234793800E+01  0.42105700857E+00  0.41089831663E+00  0.11805238127E+01  0.00000000000E+00 0.  1.
         11    1    3    3    0    0  0.65987307384E+01  0.10128795706E+02 -0.36680317998E+02  0.38620997897E+02  0.51100000000E-03 0. -1.
        -11    1    3    3    0    0 -0.42507576844E+01 -0.14093731281E+01 -0.63541667001E+01  0.77737190725E+01  0.51100000000E-03 0.  1.
        -12    1    3    3    0    0 -0.13244936740E+01 -0.91404795868E+01  0.42623586382E+02  0.43612759218E+02  0.00000000000E+00 0.  1.
</event>
<event>
 7    1  0.1756449E-015  0.9000766E+02  0.7816164E-02  0.1186339E+00
        -11   -1    0    0    0    0  0.00000000000E+00  0.00000000000E+00  0.45593999997E+02  0.45594000000E+02  0.51100000000E-03 0.  1.
         11   -1    0    0    0    0 -0.00000000000E+00 -0.00000000000E+00 -0.45593999997E+02  0.45594000000E+02  0.51100000000E-03 0. -1.
    9900012    2    1    2    0    0  0.49531241948E+00 -0.77844217180E+00 -0.73614277521E+00  0.90007655646E+02  0.89999915901E+02 0.  0.
        -12    1    1    2    0    0 -0.49531241948E+00  0.77844217180E+00  0.73614277521E+00  0.11803443537E+01  0.00000000000E+00 0.  1.
         11    1    3    3    0    0  0.67720959712E+01 -0.34205004748E+02 -0.13708087637E+02  0.37466722576E+02  0.51100000000E-03 0. -1.
        -11    1    3    3    0    0  0.60042854836E+01 -0.66318132807E+01  0.33412153905E+01  0.95496655494E+01  0.51100000000E-03 0.  1.
        -12    1    3    3    0    0 -0.12281069035E+02  0.40058375857E+02  0.96307294712E+01  0.42991267521E+02  0.00000000000E+00 0.  1.
</event>
<event>
 7    1  0.1756449E-015  0.9000773E+02  0.7816164E-02  0.1186339E+00
        -11   -1    0    0    0    0  0.00000000000E+00  0.00000000000E+00  0.45593999997E+02  0.45594000000E+02  0.51100000000E-03 0.  1.
         11   -1    0    0    0    0 -0.00000000000E+00 -0.00000000000E+00 -0.45593999997E+02  0.45594000000E+02  0.51100000000E-03 0. -1.
    9900012    2    1    2    0    0  0.82364064493E+00 -0.82908643795E+00  0.16515826972E+00  0.90007726520E+02  0.89999987710E+02 0.  0.
        -12    1    1    2    0    0 -0.82364064493E+00  0.82908643795E+00 -0.16515826972E+00  0.11802734800E+01  0.00000000000E+00 0.  1.
         11    1    3    3    0    0 -0.10213189487E+02  0.35106118773E+02  0.77493686929E+01  0.37373808078E+02  0.51100000000E-03 0. -1.
        -11    1    3    3    0    0 -0.41802238176E+01  0.53229499656E+01 -0.53058575194E+01  0.86000111499E+01  0.51100000000E-03 0.  1.
        -12    1    3    3    0    0  0.15217053949E+02 -0.41258155177E+02 -0.22783529037E+01  0.44033907293E+02  0.00000000000E+00 0.  1.
</event>
<event>
 7    1  0.1756449E-015  0.9000779E+02  0.7816164E-02  0.1186339E+00
        -11   -1    0    0    0    0  0.00000000000E+00  0.00000000000E+00  0.45593999997E+02  0.45594000000E+02  0.51100000000E-03 0.  1.
         11   -1    0    0    0    0 -0.00000000000E+00 -0.00000000000E+00 -0.45593999997E+02  0.45594000000E+02  0.51100000000E-03 0. -1.
    9900012    2    1    2    0    0 -0.97504238335E+00  0.65578465867E+00 -0.11014525871E+00  0.90007791058E+02  0.90000053100E+02 0.  0.
        -12    1    1    2    0    0  0.97504238335E+00 -0.65578465867E+00  0.11014525871E+00  0.11802089416E+01  0.00000000000E+00 0.  1.
         11    1    3    3    0    0 -0.20990893607E+02  0.32485854012E+01  0.32408613663E+02  0.38749053683E+02  0.51100000000E-03 0. -1.
        -11    1    3    3    0    0 -0.43547650062E+01  0.43066723196E+00  0.48567635514E+01  0.65374004757E+01  0.51100000000E-03 0.  1.
        -12    1    3    3    0    0  0.24370616230E+02 -0.30234679745E+01 -0.37375522473E+02  0.44721336900E+02  0.00000000000E+00 0.  1.
</event>
<event>
 7    1  0.1756449E-015  0.9000774E+02  0.7816164E-02  0.1186339E+00
        -11   -1    0    0    0    0  0.00000000000E+00  0.00000000000E+00  0.45593999997E+02  0.45594000000E+02  0.51100000000E-03 0.  1.
         11   -1    0    0    0    0 -0.00000000000E+00 -0.00000000000E+00 -0.45593999997E+02  0.45594000000E+02  0.51100000000E-03 0. -1.
    9900012    2    1    2    0    0 -0.86251941043E+00 -0.84486628536E-01 -0.80120647028E+00  0.90007741752E+02  0.90000003143E+02 0.  0.
        -12    1    1    2    0    0  0.86251941043E+00  0.84486628536E-01  0.80120647028E+00  0.11802582479E+01  0.00000000000E+00 0.  1.
         11    1    3    3    0    0  0.19759997716E+02 -0.12148487124E+02  0.32010525363E+02  0.39531215304E+02  0.51100000000E-03 0. -1.
        -11    1    3    3    0    0 -0.21372451896E+02 -0.12696759550E+01 -0.91023864982E+01  0.23264720443E+02  0.51100000000E-03 0.  1.
        -12    1    3    3    0    0  0.74993476944E+00  0.13333676450E+02 -0.23709345335E+02  0.27211806005E+02  0.00000000000E+00 0.  1.
</event>
<event>
 7    1  0.1756449E-015  0.9000794E+02  0.7816164E-02  0.1186339E+00
        -11   -1    0    0    0    0  0.00000000000E+00  0.00000000000E+00  0.45593999997E+02  0.45594000000E+02  0.51100000000E-03 0.  1.
         11   -1    0    0    0    0 -0.00000000000E+00 -0.00000000000E+00 -0.45593999997E+02  0.45594000000E+02  0.51100000000E-03 0. -1.
    9900012    2    1    2    0    0  0.90440962105E+00  0.74179183065E+00 -0.15601196077E+00  0.90007935758E+02  0.90000199710E+02 0.  0.
        -12    1    1    2    0    0 -0.90440962105E+00 -0.74179183065E+00  0.15601196077E+00  0.11800642417E+01  0.00000000000E+00 0.  1.
         11    1    3    3    0    0 -0.18917937690E+02  0.32804571715E+02 -0.11914480803E+02  0.39698654195E+02  0.51100000000E-03 0. -1.
        -11    1    3    3    0    0 -0.14628466542E+01 -0.28550456778E+01 -0.83542479306E+01  0.89490035704E+01  0.51100000000E-03 0.  1.
        -12    1    3    3    0    0  0.21285193965E+02 -0.29207734207E+02  0.20112716773E+02  0.41360277992E+02  0.00000000000E+00 0.  1.
</event>
<event>
 7    1  0.1756449E-015  0.9000776E+02  0.7816164E-02  0.1186339E+00
        -11   -1    0    0    0    0  0.00000000000E+00  0.00000000000E+00  0.45593999997E+02  0.45594000000E+02  0.51100000000E-03 0.  1.
         11   -1    0    0    0    0 -0.00000000000E+00 -0.00000000000E+00 -0.45593999997E+02  0.45594000000E+02  0.51100000000E-03 0. -1.
    9900012    2    1    2    0    0 -0.68805040992E+00 -0.34646230254E+00 -0.89415833092E+00  0.90007759086E+02  0.90000020706E+02 0.  0.
        -12    1    1    2    0    0  0.68805040992E+00  0.34646230254E+00  0.89415833092E+00  0.11802409137E+01  0.00000000000E+00 0.  1.
         11    1    3    3    0    0  0.64166320078E+01  0.78680962162E+01 -0.16301373075E+01  0.10282871792E+02  0.51100000000E-03 0. -1.
        -11    1    3    3    0    0  0.14000993584E+02 -0.39035628004E+02 -0.55650395330E+01  0.41842296069E+02  0.51100000000E-03 0.  1.
         12    1    3    3    0    0 -0.21105676001E+02  0.30821069486E+02  0.63010185096E+01  0.37882591226E+02  0.00000000000E+00 0. -1.
</event>
<event>
 7    1  0.1756449E-015  0.9000802E+02  0.7816164E-02  0.1186338E+00
        -11   -1    0    0    0    0  0.00000000000E+00  0.00000000000E+00  0.45593999997E+02  0.45594000000E+02  0.51100000000E-03 0. -1.
         11   -1    0    0    0    0 -0.00000000000E+00 -0.00000000000E+00 -0.45593999997E+02  0.45594000000E+02  0.51100000000E-03 0.  1.
    9900012    2    1    2    0    0 -0.50391135165E+00 -0.61540469764E+00  0.87160848732E+00  0.90008020785E+02  0.90000285859E+02 0.  0.
        -12    1    1    2    0    0  0.50391135165E+00  0.61540469764E+00 -0.87160848732E+00  0.11799792148E+01  0.00000000000E+00 0.  1.
         11    1    3    3    0    0  0.15940902024E+02 -0.24460150282E+02  0.24851344883E+02  0.38340587527E+02  0.51100000000E-03 0. -1.
        -11    1    3    3    0    0  0.32520027919E+01  0.26314614505E+01  0.76943567131E+01  0.87580384227E+01  0.51100000000E-03 0.  1.
        -12    1    3    3    0    0 -0.19696816168E+02  0.21213284133E+02 -0.31674093109E+02  0.42909394836E+02  0.00000000000E+00 0.  1.
</event>
<event>
 7    1  0.1756449E-015  0.9000785E+02  0.7816164E-02  0.1186339E+00
        -11   -1    0    0    0    0  0.00000000000E+00  0.00000000000E+00  0.45593999997E+02  0.45594000000E+02  0.51100000000E-03 0.  1.
         11   -1    0    0    0    0 -0.00000000000E+00 -0.00000000000E+00 -0.45593999997E+02  0.45594000000E+02  0.51100000000E-03 0. -1.
    9900012    2    1    2    0    0  0.10893836714E+00  0.11486953041E+01 -0.24774455439E+00  0.90007853469E+02  0.90000116335E+02 0.  0.
        -12    1    1    2    0    0 -0.10893836714E+00 -0.11486953041E+01  0.24774455439E+00  0.11801465306E+01  0.00000000000E+00 0.  1.
         11    1    3    3    0    0 -0.37560135563E+02 -0.36856992498E+01 -0.91439596841E+01  0.38832462727E+02  0.51100000000E-03 0. -1.
        -11    1    3    3    0    0 -0.12906255988E+01  0.10431076271E+02 -0.10948323860E+01  0.10567484319E+02  0.51100000000E-03 0.  1.
        -12    1    3    3    0    0  0.38959699529E+02 -0.55966817173E+01  0.99910475158E+01  0.40607906424E+02  0.00000000000E+00 0.  1.
</event>
<event>
 7    1  0.1756449E-015  0.9000784E+02  0.7816164E-02  0.1186339E+00
        -11   -1    0    0    0    0  0.00000000000E+00  0.00000000000E+00  0.45593999997E+02  0.45594000000E+02  0.51100000000E-03 0.  1.
         11   -1    0    0    0    0 -0.00000000000E+00 -0.00000000000E+00 -0.45593999997E+02  0.45594000000E+02  0.51100000000E-03 0. -1.
    9900012    2    1    2    0    0 -0.76606617166E+00  0.85960662142E+00  0.25883789557E+00  0.90007839850E+02  0.90000102536E+02 0.  0.
        -12    1    1    2    0    0  0.76606617166E+00 -0.85960662142E+00 -0.25883789557E+00  0.11801601498E+01  0.00000000000E+00 0.  1.
         11    1    3    3    0    0 -0.78806969927E+01 -0.82493851174E+01  0.28845114365E+01  0.11767673789E+02  0.51100000000E-03 0. -1.
        -11    1    3    3    0    0 -0.32657986239E+02  0.32527512570E+01 -0.15129618859E+02  0.36139034617E+02  0.51100000000E-03 0.  1.
         12    1    3    3    0    0  0.39772617060E+02  0.58562404818E+01  0.12503945318E+02  0.42101131445E+02  0.00000000000E+00 0. -1.
</event>
<event>
 7    1  0.1756449E-015  0.9000771E+02  0.7816164E-02  0.1186339E+00
        -11   -1    0    0    0    0  0.00000000000E+00  0.00000000000E+00  0.45593999997E+02  0.45594000000E+02  0.51100000000E-03 0.  1.
         11   -1    0    0    0    0 -0.00000000000E+00 -0.00000000000E+00 -0.45593999997E+02  0.45594000000E+02  0.51100000000E-03 0. -1.
    9900012    2    1    2    0    0  0.57855336581E+00  0.99089023016E+00  0.27659692164E+00  0.90007706264E+02  0.89999967187E+02 0.  0.
        -12    1    1    2    0    0 -0.57855336581E+00 -0.99089023016E+00 -0.27659692164E+00  0.11802937356E+01  0.00000000000E+00 0.  1.
         11    1    3    3    0    0  0.39285466894E+01 -0.50979227557E+01 -0.54365667209E+01  0.84248770606E+01  0.51100000000E-03 0. -1.
        -11    1    3    3    0    0 -0.97610751442E+01 -0.17904558762E+02  0.36631528658E+02  0.41925179839E+02  0.51100000000E-03 0.  1.
         12    1    3    3    0    0  0.64110818205E+01  0.23993371747E+02 -0.30918365016E+02  0.39657649365E+02  0.00000000000E+00 0. -1.
</event>
<event>
 7    1  0.1756449E-015  0.9000747E+02  0.7816164E-02  0.1186340E+00
        -11   -1    0    0    0    0  0.00000000000E+00  0.00000000000E+00  0.45593999997E+02  0.45594000000E+02  0.51100000000E-03 0.  1.
         11   -1    0    0    0    0 -0.00000000000E+00 -0.00000000000E+00 -0.45593999997E+02  0.45594000000E+02  0.51100000000E-03 0. -1.
    9900012    2    1    2    0    0 -0.68878369868E+00  0.56793716135E+00 -0.77244280839E+00  0.90007473213E+02  0.89999731059E+02 0.  0.
        -12    1    1    2    0    0  0.68878369868E+00 -0.56793716135E+00  0.77244280839E+00  0.11805267871E+01  0.00000000000E+00 0.  1.
         11    1    3    3    0    0  0.37887896441E+02  0.40125377515E+01  0.22009727346E+01  0.38163299611E+02  0.51100000000E-03 0. -1.
        -11    1    3    3    0    0  0.42841407530E+01 -0.75361501056E+01  0.20665228367E+00  0.86712240101E+01  0.51100000000E-03 0.  1.
        -12    1    3    3    0    0 -0.42860820893E+02  0.40915495155E+01 -0.31800678267E+01  0.43172949592E+02  0.00000000000E+00 0.  1.
</event>
<event>
 7    1  0.1756449E-015  0.9000900E+02  0.7816164E-02  0.1186337E+00
        -11   -1    0    0    0    0  0.00000000000E+00  0.00000000000E+00  0.45593999997E+02  0.45594000000E+02  0.51100000000E-03 0.  1.
         11   -1    0    0    0    0 -0.00000000000E+00 -0.00000000000E+00 -0.45593999997E+02  0.45594000000E+02  0.51100000000E-03 0. -1.
    9900012    2    1    2    0    0 -0.69437608211E+00  0.52108276692E+00 -0.79772357493E+00  0.90008996906E+02  0.90001274856E+02 0.  0.
        -12    1    1    2    0    0  0.69437608211E+00 -0.52108276692E+00  0.79772357493E+00  0.11790030939E+01  0.00000000000E+00 0.  1.
         11    1    3    3    0    0  0.16741293029E+02 -0.34740277212E+02 -0.10671716180E+02  0.40013038869E+02  0.51100000000E-03 0. -1.
        -11    1    3    3    0    0 -0.67088426801E+01 -0.19503480120E+01 -0.49139834788E+01  0.85416427791E+01  0.51100000000E-03 0.  1.
        -12    1    3    3    0    0 -0.10726826430E+02  0.37211707991E+02  0.14787976084E+02  0.41454315258E+02  0.00000000000E+00 0.  1.
</event>
<event>
 7    1  0.1756449E-015  0.9000776E+02  0.7816164E-02  0.1186339E+00
        -11   -1    0    0    0    0  0.00000000000E+00  0.00000000000E+00  0.45593999997E+02  0.45594000000E+02  0.51100000000E-03 0. -1.
         11   -1    0    0    0    0 -0.00000000000E+00 -0.00000000000E+00 -0.45593999997E+02  0.45594000000E+02  0.51100000000E-03 0.  1.
    9900012    2    1    2    0    0 -0.93675130962E+00 -0.77865212547E-01  0.71372721308E+00  0.90007757422E+02  0.90000019020E+02 0.  0.
        -12    1    1    2    0    0  0.93675130962E+00  0.77865212547E-01 -0.71372721308E+00  0.11802425777E+01  0.00000000000E+00 0.  1.
         11    1    3    3    0    0 -0.20133092623E+02 -0.29063472981E+02  0.19966851049E+02  0.40604211867E+02  0.51100000000E-03 0. -1.
        -11    1    3    3    0    0  0.47864342294E+01 -0.57013842827E+01 -0.60682575426E+00  0.74688669240E+01  0.51100000000E-03 0.  1.
        -12    1    3    3    0    0  0.14409907084E+02  0.34686992051E+02 -0.18646298082E+02  0.41934678631E+02  0.00000000000E+00 0.  1.
</event>
<event>
 7    1  0.1756449E-015  0.9000784E+02  0.7816164E-02  0.1186339E+00
        -11   -1    0    0    0    0  0.00000000000E+00  0.00000000000E+00  0.45593999997E+02  0.45594000000E+02  0.51100000000E-03 0. -1.
         11   -1    0    0    0    0 -0.00000000000E+00 -0.00000000000E+00 -0.45593999997E+02  0.45594000000E+02  0.51100000000E-03 0.  1.
    9900012    2    1    2    0    0  0.82834780473E+00  0.80982699422E+00  0.22537618705E+00  0.90007841421E+02  0.90000104128E+02 0.  0.
        -12    1    1    2    0    0 -0.82834780473E+00 -0.80982699422E+00 -0.22537618705E+00  0.11801585791E+01  0.00000000000E+00 0.  1.
         11    1    3    3    0    0  0.73593165987E+01  0.21326110402E+01  0.57519033265E+01  0.95808122195E+01  0.51100000000E-03 0. -1.
        -11    1    3    3    0    0  0.16579436450E+02  0.33274991390E+02 -0.10222300649E+02  0.38556428722E+02  0.51100000000E-03 0.  1.
         12    1    3    3    0    0 -0.23110405244E+02 -0.34597775435E+02  0.46957735096E+01  0.41870600479E+02  0.00000000000E+00 0. -1.
</event>
<event>
 7    1  0.1756449E-015  0.9000780E+02  0.7816164E-02  0.1186339E+00
        -11   -1    0    0    0    0  0.00000000000E+00  0.00000000000E+00  0.45593999997E+02  0.45594000000E+02  0.51100000000E-03 0.  1.
         11   -1    0    0    0    0 -0.00000000000E+00 -0.00000000000E+00 -0.45593999997E+02  0.45594000000E+02  0.51100000000E-03 0. -1.
    9900012    2    1    2    0    0 -0.10883640641E+01 -0.41763518136E+00  0.18413387290E+00  0.90007804777E+02  0.90000067000E+02 0.  0.
        -12    1    1    2    0    0  0.10883640641E+01  0.41763518136E+00 -0.18413387290E+00  0.11801952227E+01  0.00000000000E+00 0.  1.
         11    1    3    3    0    0  0.55001318035E+01 -0.65391013623E+01  0.28785237911E+01  0.90164957694E+01  0.51100000000E-03 0. -1.
        -11    1    3    3    0    0  0.25192544444E+02 -0.88835817437E+01 -0.27217372740E+02  0.38136173108E+02  0.51100000000E-03 0.  1.
         12    1    3    3    0    0 -0.31781040312E+02  0.15005047925E+02  0.24522982822E+02  0.42855135900E+02  0.00000000000E+00 0. -1.
</event>
<event>
 7    1  0.1756449E-015  0.9000772E+02  0.7816164E-02  0.1186339E+00
        -11   -1    0    0    0    0  0.00000000000E+00  0.00000000000E+00  0.45593999997E+02  0.45594000000E+02  0.51100000000E-03 0.  1.
         11   -1    0    0    0    0 -0.00000000000E+00 -0.00000000000E+00 -0.45593999997E+02  0.45594000000E+02  0.51100000000E-03 0. -1.
    9900012    2    1    2    0    0 -0.33620702069E+00 -0.31757553605E+00 -0.10858941795E+01  0.90007722257E+02  0.89999983391E+02 0.  0.
        -12    1    1    2    0    0  0.33620702069E+00  0.31757553605E+00  0.10858941795E+01  0.11802777431E+01  0.00000000000E+00 0.  1.
         11    1    3    3    0    0  0.21554111532E+02  0.26281994513E+02 -0.20675892970E+02  0.39784613985E+02  0.51100000000E-03 0. -1.
        -11    1    3    3    0    0 -0.31741739600E-01 -0.56376612103E+01 -0.76409340078E+01  0.94956887182E+01  0.51100000000E-03 0.  1.
        -12    1    3    3    0    0 -0.21858576813E+02 -0.20961908839E+02  0.27230932799E+02  0.40727419554E+02  0.00000000000E+00 0.  1.
</event>
<event>
 7    1  0.1756449E-015  0.9000776E+02  0.7816164E-02  0.1186339E+00
        -11   -1    0    0    0    0  0.00000000000E+00  0.00000000000E+00  0.45593999997E+02  0.45594000000E+02  0.51100000000E-03 0.  1.
         11   -1    0    0    0    0 -0.00000000000E+00 -0.00000000000E+00 -0.45593999997E+02  0.45594000000E+02  0.51100000000E-03 0. -1.
    9900012    2    1    2    0    0 -0.85251731957E+00 -0.65435593006E+00  0.48785858096E+00  0.90007757034E+02  0.90000018627E+02 0.  0.
        -12    1    1    2    0    0  0.85251731957E+00  0.65435593006E+00 -0.48785858096E+00  0.11802429658E+01  0.00000000000E+00 0.  1.
         11    1    3    3    0    0  0.44071752195E+01  0.23662491803E+01  0.75505699895E+01  0.90572311457E+01  0.51100000000E-03 0. -1.
        -11    1    3    3    0    0 -0.40474585733E+02 -0.80829557761E+01  0.84645933876E+01  0.42132832872E+02  0.51100000000E-03 0.  1.
         12    1    3    3    0    0  0.35214893194E+02  0.50623506657E+01 -0.15527304796E+02  0.38817693017E+02  0.00000000000E+00 0. -1.
</event>
<event>
 7    1  0.1756449E-015  0.9000771E+02  0.7816164E-02  0.1186339E+00
        -11   -1    0    0    0    0  0.00000000000E+00  0.00000000000E+00  0.45593999997E+02  0.45594000000E+02  0.51100000000E-03 0.  1.
         11   -1    0    0    0    0 -0.00000000000E+00 -0.00000000000E+00 -0.45593999997E+02  0.45594000000E+02  0.51100000000E-03 0. -1.
    9900012    2    1    2    0    0 -0.12899924360E+00 -0.60360201253E+00 -0.10060332224E+01  0.90007712307E+02  0.89999973309E+02 0.  0.
        -12    1    1    2    0    0  0.12899924360E+00  0.60360201253E+00  0.10060332224E+01  0.11802876933E+01  0.00000000000E+00 0.  1.
         11    1    3    3    0    0 -0.22211977396E+01 -0.10152528093E+02  0.18745982787E+01  0.10560381861E+02  0.51100000000E-03 0. -1.
        -11    1    3    3    0    0  0.40234895063E+02  0.65966715020E+01  0.23233710623E+01  0.40838228524E+02  0.51100000000E-03 0.  1.
         12    1    3    3    0    0 -0.38142696567E+02  0.29522545788E+01 -0.52040025633E+01  0.38609101921E+02  0.00000000000E+00 0. -1.
</event>
<event>
 7    1  0.1756449E-015  0.9000777E+02  0.7816164E-02  0.1186339E+00
        -11   -1    0    0    0    0  0.00000000000E+00  0.00000000000E+00  0.45593999997E+02  0.45594000000E+02  0.51100000000E-03 0. -1.
         11   -1    0    0    0    0 -0.00000000000E+00 -0.00000000000E+00 -0.45593999997E+02  0.45594000000E+02  0.51100000000E-03 0.  1.
    9900012    2    1    2    0    0 -0.11555438316E+01 -0.17632889235E-01  0.23947360516E+00  0.90007771178E+02  0.90000032957E+02 0.  0.
        -12    1    1    2    0    0  0.11555438316E+01  0.17632889235E-01 -0.23947360516E+00  0.11802288224E+01  0.00000000000E+00 0.  1.
         11    1    3    3    0    0  0.10747677780E+01 -0.19085884248E+00 -0.10944711726E+02  0.10999012132E+02  0.51100000000E-03 0. -1.
        -11    1    3    3    0    0 -0.18739816410E+02 -0.27948757031E+02 -0.15332613268E+02  0.36978409491E+02  0.51100000000E-03 0.  1.
         12    1    3    3    0    0  0.16509504800E+02  0.28121982984E+02  0.26516798599E+02  0.42030349554E+02  0.00000000000E+00 0. -1.
</event>
<event>
 7    1  0.1756449E-015  0.9000755E+02  0.7816164E-02  0.1186339E+00
        -11   -1    0    0    0    0  0.00000000000E+00  0.00000000000E+00  0.45593999997E+02  0.45594000000E+02  0.51100000000E-03 0.  1.
         11   -1    0    0    0    0 -0.00000000000E+00 -0.00000000000E+00 -0.45593999997E+02  0.45594000000E+02  0.51100000000E-03 0. -1.
    9900012    2    1    2    0    0  0.64350178749E+00 -0.60792211360E+00 -0.78090294499E+00  0.90007545318E+02  0.89999804116E+02 0.  0.
        -12    1    1    2    0    0 -0.64350178749E+00  0.60792211360E+00  0.78090294499E+00  0.11804546820E+01  0.00000000000E+00 0.  1.
         11    1    3    3    0    0 -0.75601451910E+01  0.60338484063E+00  0.24087285288E+01  0.79575022439E+01  0.51100000000E-03 0. -1.
        -11    1    3    3    0    0  0.25091286180E+02  0.14626859131E+01  0.33319176608E+02  0.41735831396E+02  0.51100000000E-03 0.  1.
         12    1    3    3    0    0 -0.16887639202E+02 -0.26739928673E+01 -0.36508808082E+02  0.40314211678E+02  0.00000000000E+00 0. -1.
</event>
<event>
 7    1  0.2135201E-015  0.9000764E+02  0.7816164E-02  0.1186339E+00
        -11   -1    0    0    0    0  0.00000000000E+00  0.00000000000E+00  0.45593999997E+02  0.45594000000E+02  0.51100000000E-03 0.  1.
         11   -1    0    0    0    0 -0.00000000000E+00 -0.00000000000E+00 -0.45593999997E+02  0.45594000000E+02  0.51100000000E-03 0. -1.
    9900012    2    1    2    0    0  0.11092595228E+01  0.95775516541E-01  0.39194872874E+00  0.90007638426E+02  0.89999898454E+02 0.  0.
        -12    1    1    2    0    0 -0.11092595228E+01 -0.95775516541E-01 -0.39194872874E+00  0.11803615736E+01  0.00000000000E+00 0.  1.
         11    1    3    3    0    0 -0.98400110296E+00 -0.76430356603E+01 -0.51507228548E+01  0.92689912323E+01  0.51100000000E-03 0. -1.
        -11    1    3    3    0    0 -0.35449347221E+02 -0.11534526889E+02  0.91460658764E+01  0.38384268264E+02  0.51100000000E-03 0.  1.
         12    1    3    3    0    0  0.37542607846E+02  0.19273338065E+02 -0.36033942928E+01  0.42354378930E+02  0.00000000000E+00 0. -1.
</event>
<event>
 7    1  0.1756449E-015  0.9000777E+02  0.7816164E-02  0.1186339E+00
        -11   -1    0    0    0    0  0.00000000000E+00  0.00000000000E+00  0.45593999997E+02  0.45594000000E+02  0.51100000000E-03 0. -1.
         11   -1    0    0    0    0 -0.00000000000E+00 -0.00000000000E+00 -0.45593999997E+02  0.45594000000E+02  0.51100000000E-03 0.  1.
    9900012    2    1    2    0    0 -0.10550504034E+01  0.19352622881E+00  0.49230297365E+00  0.90007768678E+02  0.90000030425E+02 0.  0.
        -12    1    1    2    0    0  0.10550504034E+01 -0.19352622881E+00 -0.49230297365E+00  0.11802313218E+01  0.00000000000E+00 0.  1.
         11    1    3    3    0    0 -0.30303571934E+01  0.32950638335E+02  0.16249408424E+02  0.36864222571E+02  0.51100000000E-03 0. -1.
        -11    1    3    3    0    0 -0.13168618544E+02  0.45287433748E+00  0.50223292603E+00  0.13185971625E+02  0.51100000000E-03 0.  1.
        -12    1    3    3    0    0  0.15143925334E+02 -0.33209986443E+02 -0.16259338376E+02  0.39957574482E+02  0.00000000000E+00 0.  1.
</event>
<event>
 7    1  0.1756449E-015  0.9000777E+02  0.7816164E-02  0.1186339E+00
        -11   -1    0    0    0    0  0.00000000000E+00  0.00000000000E+00  0.45593999997E+02  0.45594000000E+02  0.51100000000E-03 0.  1.
         11   -1    0    0    0    0 -0.00000000000E+00 -0.00000000000E+00 -0.45593999997E+02  0.45594000000E+02  0.51100000000E-03 0. -1.
    9900012    2    1    2    0    0  0.54189819068E+00 -0.30291931771E+00 -0.10037551528E+01  0.90007771984E+02  0.90000033775E+02 0.  0.
        -12    1    1    2    0    0 -0.54189819068E+00  0.30291931771E+00  0.10037551528E+01  0.11802280156E+01  0.00000000000E+00 0.  1.
         11    1    3    3    0    0 -0.17804850874E+01 -0.10360185478E+02 -0.10917669029E+01  0.10568610387E+02  0.51100000000E-03 0. -1.
        -11    1    3    3    0    0 -0.37121374500E+02 -0.25622507820E+01  0.57125552570E+01  0.37645648642E+02  0.51100000000E-03 0.  1.
         12    1    3    3    0    0  0.39443757778E+02  0.12619516942E+02 -0.56245435069E+01  0.41793512956E+02  0.00000000000E+00 0. -1.
</event>
<event>
 7    1  0.1756449E-015  0.9000770E+02  0.7816164E-02  0.1186339E+00
        -11   -1    0    0    0    0  0.00000000000E+00  0.00000000000E+00  0.45593999997E+02  0.45594000000E+02  0.51100000000E-03 0.  1.
         11   -1    0    0    0    0 -0.00000000000E+00 -0.00000000000E+00 -0.45593999997E+02  0.45594000000E+02  0.51100000000E-03 0. -1.
    9900012    2    1    2    0    0  0.75682994882E+00  0.87635070805E+00 -0.22874479533E+00  0.90007700751E+02  0.89999961601E+02 0.  0.
        -12    1    1    2    0    0 -0.75682994882E+00 -0.87635070805E+00  0.22874479533E+00  0.11802992486E+01  0.00000000000E+00 0.  1.
         11    1    3    3    0    0 -0.18425570922E+02 -0.10286462266E+02 -0.29686030064E+02  0.36422154672E+02  0.51100000000E-03 0. -1.
        -11    1    3    3    0    0  0.20935342184E+01 -0.21802451065E+01 -0.89690550456E+01  0.94646871539E+01  0.51100000000E-03 0.  1.
        -12    1    3    3    0    0  0.17088866652E+02  0.13343058080E+02  0.38426340314E+02  0.44120858926E+02  0.00000000000E+00 0.  1.
</event>
<event>
 7    1  0.1756449E-015  0.9000778E+02  0.7816164E-02  0.1186339E+00
        -11   -1    0    0    0    0  0.00000000000E+00  0.00000000000E+00  0.45593999997E+02  0.45594000000E+02  0.51100000000E-03 0.  1.
         11   -1    0    0    0    0 -0.00000000000E+00 -0.00000000000E+00 -0.45593999997E+02  0.45594000000E+02  0.51100000000E-03 0. -1.
    9900012    2    1    2    0    0 -0.58139644858E+00 -0.10165085608E+01 -0.14702545034E+00  0.90007776306E+02  0.90000038153E+02 0.  0.
        -12    1    1    2    0    0  0.58139644858E+00  0.10165085608E+01  0.14702545034E+00  0.11802236939E+01  0.00000000000E+00 0.  1.
         11    1    3    3    0    0 -0.26671863061E+00  0.85231275798E+01 -0.29784907313E+01  0.90325107178E+01  0.51100000000E-03 0. -1.
        -11    1    3    3    0    0 -0.18409615594E+02  0.31264530116E+02  0.18121687670E+01  0.36327245224E+02  0.51100000000E-03 0.  1.
         12    1    3    3    0    0  0.18094937776E+02 -0.40804166257E+02  0.10192965140E+01  0.44648020364E+02  0.00000000000E+00 0. -1.
</event>
<event>
 7    1  0.1756449E-015  0.9000778E+02  0.7816164E-02  0.1186339E+00
        -11   -1    0    0    0    0  0.00000000000E+00  0.00000000000E+00  0.45593999997E+02  0.45594000000E+02  0.51100000000E-03 0.  1.
         11   -1    0    0    0    0 -0.00000000000E+00 -0.00000000000E+00 -0.45593999997E+02  0.45594000000E+02  0.51100000000E-03 0. -1.
    9900012    2    1    2    0    0  0.30351803278E+00  0.72852757622E+00 -0.87751966192E+00  0.90007781214E+02  0.90000043126E+02 0.  0.
        -12    1    1    2    0    0 -0.30351803278E+00 -0.72852757622E+00  0.87751966192E+00  0.11802187859E+01  0.00000000000E+00 0.  1.
         11    1    3    3    0    0 -0.29448336077E+02  0.18433192740E+02 -0.13918001724E+02  0.37425898313E+02  0.51100000000E-03 0. -1.
        -11    1    3    3    0    0 -0.88212899574E+01 -0.16008693672E+01  0.67158668983E+00  0.89904932115E+01  0.51100000000E-03 0.  1.
        -12    1    3    3    0    0  0.38573144067E+02 -0.16103795797E+02  0.12368895373E+02  0.43591389689E+02  0.00000000000E+00 0.  1.
</event>
<event>
 7    1  0.1901134E-015  0.9000785E+02  0.7816164E-02  0.1186339E+00
        -11   -1    0    0    0    0  0.00000000000E+00  0.00000000000E+00  0.45593999997E+02  0.45594000000E+02  0.51100000000E-03 0.  1.
         11   -1    0    0    0    0 -0.00000000000E+00 -0.00000000000E+00 -0.45593999997E+02  0.45594000000E+02  0.51100000000E-03 0. -1.
    9900012    2    1    2    0    0 -0.40657728519E+00 -0.97733552859E+00  0.52179922223E+00  0.90007845666E+02  0.90000108428E+02 0.  0.
        -12    1    1    2    0    0  0.40657728519E+00  0.97733552859E+00 -0.52179922223E+00  0.11801543342E+01  0.00000000000E+00 0.  1.
         11    1    3    3    0    0 -0.13003570844E+01  0.84555010817E+01 -0.39506669726E+01  0.94230672755E+01  0.51100000000E-03 0. -1.
        -11    1    3    3    0    0 -0.14630539789E+02  0.23763842420E+02  0.25950174437E+02  0.38107538029E+02  0.51100000000E-03 0.  1.
         12    1    3    3    0    0  0.15524319589E+02 -0.33196679030E+02 -0.21477708243E+02  0.42477240361E+02  0.00000000000E+00 0. -1.
</event>
<event>
 7    1  0.1756449E-015  0.9000796E+02  0.7816164E-02  0.1186339E+00
        -11   -1    0    0    0    0  0.00000000000E+00  0.00000000000E+00  0.45593999997E+02  0.45594000000E+02  0.51100000000E-03 0.  1.
         11   -1    0    0    0    0 -0.00000000000E+00 -0.00000000000E+00 -0.45593999997E+02  0.45594000000E+02  0.51100000000E-03 0. -1.
    9900012    2    1    2    0    0  0.74420739772E+00  0.24565835886E+00 -0.88221682541E+00  0.90007957964E+02  0.90000222209E+02 0.  0.
        -12    1    1    2    0    0 -0.74420739772E+00 -0.24565835886E+00  0.88221682541E+00  0.11800420362E+01  0.00000000000E+00 0.  1.
         11    1    3    3    0    0  0.16887101558E+02 -0.32254696969E+02 -0.84580307252E+01  0.37377506065E+02  0.51100000000E-03 0. -1.
        -11    1    3    3    0    0 -0.27384102467E+01 -0.80417162877E+01 -0.23034431362E+01  0.88019283156E+01  0.51100000000E-03 0.  1.
        -12    1    3    3    0    0 -0.13404483914E+02  0.40542071616E+02  0.98792570360E+01  0.43828523583E+02  0.00000000000E+00 0.  1.
</event>
<event>
 7    1  0.1756449E-015  0.9000752E+02  0.7816164E-02  0.1186339E+00
        -11   -1    0    0    0    0  0.00000000000E+00  0.00000000000E+00  0.45593999997E+02  0.45594000000E+02  0.51100000000E-03 0.  1.
         11   -1    0    0    0    0 -0.00000000000E+00 -0.00000000000E+00 -0.45593999997E+02  0.45594000000E+02  0.51100000000E-03 0. -1.
    9900012    2    1    2    0    0  0.15515321763E-01  0.11800639153E+01  0.27179742924E-01  0.90007521153E+02  0.89999779632E+02 0.  0.
        -12    1    1    2    0    0 -0.15515321763E-01 -0.11800639153E+01 -0.27179742924E-01  0.11804788469E+01  0.00000000000E+00 0.  1.
         11    1    3    3    0    0  0.91737208948E+01 -0.29179677283E+01 -0.13396422892E+00  0.96275457617E+01  0.51100000000E-03 0. -1.
        -11    1    3    3    0    0  0.28476636845E+02  0.29877678660E+01 -0.22517308338E+02  0.36426292398E+02  0.51100000000E-03 0.  1.
         12    1    3    3    0    0 -0.37634842418E+02  0.11102637777E+01  0.22678452310E+02  0.43953682993E+02  0.00000000000E+00 0. -1.
</event>
<event>
 7    1  0.1756449E-015  0.9000777E+02  0.7816164E-02  0.1186339E+00
        -11   -1    0    0    0    0  0.00000000000E+00  0.00000000000E+00  0.45593999997E+02  0.45594000000E+02  0.51100000000E-03 0.  1.
         11   -1    0    0    0    0 -0.00000000000E+00 -0.00000000000E+00 -0.45593999997E+02  0.45594000000E+02  0.51100000000E-03 0. -1.
    9900012    2    1    2    0    0 -0.91373551345E+00  0.70659010653E+00 -0.24241932792E+00  0.90007767270E+02  0.90000028998E+02 0.  0.
        -12    1    1    2    0    0  0.91373551345E+00 -0.70659010653E+00  0.24241932792E+00  0.11802327303E+01  0.00000000000E+00 0.  1.
         11    1    3    3    0    0 -0.11862889959E+02 -0.33012959971E+02 -0.87518815976E+01  0.36154932112E+02  0.51100000000E-03 0. -1.
        -11    1    3    3    0    0  0.13247729515E+02  0.38177421092E+00 -0.91033033339E+01  0.16078501817E+02  0.51100000000E-03 0.  1.
        -12    1    3    3    0    0 -0.22985750689E+01  0.33337775867E+02  0.17612765604E+02  0.37774333340E+02  0.00000000000E+00 0.  1.
</event>
<event>
 7    1  0.1756449E-015  0.9000773E+02  0.7816164E-02  0.1186339E+00
        -11   -1    0    0    0    0  0.00000000000E+00  0.00000000000E+00  0.45593999997E+02  0.45594000000E+02  0.51100000000E-03 0.  1.
         11   -1    0    0    0    0 -0.00000000000E+00 -0.00000000000E+00 -0.45593999997E+02  0.45594000000E+02  0.51100000000E-03 0. -1.
    9900012    2    1    2    0    0 -0.53497683703E+00  0.75754503606E+00 -0.73004310301E+00  0.90007729849E+02  0.89999991083E+02 0.  0.
        -12    1    1    2    0    0  0.53497683703E+00 -0.75754503606E+00  0.73004310301E+00  0.11802701513E+01  0.00000000000E+00 0.  1.
         11    1    3    3    0    0 -0.37526100129E+01 -0.67053125216E+01  0.40092328946E+01  0.86670206291E+01  0.51100000000E-03 0. -1.
        -11    1    3    3    0    0  0.30526718292E+02 -0.18131904160E+02 -0.20194663033E+02  0.40846920244E+02  0.51100000000E-03 0.  1.
         12    1    3    3    0    0 -0.27309085116E+02  0.25594761717E+02  0.15455387035E+02  0.40493788976E+02  0.00000000000E+00 0. -1.
</event>
<event>
 7    1  0.1756449E-015  0.9000772E+02  0.7816164E-02  0.1186339E+00
        -11   -1    0    0    0    0  0.00000000000E+00  0.00000000000E+00  0.45593999997E+02  0.45594000000E+02  0.51100000000E-03 0.  1.
         11   -1    0    0    0    0 -0.00000000000E+00 -0.00000000000E+00 -0.45593999997E+02  0.45594000000E+02  0.51100000000E-03 0. -1.
    9900012    2    1    2    0    0 -0.79911918935E+00 -0.70891377926E+00  0.50190593017E+00  0.90007720462E+02  0.89999981572E+02 0.  0.
        -12    1    1    2    0    0  0.79911918935E+00  0.70891377926E+00 -0.50190593017E+00  0.11802795381E+01  0.00000000000E+00 0.  1.
         11    1    3    3    0    0 -0.39102950330E+01 -0.30799307022E+02  0.23792691717E+02  0.39114957493E+02  0.51100000000E-03 0. -1.
        -11    1    3    3    0    0 -0.84877683489E+01 -0.29167300963E+01 -0.20616308765E+00  0.89773063599E+01  0.51100000000E-03 0.  1.
        -12    1    3    3    0    0  0.11598944193E+02  0.33007123339E+02 -0.23084622700E+02  0.41915456609E+02  0.00000000000E+00 0.  1.
</event>
<event>
 7    1  0.1756449E-015  0.9000770E+02  0.7816164E-02  0.1186339E+00
        -11   -1    0    0    0    0  0.00000000000E+00  0.00000000000E+00  0.45593999997E+02  0.45594000000E+02  0.51100000000E-03 0.  1.
         11   -1    0    0    0    0 -0.00000000000E+00 -0.00000000000E+00 -0.45593999997E+02  0.45594000000E+02  0.51100000000E-03 0. -1.
    9900012    2    1    2    0    0 -0.45075704508E+00  0.87784988196E+00  0.64752937196E+00  0.90007704860E+02  0.89999965765E+02 0.  0.
        -12    1    1    2    0    0  0.45075704508E+00 -0.87784988196E+00 -0.64752937196E+00  0.11802951396E+01  0.00000000000E+00 0.  1.
         11    1    3    3    0    0  0.93016114062E+01 -0.36409938010E+02 -0.15876540937E+02  0.40795442307E+02  0.51100000000E-03 0. -1.
        -11    1    3    3    0    0  0.75278602070E+01  0.33214652566E+01  0.34600878228E+01  0.89259743865E+01  0.51100000000E-03 0.  1.
        -12    1    3    3    0    0 -0.17280228658E+02  0.33966322636E+02  0.13063982486E+02  0.40286288167E+02  0.00000000000E+00 0.  1.
</event>
<event>
 7    1  0.1756449E-015  0.9000776E+02  0.7816164E-02  0.1186339E+00
        -11   -1    0    0    0    0  0.00000000000E+00  0.00000000000E+00  0.45593999997E+02  0.45594000000E+02  0.51100000000E-03 0. -1.
         11   -1    0    0    0    0 -0.00000000000E+00 -0.00000000000E+00 -0.45593999997E+02  0.45594000000E+02  0.51100000000E-03 0.  1.
    9900012    2    1    2    0    0  0.67331684184E+00 -0.71370600975E+00  0.65593080935E+00  0.90007755506E+02  0.90000017079E+02 0.  0.
        -12    1    1    2    0    0 -0.67331684184E+00  0.71370600975E+00 -0.65593080935E+00  0.11802444935E+01  0.00000000000E+00 0.  1.
         11    1    3    3    0    0  0.86848796952E+01 -0.26107258487E+01  0.57862211913E+00  0.90872343754E+01  0.51100000000E-03 0. -1.
        -11    1    3    3    0    0  0.27374404725E+02 -0.19649775736E+02 -0.14930264752E+02  0.36856268481E+02  0.51100000000E-03 0.  1.
         12    1    3    3    0    0 -0.35385967579E+02  0.21546795575E+02  0.15007573442E+02  0.44064252650E+02  0.00000000000E+00 0. -1.
</event>
<event>
 7    1  0.1756449E-015  0.9000773E+02  0.7816164E-02  0.1186339E+00
        -11   -1    0    0    0    0  0.00000000000E+00  0.00000000000E+00  0.45593999997E+02  0.45594000000E+02  0.51100000000E-03 0.  1.
         11   -1    0    0    0    0 -0.00000000000E+00 -0.00000000000E+00 -0.45593999997E+02  0.45594000000E+02  0.51100000000E-03 0. -1.
    9900012    2    1    2    0    0 -0.96847639061E+00 -0.53353171317E+00 -0.41283065247E+00  0.90007732337E+02  0.89999993604E+02 0.  0.
        -12    1    1    2    0    0  0.96847639061E+00  0.53353171317E+00  0.41283065247E+00  0.11802676628E+01  0.00000000000E+00 0.  1.
         11    1    3    3    0    0 -0.10798896042E+02 -0.30495438989E+02 -0.27278549562E+02  0.42316748710E+02  0.51100000000E-03 0. -1.
        -11    1    3    3    0    0 -0.65134305960E+01  0.22743975843E+01  0.73469519371E+01  0.10078460474E+02  0.51100000000E-03 0.  1.
        -12    1    3    3    0    0  0.16343850248E+02  0.27687509692E+02  0.19518766972E+02  0.37612523154E+02  0.00000000000E+00 0.  1.
</event>
<event>
 7    1  0.1756449E-015  0.9000767E+02  0.7816164E-02  0.1186339E+00
        -11   -1    0    0    0    0  0.00000000000E+00  0.00000000000E+00  0.45593999997E+02  0.45594000000E+02  0.51100000000E-03 0. -1.
         11   -1    0    0    0    0 -0.00000000000E+00 -0.00000000000E+00 -0.45593999997E+02  0.45594000000E+02  0.51100000000E-03 0.  1.
    9900012    2    1    2    0    0 -0.10862029181E+01 -0.43971917235E-01 -0.45979256227E+00  0.90007669746E+02  0.89999930186E+02 0.  0.
        -12    1    1    2    0    0  0.10862029181E+01  0.43971917235E-01  0.45979256227E+00  0.11803302543E+01  0.00000000000E+00 0.  1.
         11    1    3    3    0    0  0.10812342746E+02  0.11908505877E+02  0.36845146537E+02  0.40203035849E+02  0.51100000000E-03 0. -1.
        -11    1    3    3    0    0 -0.32407583254E+01  0.82964169966E+01 -0.37402639272E+01  0.96603635548E+01  0.51100000000E-03 0.  1.
        -12    1    3    3    0    0 -0.86577873385E+01 -0.20248894791E+02 -0.33564675172E+02  0.40144270342E+02  0.00000000000E+00 0.  1.
</event>
<event>
 7    1  0.1756449E-015  0.9000774E+02  0.7816164E-02  0.1186339E+00
        -11   -1    0    0    0    0  0.00000000000E+00  0.00000000000E+00  0.45593999997E+02  0.45594000000E+02  0.51100000000E-03 0. -1.
         11   -1    0    0    0    0 -0.00000000000E+00 -0.00000000000E+00 -0.45593999997E+02  0.45594000000E+02  0.51100000000E-03 0.  1.
    9900012    2    1    2    0    0 -0.13829277058E+00 -0.11373864952E+01  0.28327605021E+00  0.90007738059E+02  0.89999999401E+02 0.  0.
        -12    1    1    2    0    0  0.13829277058E+00  0.11373864952E+01 -0.28327605021E+00  0.11802619415E+01  0.00000000000E+00 0.  1.
         11    1    3    3    0    0  0.25357642716E+01  0.10570681643E+02 -0.59690243157E+00  0.10886951071E+02  0.51100000000E-03 0. -1.
        -11    1    3    3    0    0  0.55443689799E+01  0.10292433417E+01 -0.37465568431E+02  0.37887572994E+02  0.51100000000E-03 0.  1.
         12    1    3    3    0    0 -0.82184260222E+01 -0.12737311480E+02  0.38345746912E+02  0.41233213994E+02  0.00000000000E+00 0. -1.
</event>
<event>
 7    1  0.1756449E-015  0.9000731E+02  0.7816164E-02  0.1186340E+00
        -11   -1    0    0    0    0  0.00000000000E+00  0.00000000000E+00  0.45593999997E+02  0.45594000000E+02  0.51100000000E-03 0. -1.
         11   -1    0    0    0    0 -0.00000000000E+00 -0.00000000000E+00 -0.45593999997E+02  0.45594000000E+02  0.51100000000E-03 0.  1.
    9900012    2    1    2    0    0 -0.93622937420E+00  0.45441736275E+00  0.55767193648E+00  0.90007314365E+02  0.89999570113E+02 0.  0.
        -12    1    1    2    0    0  0.93622937420E+00 -0.45441736275E+00 -0.55767193648E+00  0.11806856353E+01  0.00000000000E+00 0.  1.
         11    1    3    3    0    0 -0.71886523939E+01 -0.45366983991E+01 -0.21035233766E+01  0.87568925117E+01  0.51100000000E-03 0. -1.
        -11    1    3    3    0    0 -0.14600307079E+02 -0.25298497972E+02 -0.22348439207E+02  0.36778196009E+02  0.51100000000E-03 0.  1.
         12    1    3    3    0    0  0.20852730099E+02  0.30289613734E+02  0.25009634520E+02  0.44472225844E+02  0.00000000000E+00 0. -1.
</event>
<event>
 7    1  0.1756449E-015  0.9000771E+02  0.7816164E-02  0.1186339E+00
        -11   -1    0    0    0    0  0.00000000000E+00  0.00000000000E+00  0.45593999997E+02  0.45594000000E+02  0.51100000000E-03 0.  1.
         11   -1    0    0    0    0 -0.00000000000E+00 -0.00000000000E+00 -0.45593999997E+02  0.45594000000E+02  0.51100000000E-03 0. -1.
    9900012    2    1    2    0    0  0.28485418604E+00 -0.10914870248E+01 -0.34726412761E+00  0.90007712659E+02  0.89999973666E+02 0.  0.
        -12    1    1    2    0    0 -0.28485418604E+00  0.10914870248E+01  0.34726412761E+00  0.11802873409E+01  0.00000000000E+00 0.  1.
         11    1    3    3    0    0 -0.37597157357E+01 -0.19845487357E+02 -0.29216260951E+02  0.35518568878E+02  0.51100000000E-03 0. -1.
        -11    1    3    3    0    0 -0.15649545535E+02 -0.27814837399E+01  0.46372172480E+01  0.16557436738E+02  0.51100000000E-03 0.  1.
        -12    1    3    3    0    0  0.19694115457E+02  0.21535484072E+02  0.24231779576E+02  0.37931707044E+02  0.00000000000E+00 0.  1.
</event>
<event>
 7    1  0.1756449E-015  0.9000768E+02  0.7816164E-02  0.1186339E+00
        -11   -1    0    0    0    0  0.00000000000E+00  0.00000000000E+00  0.45593999997E+02  0.45594000000E+02  0.51100000000E-03 0.  1.
         11   -1    0    0    0    0 -0.00000000000E+00 -0.00000000000E+00 -0.45593999997E+02  0.45594000000E+02  0.51100000000E-03 0. -1.
    9900012    2    1    2    0    0 -0.66199712265E+00 -0.75760337580E+00  0.61720765271E+00  0.90007682944E+02  0.89999943559E+02 0.  0.
        -12    1    1    2    0    0  0.66199712265E+00  0.75760337580E+00 -0.61720765271E+00  0.11803170557E+01  0.00000000000E+00 0.  1.
         11    1    3    3    0    0  0.16422858995E+02  0.24796342256E+02 -0.26252696420E+02  0.39670807358E+02  0.51100000000E-03 0. -1.
        -11    1    3    3    0    0  0.45786570582E+01 -0.90927550355E+01 -0.23109653944E+01  0.10439485423E+02  0.51100000000E-03 0.  1.
        -12    1    3    3    0    0 -0.21663513176E+02 -0.16461190596E+02  0.29180869467E+02  0.39897390163E+02  0.00000000000E+00 0.  1.
</event>
<event>
 7    1  0.1756449E-015  0.9000775E+02  0.7816164E-02  0.1186339E+00
        -11   -1    0    0    0    0  0.00000000000E+00  0.00000000000E+00  0.45593999997E+02  0.45594000000E+02  0.51100000000E-03 0. -1.
         11   -1    0    0    0    0 -0.00000000000E+00 -0.00000000000E+00 -0.45593999997E+02  0.45594000000E+02  0.51100000000E-03 0.  1.
    9900012    2    1    2    0    0  0.29682322720E+00  0.11282299929E+01  0.17886492209E+00  0.90007745957E+02  0.90000007404E+02 0.  0.
        -12    1    1    2    0    0 -0.29682322720E+00 -0.11282299929E+01 -0.17886492209E+00  0.11802540428E+01  0.00000000000E+00 0.  1.
         11    1    3    3    0    0  0.47055647238E+01 -0.16467934687E+01 -0.71149102089E+01  0.86877048546E+01  0.51100000000E-03 0. -1.
        -11    1    3    3    0    0  0.10924951257E+02 -0.95995233629E+01 -0.33222654113E+02  0.36266377753E+02  0.51100000000E-03 0.  1.
         12    1    3    3    0    0 -0.15333692753E+02  0.12374546824E+02  0.40516429244E+02  0.45053663350E+02  0.00000000000E+00 0. -1.
</event>
<event>
 7    1  0.1756449E-015  0.9000778E+02  0.7816164E-02  0.1186339E+00
        -11   -1    0    0    0    0  0.00000000000E+00  0.00000000000E+00  0.45593999997E+02  0.45594000000E+02  0.51100000000E-03 0.  1.
         11   -1    0    0    0    0 -0.00000000000E+00 -0.00000000000E+00 -0.45593999997E+02  0.45594000000E+02  0.51100000000E-03 0. -1.
    9900012    2    1    2    0    0  0.15271736991E+00 -0.71814197354E+00 -0.92404785475E+00  0.90007781831E+02  0.90000043751E+02 0.  0.
        -12    1    1    2    0    0 -0.15271736991E+00  0.71814197354E+00  0.92404785475E+00  0.11802181693E+01  0.00000000000E+00 0.  1.
         11    1    3    3    0    0  0.23912379213E+01 -0.25542010311E+01  0.74621671325E+01  0.82417170710E+01  0.51100000000E-03 0. -1.
        -11    1    3    3    0    0 -0.23019378099E+02 -0.11331518917E+02  0.27914374515E+02  0.37914474728E+02  0.51100000000E-03 0.  1.
         12    1    3    3    0    0  0.20780857547E+02  0.13167577975E+02 -0.36300589503E+02  0.43851590032E+02  0.00000000000E+00 0. -1.
</event>
<event>
 7    1  0.1756449E-015  0.9000768E+02  0.7816164E-02  0.1186339E+00
        -11   -1    0    0    0    0  0.00000000000E+00  0.00000000000E+00  0.45593999997E+02  0.45594000000E+02  0.51100000000E-03 0.  1.
         11   -1    0    0    0    0 -0.00000000000E+00 -0.00000000000E+00 -0.45593999997E+02  0.45594000000E+02  0.51100000000E-03 0. -1.
    9900012    2    1    2    0    0  0.42226143485E+00  0.69629894080E-01 -0.10999958485E+01  0.90007684827E+02  0.89999945466E+02 0.  0.
        -12    1    1    2    0    0 -0.42226143485E+00 -0.69629894080E-01  0.10999958485E+01  0.11803151733E+01  0.00000000000E+00 0.  1.
         11    1    3    3    0    0  0.92759861233E+01 -0.26136085205E+01 -0.19904436050E+01  0.98405657390E+01  0.51100000000E-03 0. -1.
        -11    1    3    3    0    0  0.32167833194E+02  0.16057227092E+02 -0.60732300389E+01  0.36462146915E+02  0.51100000000E-03 0.  1.
         12    1    3    3    0    0 -0.41021557882E+02 -0.13373988677E+02  0.69636777954E+01  0.43704972173E+02  0.00000000000E+00 0. -1.
</event>
<event>
 7    1  0.1756449E-015  0.9000772E+02  0.7816164E-02  0.1186339E+00
        -11   -1    0    0    0    0  0.00000000000E+00  0.00000000000E+00  0.45593999997E+02  0.45594000000E+02  0.51100000000E-03 0.  1.
         11   -1    0    0    0    0 -0.00000000000E+00 -0.00000000000E+00 -0.45593999997E+02  0.45594000000E+02  0.51100000000E-03 0. -1.
    9900012    2    1    2    0    0 -0.71135813041E+00  0.24366681325E+00 -0.90975855466E+00  0.90007718452E+02  0.89999979535E+02 0.  0.
        -12    1    1    2    0    0  0.71135813041E+00 -0.24366681325E+00  0.90975855466E+00  0.11802815483E+01  0.00000000000E+00 0.  1.
         11    1    3    3    0    0 -0.18933289245E+02 -0.34637591958E+02 -0.11504023769E+02  0.41116599828E+02  0.51100000000E-03 0. -1.
        -11    1    3    3    0    0 -0.52266693241E+01  0.82714536640E+01  0.91475105655E+01  0.13394475270E+02  0.51100000000E-03 0.  1.
        -12    1    3    3    0    0  0.23448600439E+02  0.26609805107E+02  0.14467546484E+01  0.35496643354E+02  0.00000000000E+00 0.  1.
</event>
<event>
 7    1  0.1756449E-015  0.9000742E+02  0.7816164E-02  0.1186340E+00
        -11   -1    0    0    0    0  0.00000000000E+00  0.00000000000E+00  0.45593999997E+02  0.45594000000E+02  0.51100000000E-03 0.  1.
         11   -1    0    0    0    0 -0.00000000000E+00 -0.00000000000E+00 -0.45593999997E+02  0.45594000000E+02  0.51100000000E-03 0. -1.
    9900012    2    1    2    0    0  0.39495386780E+00 -0.73347985199E+00 -0.83653731862E+00  0.90007417120E+02  0.89999674225E+02 0.  0.
        -12    1    1    2    0    0 -0.39495386780E+00  0.73347985199E+00  0.83653731862E+00  0.11805828799E+01  0.00000000000E+00 0.  1.
         11    1    3    3    0    0  0.62490053962E+01  0.24690414057E+02 -0.28739829841E+02  0.38401099389E+02  0.51100000000E-03 0. -1.
        -11    1    3    3    0    0  0.18461160072E+01  0.84487117580E+01  0.48409945750E+01  0.99108074049E+01  0.51100000000E-03 0.  1.
        -12    1    3    3    0    0 -0.77001675357E+01 -0.33872605667E+02  0.23062297947E+02  0.41695510326E+02  0.00000000000E+00 0.  1.
</event>
<event>
 7    1  0.1756449E-015  0.9000774E+02  0.7816164E-02  0.1186339E+00
        -11   -1    0    0    0    0  0.00000000000E+00  0.00000000000E+00  0.45593999997E+02  0.45594000000E+02  0.51100000000E-03 0.  1.
         11   -1    0    0    0    0 -0.00000000000E+00 -0.00000000000E+00 -0.45593999997E+02  0.45594000000E+02  0.51100000000E-03 0. -1.
    9900012    2    1    2    0    0 -0.20824758465E+00 -0.87549412521E+00 -0.76365158064E+00  0.90007736997E+02  0.89999998325E+02 0.  0.
        -12    1    1    2    0    0  0.20824758465E+00  0.87549412521E+00  0.76365158064E+00  0.11802630031E+01  0.00000000000E+00 0.  1.
         11    1    3    3    0    0  0.78321489865E+01 -0.10440929400E+02 -0.59470642398E+01  0.14343051901E+02  0.51100000000E-03 0. -1.
        -11    1    3    3    0    0 -0.21286565829E+02 -0.17740453247E+02  0.26685671917E+02  0.38470334703E+02  0.51100000000E-03 0.  1.
         12    1    3    3    0    0  0.13246169258E+02  0.27305888522E+02 -0.21502259258E+02  0.37194350394E+02  0.00000000000E+00 0. -1.
</event>
<event>
 7    1  0.1756449E-015  0.9000766E+02  0.7816164E-02  0.1186339E+00
        -11   -1    0    0    0    0  0.00000000000E+00  0.00000000000E+00  0.45593999997E+02  0.45594000000E+02  0.51100000000E-03 0. -1.
         11   -1    0    0    0    0 -0.00000000000E+00 -0.00000000000E+00 -0.45593999997E+02  0.45594000000E+02  0.51100000000E-03 0.  1.
    9900012    2    1    2    0    0 -0.82969125141E+00 -0.83817192225E+00 -0.47674689680E-01  0.90007664192E+02  0.89999924559E+02 0.  0.
        -12    1    1    2    0    0  0.82969125141E+00  0.83817192225E+00  0.47674689680E-01  0.11803358081E+01  0.00000000000E+00 0.  1.
         11    1    3    3    0    0 -0.53441343048E+01  0.33268931014E+02  0.17656097401E+02  0.38041021516E+02  0.51100000000E-03 0. -1.
        -11    1    3    3    0    0 -0.12099236541E+02 -0.77227434295E+01 -0.14856069662E+02  0.20657567548E+02  0.51100000000E-03 0.  1.
        -12    1    3    3    0    0  0.16613679594E+02 -0.26384359507E+02 -0.28477024289E+01  0.31309075128E+02  0.00000000000E+00 0.  1.
</event>
<event>
 7    1  0.1756449E-015  0.9000768E+02  0.7816164E-02  0.1186339E+00
        -11   -1    0    0    0    0  0.00000000000E+00  0.00000000000E+00  0.45593999997E+02  0.45594000000E+02  0.51100000000E-03 0.  1.
         11   -1    0    0    0    0 -0.00000000000E+00 -0.00000000000E+00 -0.45593999997E+02  0.45594000000E+02  0.51100000000E-03 0. -1.
    9900012    2    1    2    0    0 -0.55512580897E+00  0.10214315741E+01 -0.20410185542E+00  0.90007684495E+02  0.89999945130E+02 0.  0.
        -12    1    1    2    0    0  0.55512580897E+00 -0.10214315741E+01  0.20410185542E+00  0.11803155052E+01  0.00000000000E+00 0.  1.
         11    1    3    3    0    0  0.85471126135E+01 -0.30618933817E+01 -0.18826533566E+01  0.92721469484E+01  0.51100000000E-03 0. -1.
        -11    1    3    3    0    0  0.79867552613E+01  0.39161660908E+02  0.91630001343E+01  0.41004688957E+02  0.51100000000E-03 0.  1.
         12    1    3    3    0    0 -0.17088993684E+02 -0.35078335953E+02 -0.74844486330E+01  0.39730848590E+02  0.00000000000E+00 0. -1.
</event>
<event>
 7    1  0.1756449E-015  0.9000776E+02  0.7816164E-02  0.1186339E+00
        -11   -1    0    0    0    0  0.00000000000E+00  0.00000000000E+00  0.45593999997E+02  0.45594000000E+02  0.51100000000E-03 0.  1.
         11   -1    0    0    0    0 -0.00000000000E+00 -0.00000000000E+00 -0.45593999997E+02  0.45594000000E+02  0.51100000000E-03 0. -1.
    9900012    2    1    2    0    0 -0.63364625414E+00 -0.19046741052E+00 -0.97733961019E+00  0.90007755058E+02  0.90000016625E+02 0.  0.
        -12    1    1    2    0    0  0.63364625414E+00  0.19046741052E+00  0.97733961019E+00  0.11802449422E+01  0.00000000000E+00 0.  1.
         11    1    3    3    0    0  0.76113616174E+01 -0.39359227885E+01 -0.71014529665E+01  0.11129013809E+02  0.51100000000E-03 0. -1.
        -11    1    3    3    0    0 -0.28615285405E+02 -0.27335845028E+02 -0.54707870515E+01  0.39950125075E+02  0.51100000000E-03 0.  1.
         12    1    3    3    0    0  0.20370277534E+02  0.31081300406E+02  0.11594900408E+02  0.38928616174E+02  0.00000000000E+00 0. -1.
</event>
<event>
 7    1  0.1756449E-015  0.9000774E+02  0.7816164E-02  0.1186339E+00
        -11   -1    0    0    0    0  0.00000000000E+00  0.00000000000E+00  0.45593999997E+02  0.45594000000E+02  0.51100000000E-03 0.  1.
         11   -1    0    0    0    0 -0.00000000000E+00 -0.00000000000E+00 -0.45593999997E+02  0.45594000000E+02  0.51100000000E-03 0. -1.
    9900012    2    1    2    0    0 -0.91492548888E+00  0.25764995618E+00 -0.69967965653E+00  0.90007735719E+02  0.89999997031E+02 0.  0.
        -12    1    1    2    0    0  0.91492548888E+00 -0.25764995618E+00  0.69967965653E+00  0.11802642805E+01  0.00000000000E+00 0.  1.
         11    1    3    3    0    0  0.10561887542E+02 -0.31811452851E+01  0.19749045265E+01  0.11205953861E+02  0.51100000000E-03 0. -1.
        -11    1    3    3    0    0  0.13927576293E+02 -0.15077398049E+02  0.28107593212E+02  0.34804340387E+02  0.51100000000E-03 0.  1.
         12    1    3    3    0    0 -0.25404389324E+02  0.18516193291E+02 -0.30782177395E+02  0.43997441472E+02  0.00000000000E+00 0. -1.
</event>
<event>
 7    1  0.1756449E-015  0.9000776E+02  0.7816164E-02  0.1186339E+00
        -11   -1    0    0    0    0  0.00000000000E+00  0.00000000000E+00  0.45593999997E+02  0.45594000000E+02  0.51100000000E-03 0. -1.
         11   -1    0    0    0    0 -0.00000000000E+00 -0.00000000000E+00 -0.45593999997E+02  0.45594000000E+02  0.51100000000E-03 0.  1.
    9900012    2    1    2    0    0 -0.85399537248E+00  0.81434073244E+00 -0.22311728507E-01  0.90007764118E+02  0.90000025804E+02 0.  0.
        -12    1    1    2    0    0  0.85399537248E+00 -0.81434073244E+00  0.22311728507E-01  0.11802358823E+01  0.00000000000E+00 0.  1.
         11    1    3    3    0    0 -0.36447394634E+01  0.35020944870E+01 -0.48662404178E+01  0.70163443200E+01  0.51100000000E-03 0. -1.
        -11    1    3    3    0    0  0.24676794471E+02  0.23534277545E+01 -0.31612304483E+02  0.40172386070E+02  0.51100000000E-03 0.  1.
         12    1    3    3    0    0 -0.21886050380E+02 -0.50411815091E+01  0.36456233173E+02  0.42819033728E+02  0.00000000000E+00 0. -1.
</event>
<event>
 7    1  0.1756449E-015  0.9000773E+02  0.7816164E-02  0.1186339E+00
        -11   -1    0    0    0    0  0.00000000000E+00  0.00000000000E+00  0.45593999997E+02  0.45594000000E+02  0.51100000000E-03 0. -1.
         11   -1    0    0    0    0 -0.00000000000E+00 -0.00000000000E+00 -0.45593999997E+02  0.45594000000E+02  0.51100000000E-03 0.  1.
    9900012    2    1    2    0    0 -0.63402301253E+00 -0.62574195932E+00 -0.77427518090E+00  0.90007728745E+02  0.89999989964E+02 0.  0.
        -12    1    1    2    0    0  0.63402301253E+00  0.62574195932E+00  0.77427518090E+00  0.11802712552E+01  0.00000000000E+00 0.  1.
         11    1    3    3    0    0  0.32563024098E+02  0.44975197030E+00  0.10598338130E+02  0.34247300428E+02  0.51100000000E-03 0. -1.
        -11    1    3    3    0    0  0.10411351459E+02 -0.33010875596E+01 -0.24141912582E+01  0.11185782850E+02  0.51100000000E-03 0.  1.
        -12    1    3    3    0    0 -0.43608398569E+02  0.22255936300E+01 -0.89584220525E+01  0.44574645467E+02  0.00000000000E+00 0.  1.
</event>
<event>
 7    1  0.1756449E-015  0.9000775E+02  0.7816164E-02  0.1186339E+00
        -11   -1    0    0    0    0  0.00000000000E+00  0.00000000000E+00  0.45593999997E+02  0.45594000000E+02  0.51100000000E-03 0. -1.
         11   -1    0    0    0    0 -0.00000000000E+00 -0.00000000000E+00 -0.45593999997E+02  0.45594000000E+02  0.51100000000E-03 0.  1.
    9900012    2    1    2    0    0  0.14137602014E+00 -0.46215701984E+00  0.10767621842E+01  0.90007748717E+02  0.90000010200E+02 0.  0.
        -12    1    1    2    0    0 -0.14137602014E+00  0.46215701984E+00 -0.10767621842E+01  0.11802512831E+01  0.00000000000E+00 0.  1.
         11    1    3    3    0    0 -0.29760392312E+01 -0.63307440780E+01 -0.52049991237E+01  0.87193546909E+01  0.51100000000E-03 0. -1.
        -11    1    3    3    0    0  0.10018728838E+02 -0.12806905536E+02 -0.33257298644E+02  0.37019449892E+02  0.51100000000E-03 0.  1.
         12    1    3    3    0    0 -0.69013135866E+01  0.18675492594E+02  0.39539059952E+02  0.44268944134E+02  0.00000000000E+00 0. -1.
</event>
<event>
 7    1  0.1756449E-015  0.9000763E+02  0.7816164E-02  0.1186339E+00
        -11   -1    0    0    0    0  0.00000000000E+00  0.00000000000E+00  0.45593999997E+02  0.45594000000E+02  0.51100000000E-03 0.  1.
         11   -1    0    0    0    0 -0.00000000000E+00 -0.00000000000E+00 -0.45593999997E+02  0.45594000000E+02  0.51100000000E-03 0. -1.
    9900012    2    1    2    0    0  0.65968247014E+00 -0.22002715579E+00 -0.95376749402E+00  0.90007633386E+02  0.89999893347E+02 0.  0.
        -12    1    1    2    0    0 -0.65968247014E+00  0.22002715579E+00  0.95376749402E+00  0.11803666140E+01  0.00000000000E+00 0.  1.
         11    1    3    3    0    0  0.12546545958E+02 -0.19177063411E+02 -0.27695606596E+02  0.35947492284E+02  0.51100000000E-03 0. -1.
        -11    1    3    3    0    0 -0.69386018537E+01 -0.73400814922E+01 -0.60206467203E+01  0.11758791570E+02  0.51100000000E-03 0.  1.
        -12    1    3    3    0    0 -0.49482616341E+01  0.26297117747E+02  0.32762485822E+02  0.42301349532E+02  0.00000000000E+00 0.  1.
</event>
<event>
 7    1  0.1756449E-015  0.9000774E+02  0.7816164E-02  0.1186339E+00
        -11   -1    0    0    0    0  0.00000000000E+00  0.00000000000E+00  0.45593999997E+02  0.45594000000E+02  0.51100000000E-03 0.  1.
         11   -1    0    0    0    0 -0.00000000000E+00 -0.00000000000E+00 -0.45593999997E+02  0.45594000000E+02  0.51100000000E-03 0. -1.
    9900012    2    1    2    0    0  0.15432063364E+00  0.62468411964E+00 -0.98942322188E+00  0.90007744342E+02  0.90000005767E+02 0.  0.
        -12    1    1    2    0    0 -0.15432063364E+00 -0.62468411964E+00  0.98942322188E+00  0.11802556584E+01  0.00000000000E+00 0.  1.
         11    1    3    3    0    0  0.27409742403E+02 -0.11951585746E+02 -0.22395038367E+02  0.37358695429E+02  0.51100000000E-03 0. -1.
        -11    1    3    3    0    0  0.83165545293E+01 -0.33691563308E+01  0.24454713833E+01  0.93003561312E+01  0.51100000000E-03 0.  1.
        -12    1    3    3    0    0 -0.35571976299E+02  0.15945426196E+02  0.18960143762E+02  0.43348692781E+02  0.00000000000E+00 0.  1.
</event>
<event>
 7    1  0.2032438E-015  0.9000834E+02  0.7816164E-02  0.1186338E+00
        -11   -1    0    0    0    0  0.00000000000E+00  0.00000000000E+00  0.45593999997E+02  0.45594000000E+02  0.51100000000E-03 0. -1.
         11   -1    0    0    0    0 -0.00000000000E+00 -0.00000000000E+00 -0.45593999997E+02  0.45594000000E+02  0.51100000000E-03 0.  1.
    9900012    2    1    2    0    0  0.87151622429E+00  0.15712924036E+00 -0.77933657798E+00  0.90008340884E+02  0.90000610182E+02 0.  0.
        -12    1    1    2    0    0 -0.87151622429E+00 -0.15712924036E+00  0.77933657798E+00  0.11796591157E+01  0.00000000000E+00 0.  1.
         11    1    3    3    0    0 -0.40028323973E+01  0.54298245799E+01  0.70830909389E+01  0.97814027460E+01  0.51100000000E-03 0. -1.
        -11    1    3    3    0    0  0.27981100538E+02  0.10553411297E+02  0.23606737818E+02  0.38099797217E+02  0.51100000000E-03 0.  1.
         12    1    3    3    0    0 -0.23106751916E+02 -0.15826106636E+02 -0.31469165335E+02  0.42127140922E+02  0.00000000000E+00 0. -1.
</event>
<event>
 7    1  0.1756449E-015  0.9000774E+02  0.7816164E-02  0.1186339E+00
        -11   -1    0    0    0    0  0.00000000000E+00  0.00000000000E+00  0.45593999997E+02  0.45594000000E+02  0.51100000000E-03 0. -1.
         11   -1    0    0    0    0 -0.00000000000E+00 -0.00000000000E+00 -0.45593999997E+02  0.45594000000E+02  0.51100000000E-03 0.  1.
    9900012    2    1    2    0    0  0.25020952079E+00 -0.39623064055E+00  0.10832378642E+01  0.90007742488E+02  0.90000003889E+02 0.  0.
        -12    1    1    2    0    0 -0.25020952079E+00  0.39623064055E+00 -0.10832378642E+01  0.11802575122E+01  0.00000000000E+00 0.  1.
         11    1    3    3    0    0 -0.80323349615E+01 -0.96133944835E+01  0.23141163468E+01  0.12739344299E+02  0.51100000000E-03 0. -1.
        -11    1    3    3    0    0  0.29300312724E+01  0.37977789752E+02 -0.19485934658E+02  0.42785502772E+02  0.51100000000E-03 0.  1.
         12    1    3    3    0    0  0.53525132099E+01 -0.28760625909E+02  0.18255056176E+02  0.34482895417E+02  0.00000000000E+00 0. -1.
</event>
<event>
 7    1  0.1756449E-015  0.9000774E+02  0.7816164E-02  0.1186339E+00
        -11   -1    0    0    0    0  0.00000000000E+00  0.00000000000E+00  0.45593999997E+02  0.45594000000E+02  0.51100000000E-03 0. -1.
         11   -1    0    0    0    0 -0.00000000000E+00 -0.00000000000E+00 -0.45593999997E+02  0.45594000000E+02  0.51100000000E-03 0.  1.
    9900012    2    1    2    0    0 -0.77385062257E+00 -0.78007030877E+00 -0.43086905221E+00  0.90007744683E+02  0.90000006113E+02 0.  0.
        -12    1    1    2    0    0  0.77385062257E+00  0.78007030877E+00  0.43086905221E+00  0.11802553168E+01  0.00000000000E+00 0.  1.
         11    1    3    3    0    0 -0.15862497504E+02 -0.11372236067E+02  0.37827609205E+02  0.42566120315E+02  0.51100000000E-03 0. -1.
        -11    1    3    3    0    0 -0.53088928506E+01  0.36315812512E+01 -0.74455697120E+01  0.98391683734E+01  0.51100000000E-03 0.  1.
        -12    1    3    3    0    0  0.20397539732E+02  0.69605845070E+01 -0.30812908546E+02  0.37602455995E+02  0.00000000000E+00 0.  1.
</event>
<event>
 7    1  0.1756449E-015  0.9000768E+02  0.7816164E-02  0.1186339E+00
        -11   -1    0    0    0    0  0.00000000000E+00  0.00000000000E+00  0.45593999997E+02  0.45594000000E+02  0.51100000000E-03 0. -1.
         11   -1    0    0    0    0 -0.00000000000E+00 -0.00000000000E+00 -0.45593999997E+02  0.45594000000E+02  0.51100000000E-03 0.  1.
    9900012    2    1    2    0    0 -0.74649729609E+00  0.67160540895E+00  0.62035299260E+00  0.90007682300E+02  0.89999942906E+02 0.  0.
        -12    1    1    2    0    0  0.74649729609E+00 -0.67160540895E+00 -0.62035299260E+00  0.11803177004E+01  0.00000000000E+00 0.  1.
         11    1    3    3    0    0 -0.54735730246E+01  0.21729919315E+02  0.41254254905E+01  0.22785270041E+02  0.51100000000E-03 0. -1.
        -11    1    3    3    0    0 -0.52928681918E+00  0.18791870574E+02  0.13940839724E+02  0.23404306371E+02  0.51100000000E-03 0.  1.
         12    1    3    3    0    0  0.52563625476E+01 -0.39850184481E+02 -0.17445912222E+02  0.43818105888E+02  0.00000000000E+00 0. -1.
</event>
<event>
 7    1  0.1756449E-015  0.9000768E+02  0.7816164E-02  0.1186339E+00
        -11   -1    0    0    0    0  0.00000000000E+00  0.00000000000E+00  0.45593999997E+02  0.45594000000E+02  0.51100000000E-03 0.  1.
         11   -1    0    0    0    0 -0.00000000000E+00 -0.00000000000E+00 -0.45593999997E+02  0.45594000000E+02  0.51100000000E-03 0. -1.
    9900012    2    1    2    0    0  0.29080340686E+00 -0.24996709074E+00 -0.11162899674E+01  0.90007680781E+02  0.89999941367E+02 0.  0.
        -12    1    1    2    0    0 -0.29080340686E+00  0.24996709074E+00  0.11162899674E+01  0.11803192192E+01  0.00000000000E+00 0.  1.
         11    1    3    3    0    0 -0.17436839826E+01  0.45764114160E+01  0.33893250120E+01  0.59557954614E+01  0.51100000000E-03 0. -1.
        -11    1    3    3    0    0  0.26657513111E+02 -0.35628118556E+02 -0.23804255966E+01  0.44560658247E+02  0.51100000000E-03 0.  1.
         12    1    3    3    0    0 -0.24623025722E+02  0.30801740050E+02 -0.21251893828E+01  0.39491227072E+02  0.00000000000E+00 0. -1.
</event>
<event>
 7    1  0.1756449E-015  0.9000788E+02  0.7816164E-02  0.1186339E+00
        -11   -1    0    0    0    0  0.00000000000E+00  0.00000000000E+00  0.45593999997E+02  0.45594000000E+02  0.51100000000E-03 0.  1.
         11   -1    0    0    0    0 -0.00000000000E+00 -0.00000000000E+00 -0.45593999997E+02  0.45594000000E+02  0.51100000000E-03 0. -1.
    9900012    2    1    2    0    0 -0.88991743376E-01  0.15550535922E+00 -0.11664442447E+01  0.90007875590E+02  0.90000138748E+02 0.  0.
        -12    1    1    2    0    0  0.88991743376E-01 -0.15550535922E+00  0.11664442447E+01  0.11801244101E+01  0.00000000000E+00 0.  1.
         11    1    3    3    0    0 -0.29403764274E+02  0.10978948570E+02  0.10751226196E+02  0.33176912608E+02  0.51100000000E-03 0. -1.
        -11    1    3    3    0    0 -0.10375601622E+02 -0.51591872462E+01  0.58468724463E+01  0.12979069294E+02  0.51100000000E-03 0.  1.
         12    1    3    3    0    0  0.39690374153E+02 -0.56642559647E+01 -0.17764542887E+02  0.43851893688E+02  0.00000000000E+00 0. -1.
</event>
<event>
 7    1  0.1756449E-015  0.9000774E+02  0.7816164E-02  0.1186339E+00
        -11   -1    0    0    0    0  0.00000000000E+00  0.00000000000E+00  0.45593999997E+02  0.45594000000E+02  0.51100000000E-03 0. -1.
         11   -1    0    0    0    0 -0.00000000000E+00 -0.00000000000E+00 -0.45593999997E+02  0.45594000000E+02  0.51100000000E-03 0.  1.
    9900012    2    1    2    0    0  0.69634804231E+00  0.25990832615E+00  0.91681585078E+00  0.90007743995E+02  0.90000005415E+02 0.  0.
        -12    1    1    2    0    0 -0.69634804231E+00 -0.25990832615E+00 -0.91681585078E+00  0.11802560054E+01  0.00000000000E+00 0.  1.
         11    1    3    3    0    0 -0.33228260827E+01 -0.33163639837E+02  0.19912119458E+02  0.38824743167E+02  0.51100000000E-03 0. -1.
        -11    1    3    3    0    0  0.73057557964E+01 -0.31977926122E+01  0.27855276614E+01  0.84474321519E+01  0.51100000000E-03 0.  1.
        -12    1    3    3    0    0 -0.32865816714E+01  0.36621340775E+02 -0.21780831269E+02  0.42735568676E+02  0.00000000000E+00 0.  1.
</event>
<event>
 7    1  0.1756449E-015  0.9000775E+02  0.7816164E-02  0.1186339E+00
        -11   -1    0    0    0    0  0.00000000000E+00  0.00000000000E+00  0.45593999997E+02  0.45594000000E+02  0.51100000000E-03 0.  1.
         11   -1    0    0    0    0 -0.00000000000E+00 -0.00000000000E+00 -0.45593999997E+02  0.45594000000E+02  0.51100000000E-03 0. -1.
    9900012    2    1    2    0    0 -0.78080223751E+00 -0.18638687800E-01 -0.88486107513E+00  0.90007754832E+02  0.90000016396E+02 0.  0.
        -12    1    1    2    0    0  0.78080223751E+00  0.18638687800E-01  0.88486107513E+00  0.11802451682E+01  0.00000000000E+00 0.  1.
         11    1    3    3    0    0 -0.15813103937E+02 -0.33351210881E+02 -0.89535552300E+01  0.37980569702E+02  0.51100000000E-03 0. -1.
        -11    1    3    3    0    0 -0.86816383222E+01 -0.19370518477E+01  0.15719133360E+01  0.90329356034E+01  0.51100000000E-03 0.  1.
        -12    1    3    3    0    0  0.23713940021E+02  0.35269624041E+02  0.64967808189E+01  0.42994249527E+02  0.00000000000E+00 0.  1.
</event>
<event>
 7    1  0.1756449E-015  0.9000779E+02  0.7816164E-02  0.1186339E+00
        -11   -1    0    0    0    0  0.00000000000E+00  0.00000000000E+00  0.45593999997E+02  0.45594000000E+02  0.51100000000E-03 0.  1.
         11   -1    0    0    0    0 -0.00000000000E+00 -0.00000000000E+00 -0.45593999997E+02  0.45594000000E+02  0.51100000000E-03 0. -1.
    9900012    2    1    2    0    0  0.89286629429E+00 -0.69127690884E+00 -0.34326260215E+00  0.90007786800E+02  0.90000048785E+02 0.  0.
        -12    1    1    2    0    0 -0.89286629429E+00  0.69127690884E+00  0.34326260215E+00  0.11802132003E+01  0.00000000000E+00 0.  1.
         11    1    3    3    0    0 -0.19026949872E+01 -0.75966876322E+01  0.10174471041E+02  0.12839383646E+02  0.51100000000E-03 0. -1.
        -11    1    3    3    0    0  0.37314303321E+01 -0.25594972772E+02 -0.29726578927E+02  0.39404259903E+02  0.51100000000E-03 0.  1.
         12    1    3    3    0    0 -0.93586905058E+00  0.32500383496E+02  0.19208845285E+02  0.37764143250E+02  0.00000000000E+00 0. -1.
</event>
<event>
 7    1  0.2886598E-015  0.9000785E+02  0.7816164E-02  0.1186339E+00
        -11   -1    0    0    0    0  0.00000000000E+00  0.00000000000E+00  0.45593999997E+02  0.45594000000E+02  0.51100000000E-03 0. -1.
         11   -1    0    0    0    0 -0.00000000000E+00 -0.00000000000E+00 -0.45593999997E+02  0.45594000000E+02  0.51100000000E-03 0.  1.
    9900012    2    1    2    0    0 -0.47849712190E+00 -0.24886499200E+00  0.10496986212E+01  0.90007847266E+02  0.90000110050E+02 0.  0.
        -12    1    1    2    0    0  0.47849712190E+00  0.24886499200E+00 -0.10496986212E+01  0.11801527338E+01  0.00000000000E+00 0.  1.
         11    1    3    3    0    0  0.29554591456E+01  0.82321212443E+01 -0.12823520494E+01  0.88400783923E+01  0.51100000000E-03 0. -1.
        -11    1    3    3    0    0  0.11572995054E+02  0.19590908167E+02 -0.28759011624E+02  0.36671769076E+02  0.51100000000E-03 0.  1.
         12    1    3    3    0    0 -0.15006951322E+02 -0.28071894403E+02  0.31091062295E+02  0.44495999797E+02  0.00000000000E+00 0. -1.
</event>
<event>
 7    1  0.1756449E-015  0.9000763E+02  0.7816164E-02  0.1186339E+00
        -11   -1    0    0    0    0  0.00000000000E+00  0.00000000000E+00  0.45593999997E+02  0.45594000000E+02  0.51100000000E-03 0.  1.
         11   -1    0    0    0    0 -0.00000000000E+00 -0.00000000000E+00 -0.45593999997E+02  0.45594000000E+02  0.51100000000E-03 0. -1.
    9900012    2    1    2    0    0  0.77793890674E+00 -0.46181660123E+00  0.75816525687E+00  0.90007627994E+02  0.89999887883E+02 0.  0.
        -12    1    1    2    0    0 -0.77793890674E+00  0.46181660123E+00 -0.75816525687E+00  0.11803720060E+01  0.00000000000E+00 0.  1.
         11    1    3    3    0    0 -0.35842924052E+01  0.76561968467E+01 -0.27076411614E+01  0.88767011396E+01  0.51100000000E-03 0. -1.
        -11    1    3    3    0    0  0.34621208469E+02  0.19698639453E+02  0.39297987984E+01  0.40026338715E+02  0.51100000000E-03 0.  1.
         12    1    3    3    0    0 -0.30258977157E+02 -0.27816652901E+02 -0.46399238008E+00  0.41104588139E+02  0.00000000000E+00 0. -1.
</event>
<event>
 7    1  0.1756449E-015  0.9000773E+02  0.7816164E-02  0.1186339E+00
        -11   -1    0    0    0    0  0.00000000000E+00  0.00000000000E+00  0.45593999997E+02  0.45594000000E+02  0.51100000000E-03 0.  1.
         11   -1    0    0    0    0 -0.00000000000E+00 -0.00000000000E+00 -0.45593999997E+02  0.45594000000E+02  0.51100000000E-03 0. -1.
    9900012    2    1    2    0    0 -0.11730030689E+01 -0.12200930087E+00 -0.47182371912E-01  0.90007725182E+02  0.89999986355E+02 0.  0.
        -12    1    1    2    0    0  0.11730030689E+01  0.12200930087E+00  0.47182371912E-01  0.11802748178E+01  0.00000000000E+00 0.  1.
         11    1    3    3    0    0 -0.36723839128E+01 -0.85260171767E+01  0.36079008138E+01  0.99597349887E+01  0.51100000000E-03 0. -1.
        -11    1    3    3    0    0 -0.30737186078E+01 -0.89332184588E+01  0.35569175838E+02  0.36802396772E+02  0.51100000000E-03 0.  1.
         12    1    3    3    0    0  0.55730994516E+01  0.17337226335E+02 -0.39224259023E+02  0.43245593422E+02  0.00000000000E+00 0. -1.
</event>
<event>
 7    1  0.1756449E-015  0.9000788E+02  0.7816164E-02  0.1186339E+00
        -11   -1    0    0    0    0  0.00000000000E+00  0.00000000000E+00  0.45593999997E+02  0.45594000000E+02  0.51100000000E-03 0.  1.
         11   -1    0    0    0    0 -0.00000000000E+00 -0.00000000000E+00 -0.45593999997E+02  0.45594000000E+02  0.51100000000E-03 0. -1.
    9900012    2    1    2    0    0  0.16052467446E+00 -0.11490679986E+01  0.21578636167E+00  0.90007877468E+02  0.90000140651E+02 0.  0.
        -12    1    1    2    0    0 -0.16052467446E+00  0.11490679986E+01 -0.21578636167E+00  0.11801225320E+01  0.00000000000E+00 0.  1.
         11    1    3    3    0    0  0.10487834693E+02  0.50672338708E+01 -0.71220865444E+01  0.13652679321E+02  0.51100000000E-03 0. -1.
        -11    1    3    3    0    0  0.17662552143E+02 -0.32851376534E+02  0.51916718240E+01  0.37658095345E+02  0.51100000000E-03 0.  1.
         12    1    3    3    0    0 -0.27989862161E+02  0.26635074665E+02  0.21462010821E+01  0.38697102802E+02  0.00000000000E+00 0. -1.
</event>
<event>
 7    1  0.1756449E-015  0.9000776E+02  0.7816164E-02  0.1186339E+00
        -11   -1    0    0    0    0  0.00000000000E+00  0.00000000000E+00  0.45593999997E+02  0.45594000000E+02  0.51100000000E-03 0.  1.
         11   -1    0    0    0    0 -0.00000000000E+00 -0.00000000000E+00 -0.45593999997E+02  0.45594000000E+02  0.51100000000E-03 0. -1.
    9900012    2    1    2    0    0 -0.80334557951E-01  0.78373972475E+00 -0.87878540534E+00  0.90007760454E+02  0.90000022092E+02 0.  0.
        -12    1    1    2    0    0  0.80334557951E-01 -0.78373972475E+00  0.87878540534E+00  0.11802395460E+01  0.00000000000E+00 0.  1.
         11    1    3    3    0    0  0.22797020257E+01  0.63014003633E+01  0.57965781117E+01  0.88603050699E+01  0.51100000000E-03 0. -1.
        -11    1    3    3    0    0  0.19570220570E+02  0.52978585324E+01  0.30516339566E+02  0.36637519280E+02  0.51100000000E-03 0.  1.
         12    1    3    3    0    0 -0.21930257154E+02 -0.10815519171E+02 -0.37191703083E+02  0.44509936104E+02  0.00000000000E+00 0. -1.
</event>
<event>
 7    1  0.1756449E-015  0.9000771E+02  0.7816164E-02  0.1186339E+00
        -11   -1    0    0    0    0  0.00000000000E+00  0.00000000000E+00  0.45593999997E+02  0.45594000000E+02  0.51100000000E-03 0. -1.
         11   -1    0    0    0    0 -0.00000000000E+00 -0.00000000000E+00 -0.45593999997E+02  0.45594000000E+02  0.51100000000E-03 0.  1.
    9900012    2    1    2    0    0 -0.81074034790E+00  0.13926933917E+00  0.84639243342E+00  0.90007713589E+02  0.89999974608E+02 0.  0.
        -12    1    1    2    0    0  0.81074034790E+00 -0.13926933917E+00 -0.84639243342E+00  0.11802864110E+01  0.00000000000E+00 0.  1.
         11    1    3    3    0    0 -0.31917862875E+02  0.66223807219E+01  0.15751474556E+02  0.36203796043E+02  0.51100000000E-03 0. -1.
        -11    1    3    3    0    0 -0.46095830081E+01  0.10001515219E+02  0.16300839786E+01  0.11132642823E+02  0.51100000000E-03 0.  1.
        -12    1    3    3    0    0  0.35716705536E+02 -0.16484626602E+02 -0.16535166101E+02  0.42671274723E+02  0.00000000000E+00 0.  1.
</event>
<event>
 7    1  0.1756449E-015  0.9000777E+02  0.7816164E-02  0.1186339E+00
        -11   -1    0    0    0    0  0.00000000000E+00  0.00000000000E+00  0.45593999997E+02  0.45594000000E+02  0.51100000000E-03 0.  1.
         11   -1    0    0    0    0 -0.00000000000E+00 -0.00000000000E+00 -0.45593999997E+02  0.45594000000E+02  0.51100000000E-03 0. -1.
    9900012    2    1    2    0    0 -0.10957550485E+01 -0.37445482996E+00 -0.22812844439E+00  0.90007771999E+02  0.90000033790E+02 0.  0.
        -12    1    1    2    0    0  0.10957550485E+01  0.37445482996E+00  0.22812844439E+00  0.11802280005E+01  0.00000000000E+00 0.  1.
         11    1    3    3    0    0 -0.26888744371E+01 -0.79290370812E+01 -0.18781141047E+01  0.85806169723E+01  0.51100000000E-03 0. -1.
        -11    1    3    3    0    0  0.12944402436E+02  0.22005287532E+02 -0.33288259413E+02  0.41951143593E+02  0.51100000000E-03 0.  1.
         12    1    3    3    0    0 -0.11351283047E+02 -0.14450705281E+02  0.34938245073E+02  0.39476011434E+02  0.00000000000E+00 0. -1.
</event>
<event>
 7    1  0.1756449E-015  0.9000769E+02  0.7816164E-02  0.1186339E+00
        -11   -1    0    0    0    0  0.00000000000E+00  0.00000000000E+00  0.45593999997E+02  0.45594000000E+02  0.51100000000E-03 0.  1.
         11   -1    0    0    0    0 -0.00000000000E+00 -0.00000000000E+00 -0.45593999997E+02  0.45594000000E+02  0.51100000000E-03 0. -1.
    9900012    2    1    2    0    0 -0.65056115492E+00 -0.20657489120E+00 -0.96292763191E+00  0.90007689606E+02  0.89999950309E+02 0.  0.
        -12    1    1    2    0    0  0.65056115492E+00  0.20657489120E+00  0.96292763191E+00  0.11803103940E+01  0.00000000000E+00 0.  1.
         11    1    3    3    0    0 -0.86740460638E+01 -0.35513130938E+02  0.41137152129E-01  0.36557122926E+02  0.51100000000E-03 0. -1.
        -11    1    3    3    0    0 -0.19632053192E+01 -0.67342450882E+01 -0.69000947870E+01  0.98394888264E+01  0.51100000000E-03 0.  1.
        -12    1    3    3    0    0  0.99866902281E+01  0.42040801135E+02  0.58960300030E+01  0.43611077854E+02  0.00000000000E+00 0.  1.
</event>
<event>
 7    1  0.1756449E-015  0.9000767E+02  0.7816164E-02  0.1186339E+00
        -11   -1    0    0    0    0  0.00000000000E+00  0.00000000000E+00  0.45593999997E+02  0.45594000000E+02  0.51100000000E-03 0. -1.
         11   -1    0    0    0    0 -0.00000000000E+00 -0.00000000000E+00 -0.45593999997E+02  0.45594000000E+02  0.51100000000E-03 0.  1.
    9900012    2    1    2    0    0 -0.94261686103E+00  0.60018580815E-01  0.70784650472E+00  0.90007671465E+02  0.89999931928E+02 0.  0.
        -12    1    1    2    0    0  0.94261686103E+00 -0.60018580815E-01 -0.70784650472E+00  0.11803285352E+01  0.00000000000E+00 0.  1.
         11    1    3    3    0    0 -0.37856243109E+01 -0.31278023106E+02  0.21309865841E+02  0.38036246703E+02  0.51100000000E-03 0. -1.
        -11    1    3    3    0    0  0.49904003234E+01  0.15199947258E+01  0.86783798368E+01  0.10125648434E+02  0.51100000000E-03 0.  1.
        -12    1    3    3    0    0 -0.21473928736E+01  0.29818046961E+02 -0.29280399173E+02  0.41845776328E+02  0.00000000000E+00 0.  1.
</event>
<event>
 7    1  0.3100206E-015  0.9000775E+02  0.7816164E-02  0.1186339E+00
        -11   -1    0    0    0    0  0.00000000000E+00  0.00000000000E+00  0.45593999997E+02  0.45594000000E+02  0.51100000000E-03 0.  1.
         11   -1    0    0    0    0 -0.00000000000E+00 -0.00000000000E+00 -0.45593999997E+02  0.45594000000E+02  0.51100000000E-03 0. -1.
    9900012    2    1    2    0    0 -0.33562554725E+00 -0.94664735222E+00 -0.61983738829E+00  0.90007752524E+02  0.90000014057E+02 0.  0.
        -12    1    1    2    0    0  0.33562554725E+00  0.94664735222E+00  0.61983738829E+00  0.11802474763E+01  0.00000000000E+00 0.  1.
         11    1    3    3    0    0 -0.69783219770E+01 -0.37857048746E+01 -0.48701594070E+01  0.93138065217E+01  0.51100000000E-03 0. -1.
        -11    1    3    3    0    0 -0.26302864485E+02 -0.92221481660E+01  0.27059582492E+02  0.38847261188E+02  0.51100000000E-03 0.  1.
         12    1    3    3    0    0  0.32945560915E+02  0.12061205688E+02 -0.22809260473E+02  0.41846684814E+02  0.00000000000E+00 0. -1.
</event>
<event>
 7    1  0.1756449E-015  0.9000776E+02  0.7816164E-02  0.1186339E+00
        -11   -1    0    0    0    0  0.00000000000E+00  0.00000000000E+00  0.45593999997E+02  0.45594000000E+02  0.51100000000E-03 0.  1.
         11   -1    0    0    0    0 -0.00000000000E+00 -0.00000000000E+00 -0.45593999997E+02  0.45594000000E+02  0.51100000000E-03 0. -1.
    9900012    2    1    2    0    0  0.51099320605E+00  0.94757706534E+00  0.48367955016E+00  0.90007761779E+02  0.90000023434E+02 0.  0.
        -12    1    1    2    0    0 -0.51099320605E+00 -0.94757706534E+00 -0.48367955016E+00  0.11802382211E+01  0.00000000000E+00 0.  1.
         11    1    3    3    0    0 -0.29404748221E+02 -0.36030047817E+01 -0.23158134517E+02  0.37602128343E+02  0.51100000000E-03 0. -1.
        -11    1    3    3    0    0 -0.63381619798E+01 -0.62743314124E+01  0.50504137540E+01  0.10249205399E+02  0.51100000000E-03 0.  1.
        -12    1    3    3    0    0  0.36253903406E+02  0.10824913259E+02  0.18591400313E+02  0.42156428037E+02  0.00000000000E+00 0.  1.
</event>
<event>
 7    1  0.1756449E-015  0.9000773E+02  0.7816164E-02  0.1186339E+00
        -11   -1    0    0    0    0  0.00000000000E+00  0.00000000000E+00  0.45593999997E+02  0.45594000000E+02  0.51100000000E-03 0. -1.
         11   -1    0    0    0    0 -0.00000000000E+00 -0.00000000000E+00 -0.45593999997E+02  0.45594000000E+02  0.51100000000E-03 0.  1.
    9900012    2    1    2    0    0  0.87629113015E+00  0.61002537004E+00 -0.50300313090E+00  0.90007733400E+02  0.89999994681E+02 0.  0.
        -12    1    1    2    0    0 -0.87629113015E+00 -0.61002537004E+00  0.50300313090E+00  0.11802665998E+01  0.00000000000E+00 0.  1.
         11    1    3    3    0    0 -0.59615272580E+01  0.40163767772E+02 -0.47481640511E+01  0.40880473468E+02  0.51100000000E-03 0. -1.
        -11    1    3    3    0    0  0.91287077768E+01 -0.94401973501E+00  0.49823276207E+01  0.10442608281E+02  0.51100000000E-03 0.  1.
        -12    1    3    3    0    0 -0.22908893886E+01 -0.38609722667E+02 -0.73716670048E+00  0.38684651651E+02  0.00000000000E+00 0.  1.
</event>
<event>
 7    1  0.1756449E-015  0.9000769E+02  0.7816164E-02  0.1186339E+00
        -11   -1    0    0    0    0  0.00000000000E+00  0.00000000000E+00  0.45593999997E+02  0.45594000000E+02  0.51100000000E-03 0. -1.
         11   -1    0    0    0    0 -0.00000000000E+00 -0.00000000000E+00 -0.45593999997E+02  0.45594000000E+02  0.51100000000E-03 0.  1.
    9900012    2    1    2    0    0 -0.87832095459E+00 -0.78416728178E+00  0.82216108944E-01  0.90007692619E+02  0.89999953362E+02 0.  0.
        -12    1    1    2    0    0  0.87832095459E+00  0.78416728178E+00 -0.82216108944E-01  0.11803073810E+01  0.00000000000E+00 0.  1.
         11    1    3    3    0    0 -0.13775867008E+02  0.32594659675E+02 -0.12407996726E+02  0.37498596430E+02  0.51100000000E-03 0. -1.
        -11    1    3    3    0    0 -0.88301214478E+01  0.20609851091E+01  0.47079857132E+01  0.10216840712E+02  0.51100000000E-03 0.  1.
        -12    1    3    3    0    0  0.21727667501E+02 -0.35439812066E+02  0.77822271221E+01  0.42292255477E+02  0.00000000000E+00 0.  1.
</event>
<event>
 7    1  0.1756449E-015  0.9000766E+02  0.7816164E-02  0.1186339E+00
        -11   -1    0    0    0    0  0.00000000000E+00  0.00000000000E+00  0.45593999997E+02  0.45594000000E+02  0.51100000000E-03 0.  1.
         11   -1    0    0    0    0 -0.00000000000E+00 -0.00000000000E+00 -0.45593999997E+02  0.45594000000E+02  0.51100000000E-03 0. -1.
    9900012    2    1    2    0    0 -0.62783545516E+00 -0.87193220436E+00  0.48864075316E+00  0.90007655595E+02  0.89999915849E+02 0.  0.
        -12    1    1    2    0    0  0.62783545516E+00  0.87193220436E+00 -0.48864075316E+00  0.11803444046E+01  0.00000000000E+00 0.  1.
         11    1    3    3    0    0 -0.12022392962E+01 -0.47341832673E+01  0.83397133343E+01  0.96648170853E+01  0.51100000000E-03 0. -1.
        -11    1    3    3    0    0 -0.27172012553E+02 -0.24991700471E+02  0.71327287144E+01  0.37600255023E+02  0.51100000000E-03 0.  1.
         12    1    3    3    0    0  0.27746416394E+02  0.28853951534E+02 -0.14983801296E+02  0.42742583487E+02  0.00000000000E+00 0. -1.
</event>
<event>
 7    1  0.1756449E-015  0.9000770E+02  0.7816164E-02  0.1186339E+00
        -11   -1    0    0    0    0  0.00000000000E+00  0.00000000000E+00  0.45593999997E+02  0.45594000000E+02  0.51100000000E-03 0.  1.
         11   -1    0    0    0    0 -0.00000000000E+00 -0.00000000000E+00 -0.45593999997E+02  0.45594000000E+02  0.51100000000E-03 0. -1.
    9900012    2    1    2    0    0  0.38612395780E+00  0.21722716294E+00 -0.10940013158E+01  0.90007695704E+02  0.89999956488E+02 0.  0.
        -12    1    1    2    0    0 -0.38612395780E+00 -0.21722716294E+00  0.10940013158E+01  0.11803042955E+01  0.00000000000E+00 0.  1.
         11    1    3    3    0    0  0.12495533462E+02 -0.22795486972E+02  0.24532547138E+02  0.35743789001E+02  0.51100000000E-03 0. -1.
        -11    1    3    3    0    0 -0.35375420951E+01 -0.86646672877E+01  0.38811767069E+01  0.10131840710E+02  0.51100000000E-03 0.  1.
        -12    1    3    3    0    0 -0.85718674094E+01  0.31677381423E+02 -0.29507725161E+02  0.44132065993E+02  0.00000000000E+00 0.  1.
</event>
<event>
 7    1  0.1756449E-015  0.9000789E+02  0.7816164E-02  0.1186339E+00
        -11   -1    0    0    0    0  0.00000000000E+00  0.00000000000E+00  0.45593999997E+02  0.45594000000E+02  0.51100000000E-03 0. -1.
         11   -1    0    0    0    0 -0.00000000000E+00 -0.00000000000E+00 -0.45593999997E+02  0.45594000000E+02  0.51100000000E-03 0.  1.
    9900012    2    1    2    0    0  0.35648567383E+00 -0.11055310326E+01  0.20827349908E+00  0.90007890365E+02  0.90000153718E+02 0.  0.
        -12    1    1    2    0    0 -0.35648567383E+00  0.11055310326E+01 -0.20827349908E+00  0.11801096348E+01  0.00000000000E+00 0.  1.
         11    1    3    3    0    0 -0.27856878338E+02 -0.14892686517E+01  0.21176499337E+02  0.35023816415E+02  0.51100000000E-03 0. -1.
        -11    1    3    3    0    0  0.10873888411E+02  0.10375760111E+02  0.10042760053E+02  0.18076362378E+02  0.51100000000E-03 0.  1.
        -12    1    3    3    0    0  0.17339475601E+02 -0.99920224916E+01 -0.31010985891E+02  0.36907711572E+02  0.00000000000E+00 0.  1.
</event>
<event>
 7    1  0.1756449E-015  0.9000778E+02  0.7816164E-02  0.1186339E+00
        -11   -1    0    0    0    0  0.00000000000E+00  0.00000000000E+00  0.45593999997E+02  0.45594000000E+02  0.51100000000E-03 0. -1.
         11   -1    0    0    0    0 -0.00000000000E+00 -0.00000000000E+00 -0.45593999997E+02  0.45594000000E+02  0.51100000000E-03 0.  1.
    9900012    2    1    2    0    0  0.74832791072E+00  0.23048292485E+00  0.88306032549E+00  0.90007782825E+02  0.90000044759E+02 0.  0.
        -12    1    1    2    0    0 -0.74832791072E+00 -0.23048292485E+00 -0.88306032549E+00  0.11802171745E+01  0.00000000000E+00 0.  1.
         11    1    3    3    0    0  0.48201945723E+01 -0.16905170130E+01 -0.63834531392E+01  0.81756099300E+01  0.51100000000E-03 0. -1.
        -11    1    3    3    0    0  0.24516542304E+02 -0.28365073868E+02 -0.63271925154E+01  0.38021988737E+02  0.51100000000E-03 0.  1.
         12    1    3    3    0    0 -0.28588408965E+02  0.30286073806E+02  0.13593705980E+02  0.43810184159E+02  0.00000000000E+00 0. -1.
</event>
<event>
 7    1  0.1756449E-015  0.9000777E+02  0.7816164E-02  0.1186339E+00
        -11   -1    0    0    0    0  0.00000000000E+00  0.00000000000E+00  0.45593999997E+02  0.45594000000E+02  0.51100000000E-03 0. -1.
         11   -1    0    0    0    0 -0.00000000000E+00 -0.00000000000E+00 -0.45593999997E+02  0.45594000000E+02  0.51100000000E-03 0.  1.
    9900012    2    1    2    0    0 -0.91569722708E+00 -0.33703885175E+00  0.66397117002E+00  0.90007765145E+02  0.90000026845E+02 0.  0.
        -12    1    1    2    0    0  0.91569722708E+00  0.33703885175E+00 -0.66397117002E+00  0.11802348554E+01  0.00000000000E+00 0.  1.
         11    1    3    3    0    0  0.37068022979E+02  0.39523343662E+00 -0.10959977031E+02  0.38656378954E+02  0.51100000000E-03 0. -1.
        -11    1    3    3    0    0  0.46226921429E+01 -0.32217457440E+01  0.61200295713E+01  0.83188755551E+01  0.51100000000E-03 0.  1.
        -12    1    3    3    0    0 -0.42606412349E+02  0.24894734556E+01  0.55039186293E+01  0.43032510636E+02  0.00000000000E+00 0.  1.
</event>
<event>
 7    1  0.1756449E-015  0.9000782E+02  0.7816164E-02  0.1186339E+00
        -11   -1    0    0    0    0  0.00000000000E+00  0.00000000000E+00  0.45593999997E+02  0.45594000000E+02  0.51100000000E-03 0. -1.
         11   -1    0    0    0    0 -0.00000000000E+00 -0.00000000000E+00 -0.45593999997E+02  0.45594000000E+02  0.51100000000E-03 0.  1.
    9900012    2    1    2    0    0  0.41564110141E+00  0.73663036065E+00  0.82306431802E+00  0.90007823452E+02  0.90000085921E+02 0.  0.
        -12    1    1    2    0    0 -0.41564110141E+00 -0.73663036065E+00 -0.82306431802E+00  0.11801765482E+01  0.00000000000E+00 0.  1.
         11    1    3    3    0    0  0.22963644300E+01  0.82918085911E+01  0.18901595936E+01  0.88090909211E+01  0.51100000000E-03 0. -1.
        -11    1    3    3    0    0 -0.11329312597E+02  0.35346327650E+02 -0.29011319181E+01  0.37230804033E+02  0.51100000000E-03 0.  1.
         12    1    3    3    0    0  0.94485892683E+01 -0.42901505881E+02  0.18340366425E+01  0.43967928498E+02  0.00000000000E+00 0. -1.
</event>
<event>
 7    1  0.1756449E-015  0.9000788E+02  0.7816164E-02  0.1186339E+00
        -11   -1    0    0    0    0  0.00000000000E+00  0.00000000000E+00  0.45593999997E+02  0.45594000000E+02  0.51100000000E-03 0. -1.
         11   -1    0    0    0    0 -0.00000000000E+00 -0.00000000000E+00 -0.45593999997E+02  0.45594000000E+02  0.51100000000E-03 0.  1.
    9900012    2    1    2    0    0  0.76137016612E+00  0.55797889462E+00  0.70827287728E+00  0.90007883292E+02  0.90000146551E+02 0.  0.
        -12    1    1    2    0    0 -0.76137016612E+00 -0.55797889462E+00 -0.70827287728E+00  0.11801167084E+01  0.00000000000E+00 0.  1.
         11    1    3    3    0    0 -0.30647759532E+02  0.72690360250E+01 -0.16510067115E+02  0.35562710322E+02  0.51100000000E-03 0. -1.
        -11    1    3    3    0    0 -0.95237700109E+01  0.21132555789E+01  0.26341256500E+01  0.10104784142E+02  0.51100000000E-03 0.  1.
        -12    1    3    3    0    0  0.40932899709E+02 -0.88243127093E+01  0.14584214342E+02  0.44340388827E+02  0.00000000000E+00 0.  1.
</event>
<event>
 7    1  0.1756449E-015  0.9000780E+02  0.7816164E-02  0.1186339E+00
        -11   -1    0    0    0    0  0.00000000000E+00  0.00000000000E+00  0.45593999997E+02  0.45594000000E+02  0.51100000000E-03 0.  1.
         11   -1    0    0    0    0 -0.00000000000E+00 -0.00000000000E+00 -0.45593999997E+02  0.45594000000E+02  0.51100000000E-03 0. -1.
    9900012    2    1    2    0    0  0.29759296704E+00 -0.88460120539E+00 -0.72235660617E+00  0.90007796656E+02  0.90000058772E+02 0.  0.
        -12    1    1    2    0    0 -0.29759296704E+00  0.88460120539E+00  0.72235660617E+00  0.11802033440E+01  0.00000000000E+00 0.  1.
         11    1    3    3    0    0 -0.91628684698E+01 -0.10223180945E+01  0.26367515496E+01  0.95893561763E+01  0.51100000000E-03 0. -1.
        -11    1    3    3    0    0 -0.26688599521E+01  0.23739848378E+01  0.37535150101E+02  0.37704722659E+02  0.51100000000E-03 0.  1.
         12    1    3    3    0    0  0.12129321389E+02 -0.22362679487E+01 -0.40894258257E+02  0.42713717821E+02  0.00000000000E+00 0. -1.
</event>
<event>
 7    1  0.1756449E-015  0.9000753E+02  0.7816164E-02  0.1186339E+00
        -11   -1    0    0    0    0  0.00000000000E+00  0.00000000000E+00  0.45593999997E+02  0.45594000000E+02  0.51100000000E-03 0. -1.
         11   -1    0    0    0    0 -0.00000000000E+00 -0.00000000000E+00 -0.45593999997E+02  0.45594000000E+02  0.51100000000E-03 0.  1.
    9900012    2    1    2    0    0  0.23741933543E+00  0.40552744060E+00  0.10829092198E+01  0.90007528559E+02  0.89999787135E+02 0.  0.
        -12    1    1    2    0    0 -0.23741933543E+00 -0.40552744060E+00 -0.10829092198E+01  0.11804714415E+01  0.00000000000E+00 0.  1.
         11    1    3    3    0    0 -0.86307084808E+01 -0.71677398084E+01  0.57763970686E+01  0.12618731561E+02  0.51100000000E-03 0. -1.
        -11    1    3    3    0    0 -0.33204817101E+02  0.99007526831E+01  0.20742860800E+01  0.34711488666E+02  0.51100000000E-03 0.  1.
         12    1    3    3    0    0  0.42072944918E+02 -0.23274854341E+01 -0.67677739288E+01  0.42677308332E+02  0.00000000000E+00 0. -1.
</event>
<event>
 7    1  0.1756449E-015  0.9000776E+02  0.7816164E-02  0.1186339E+00
        -11   -1    0    0    0    0  0.00000000000E+00  0.00000000000E+00  0.45593999997E+02  0.45594000000E+02  0.51100000000E-03 0.  1.
         11   -1    0    0    0    0 -0.00000000000E+00 -0.00000000000E+00 -0.45593999997E+02  0.45594000000E+02  0.51100000000E-03 0. -1.
    9900012    2    1    2    0    0 -0.18712241918E+00  0.72617201637E+00 -0.91138040762E+00  0.90007764920E+02  0.90000026617E+02 0.  0.
        -12    1    1    2    0    0  0.18712241918E+00 -0.72617201637E+00  0.91138040762E+00  0.11802350802E+01  0.00000000000E+00 0.  1.
         11    1    3    3    0    0  0.10064368089E+02 -0.11337189875E+02 -0.32192149950E+02  0.35583112539E+02  0.51100000000E-03 0. -1.
        -11    1    3    3    0    0 -0.58169772766E+01  0.49594578323E+01 -0.98397234106E+01  0.12460080404E+02  0.51100000000E-03 0.  1.
        -12    1    3    3    0    0 -0.44345132317E+01  0.71039040590E+01  0.41120492953E+02  0.41964571976E+02  0.00000000000E+00 0.  1.
</event>
<event>
 7    1  0.1756449E-015  0.9000763E+02  0.7816164E-02  0.1186339E+00
        -11   -1    0    0    0    0  0.00000000000E+00  0.00000000000E+00  0.45593999997E+02  0.45594000000E+02  0.51100000000E-03 0.  1.
         11   -1    0    0    0    0 -0.00000000000E+00 -0.00000000000E+00 -0.45593999997E+02  0.45594000000E+02  0.51100000000E-03 0. -1.
    9900012    2    1    2    0    0  0.11349977726E+01  0.58762964470E-01 -0.31874841022E+00  0.90007629898E+02  0.89999889812E+02 0.  0.
        -12    1    1    2    0    0 -0.11349977726E+01 -0.58762964470E-01  0.31874841022E+00  0.11803701025E+01  0.00000000000E+00 0.  1.
         11    1    3    3    0    0  0.20727756779E+02  0.11282231144E+02 -0.33365937394E+02  0.40868256864E+02  0.51100000000E-03 0. -1.
        -11    1    3    3    0    0  0.14389822374E+01 -0.86599389673E+01 -0.12078869391E+01  0.88613883740E+01  0.51100000000E-03 0.  1.
        -12    1    3    3    0    0 -0.21031741244E+02 -0.25635292126E+01  0.34255075923E+02  0.40277984659E+02  0.00000000000E+00 0.  1.
</event>
<event>
 7    1  0.1756449E-015  0.9000772E+02  0.7816164E-02  0.1186339E+00
        -11   -1    0    0    0    0  0.00000000000E+00  0.00000000000E+00  0.45593999997E+02  0.45594000000E+02  0.51100000000E-03 0. -1.
         11   -1    0    0    0    0 -0.00000000000E+00 -0.00000000000E+00 -0.45593999997E+02  0.45594000000E+02  0.51100000000E-03 0.  1.
    9900012    2    1    2    0    0  0.50721932461E-01  0.11789347343E+01 -0.24698834485E-01  0.90007716197E+02  0.89999977251E+02 0.  0.
        -12    1    1    2    0    0 -0.50721932461E-01 -0.11789347343E+01  0.24698834485E-01  0.11802838026E+01  0.00000000000E+00 0.  1.
         11    1    3    3    0    0 -0.14402719709E+02 -0.33075834265E+02  0.18942605591E+02  0.40746428730E+02  0.51100000000E-03 0. -1.
        -11    1    3    3    0    0  0.16663281757E+02  0.93181675562E+01 -0.24012994554E+01  0.19242126827E+02  0.51100000000E-03 0.  1.
        -12    1    3    3    0    0 -0.22098401153E+01  0.24936601443E+02 -0.16566004970E+02  0.30019160641E+02  0.00000000000E+00 0.  1.
</event>
<event>
 7    1  0.1756449E-015  0.9000772E+02  0.7816164E-02  0.1186339E+00
        -11   -1    0    0    0    0  0.00000000000E+00  0.00000000000E+00  0.45593999997E+02  0.45594000000E+02  0.51100000000E-03 0. -1.
         11   -1    0    0    0    0 -0.00000000000E+00 -0.00000000000E+00 -0.45593999997E+02  0.45594000000E+02  0.51100000000E-03 0.  1.
    9900012    2    1    2    0    0 -0.10853251251E+01  0.20499066570E+00  0.41607527216E+00  0.90007715953E+02  0.89999977003E+02 0.  0.
        -12    1    1    2    0    0  0.10853251251E+01 -0.20499066570E+00 -0.41607527216E+00  0.11802840473E+01  0.00000000000E+00 0.  1.
         11    1    3    3    0    0  0.31818441494E+01 -0.45895478505E+01 -0.65340429859E+01  0.85954522665E+01  0.51100000000E-03 0. -1.
        -11    1    3    3    0    0  0.31233086020E+02 -0.50959822255E+01 -0.18471340948E+02  0.36642395307E+02  0.51100000000E-03 0.  1.
         12    1    3    3    0    0 -0.35500255294E+02  0.98905207417E+01  0.25421459207E+02  0.44769868379E+02  0.00000000000E+00 0. -1.
</event>
<event>
 7    1  0.1756449E-015  0.9000781E+02  0.7816164E-02  0.1186339E+00
        -11   -1    0    0    0    0  0.00000000000E+00  0.00000000000E+00  0.45593999997E+02  0.45594000000E+02  0.51100000000E-03 0.  1.
         11   -1    0    0    0    0 -0.00000000000E+00 -0.00000000000E+00 -0.45593999997E+02  0.45594000000E+02  0.51100000000E-03 0. -1.
    9900012    2    1    2    0    0  0.34276263289E+00  0.89202131386E+00 -0.69256910644E+00  0.90007813483E+02  0.90000075821E+02 0.  0.
        -12    1    1    2    0    0 -0.34276263289E+00 -0.89202131386E+00  0.69256910644E+00  0.11801865167E+01  0.00000000000E+00 0.  1.
         11    1    3    3    0    0 -0.21452747452E+02  0.30259832159E+02 -0.46702009096E+01  0.37385673624E+02  0.51100000000E-03 0. -1.
        -11    1    3    3    0    0 -0.10174768146E+02 -0.26207834141E+01  0.30021726685E+01  0.10927371757E+02  0.51100000000E-03 0.  1.
        -12    1    3    3    0    0  0.31970278230E+02 -0.26747027432E+02  0.97545913468E+00  0.41694768102E+02  0.00000000000E+00 0.  1.
</event>
<event>
 7    1  0.1756449E-015  0.9000776E+02  0.7816164E-02  0.1186339E+00
        -11   -1    0    0    0    0  0.00000000000E+00  0.00000000000E+00  0.45593999997E+02  0.45594000000E+02  0.51100000000E-03 0. -1.
         11   -1    0    0    0    0 -0.00000000000E+00 -0.00000000000E+00 -0.45593999997E+02  0.45594000000E+02  0.51100000000E-03 0.  1.
    9900012    2    1    2    0    0 -0.23585014228E-01 -0.36995728780E+00  0.11205045185E+01  0.90007764844E+02  0.90000026540E+02 0.  0.
        -12    1    1    2    0    0  0.23585014228E-01  0.36995728780E+00 -0.11205045185E+01  0.11802351560E+01  0.00000000000E+00 0.  1.
         11    1    3    3    0    0  0.11315913456E+02 -0.20638449856E+02 -0.43585187293E+01  0.23937255390E+02  0.51100000000E-03 0. -1.
        -11    1    3    3    0    0  0.11896171613E+01 -0.21785848588E+02 -0.23089912384E+00  0.21819525713E+02  0.51100000000E-03 0.  1.
         12    1    3    3    0    0 -0.12529115632E+02  0.42054341156E+02  0.57099223715E+01  0.44250983741E+02  0.00000000000E+00 0. -1.
</event>
<event>
 7    1  0.1756449E-015  0.9000776E+02  0.7816164E-02  0.1186339E+00
        -11   -1    0    0    0    0  0.00000000000E+00  0.00000000000E+00  0.45593999997E+02  0.45594000000E+02  0.51100000000E-03 0. -1.
         11   -1    0    0    0    0 -0.00000000000E+00 -0.00000000000E+00 -0.45593999997E+02  0.45594000000E+02  0.51100000000E-03 0.  1.
    9900012    2    1    2    0    0  0.55042508318E+00 -0.88743524257E+00  0.54995671549E+00  0.90007762113E+02  0.90000023772E+02 0.  0.
        -12    1    1    2    0    0 -0.55042508318E+00  0.88743524257E+00 -0.54995671549E+00  0.11802378874E+01  0.00000000000E+00 0.  1.
         11    1    3    3    0    0 -0.13057371819E+02 -0.12668084472E+02  0.34381950147E+02  0.38898506644E+02  0.51100000000E-03 0. -1.
        -11    1    3    3    0    0  0.54403429144E+01 -0.71019351105E+01  0.25593222600E+01  0.93051031177E+01  0.51100000000E-03 0.  1.
        -12    1    3    3    0    0  0.81674539879E+01  0.18882584339E+02 -0.36391315691E+02  0.41804152350E+02  0.00000000000E+00 0.  1.
</event>
<event>
 7    1  0.1756449E-015  0.9000777E+02  0.7816164E-02  0.1186339E+00
        -11   -1    0    0    0    0  0.00000000000E+00  0.00000000000E+00  0.45593999997E+02  0.45594000000E+02  0.51100000000E-03 0. -1.
         11   -1    0    0    0    0 -0.00000000000E+00 -0.00000000000E+00 -0.45593999997E+02  0.45594000000E+02  0.51100000000E-03 0.  1.
    9900012    2    1    2    0    0  0.17577557574E+00 -0.68985306856E+00  0.94134950540E+00  0.90007774089E+02  0.90000035907E+02 0.  0.
        -12    1    1    2    0    0 -0.17577557574E+00  0.68985306856E+00 -0.94134950540E+00  0.11802259108E+01  0.00000000000E+00 0.  1.
         11    1    3    3    0    0  0.33094500638E+02 -0.23093795627E+02  0.78385214262E+01  0.41109752946E+02  0.51100000000E-03 0. -1.
        -11    1    3    3    0    0  0.15077873854E+01  0.44335436932E+01 -0.88519567973E+01  0.10014333322E+02  0.51100000000E-03 0.  1.
        -12    1    3    3    0    0 -0.34426512447E+02  0.17970398865E+02  0.19547848765E+01  0.38883687821E+02  0.00000000000E+00 0.  1.
</event>
<event>
 7    1  0.1756449E-015  0.9000770E+02  0.7816164E-02  0.1186339E+00
        -11   -1    0    0    0    0  0.00000000000E+00  0.00000000000E+00  0.45593999997E+02  0.45594000000E+02  0.51100000000E-03 0. -1.
         11   -1    0    0    0    0 -0.00000000000E+00 -0.00000000000E+00 -0.45593999997E+02  0.45594000000E+02  0.51100000000E-03 0.  1.
    9900012    2    1    2    0    0  0.50808157652E+00 -0.19163380579E+00  0.10479665814E+01  0.90007701580E+02  0.89999962441E+02 0.  0.
        -12    1    1    2    0    0 -0.50808157652E+00  0.19163380579E+00 -0.10479665814E+01  0.11802984197E+01  0.00000000000E+00 0.  1.
         11    1    3    3    0    0  0.34165442589E+01  0.19183860390E+01 -0.71448711412E+01  0.81487522697E+01  0.51100000000E-03 0. -1.
        -11    1    3    3    0    0  0.31659327449E+02 -0.74941371718E+01  0.26874789859E+02  0.42198689988E+02  0.51100000000E-03 0.  1.
         12    1    3    3    0    0 -0.34567790131E+02  0.53841173269E+01 -0.18681952136E+02  0.39660259323E+02  0.00000000000E+00 0. -1.
</event>
<event>
 7    1  0.1756449E-015  0.9000774E+02  0.7816164E-02  0.1186339E+00
        -11   -1    0    0    0    0  0.00000000000E+00  0.00000000000E+00  0.45593999997E+02  0.45594000000E+02  0.51100000000E-03 0. -1.
         11   -1    0    0    0    0 -0.00000000000E+00 -0.00000000000E+00 -0.45593999997E+02  0.45594000000E+02  0.51100000000E-03 0.  1.
    9900012    2    1    2    0    0 -0.90762248422E+00 -0.62264540560E+00  0.42609531634E+00  0.90007736007E+02  0.89999997322E+02 0.  0.
        -12    1    1    2    0    0  0.90762248422E+00  0.62264540560E+00 -0.42609531634E+00  0.11802639932E+01  0.00000000000E+00 0.  1.
         11    1    3    3    0    0 -0.55704680996E+01  0.82771429633E+01  0.36269119272E+02  0.37616355798E+02  0.51100000000E-03 0. -1.
        -11    1    3    3    0    0  0.11514486372E+02  0.82363470653E+01 -0.26355836569E+01  0.14400246903E+02  0.51100000000E-03 0.  1.
        -12    1    3    3    0    0 -0.68516407566E+01 -0.17136135434E+02 -0.33207440299E+02  0.37991133306E+02  0.00000000000E+00 0.  1.
</event>
<event>
 7    1  0.1756449E-015  0.9000768E+02  0.7816164E-02  0.1186339E+00
        -11   -1    0    0    0    0  0.00000000000E+00  0.00000000000E+00  0.45593999997E+02  0.45594000000E+02  0.51100000000E-03 0. -1.
         11   -1    0    0    0    0 -0.00000000000E+00 -0.00000000000E+00 -0.45593999997E+02  0.45594000000E+02  0.51100000000E-03 0.  1.
    9900012    2    1    2    0    0 -0.45026450771E+00  0.64814107139E+00  0.87769024920E+00  0.90007675829E+02  0.89999936350E+02 0.  0.
        -12    1    1    2    0    0  0.45026450771E+00 -0.64814107139E+00 -0.87769024920E+00  0.11803241711E+01  0.00000000000E+00 0.  1.
         11    1    3    3    0    0 -0.27672592858E+02 -0.84073411857E+01  0.29775556250E+02  0.41509511338E+02  0.51100000000E-03 0. -1.
        -11    1    3    3    0    0  0.11677212339E+02  0.54646846972E+01  0.26347368187E+01  0.13159099712E+02  0.51100000000E-03 0.  1.
        -12    1    3    3    0    0  0.15545116011E+02  0.35907975599E+01 -0.31532602819E+02  0.35339064779E+02  0.00000000000E+00 0.  1.
</event>
<event>
 7    1  0.1756449E-015  0.9000732E+02  0.7816164E-02  0.1186340E+00
        -11   -1    0    0    0    0  0.00000000000E+00  0.00000000000E+00  0.45593999997E+02  0.45594000000E+02  0.51100000000E-03 0. -1.
         11   -1    0    0    0    0 -0.00000000000E+00 -0.00000000000E+00 -0.45593999997E+02  0.45594000000E+02  0.51100000000E-03 0.  1.
    9900012    2    1    2    0    0 -0.45042805867E-01  0.51978571128E+00  0.10591518198E+01  0.90007318579E+02  0.89999574383E+02 0.  0.
        -12    1    1    2    0    0  0.45042805867E-01 -0.51978571128E+00 -0.10591518198E+01  0.11806814208E+01  0.00000000000E+00 0.  1.
         11    1    3    3    0    0  0.48621878089E+01  0.43093053018E+01 -0.81263168125E+01  0.10404230278E+02  0.51100000000E-03 0. -1.
        -11    1    3    3    0    0  0.11090560493E+02 -0.37080842016E+02 -0.69047032836E+01  0.39314937420E+02  0.51100000000E-03 0.  1.
         12    1    3    3    0    0 -0.15997791108E+02  0.33291322425E+02  0.16090171916E+02  0.40288150881E+02  0.00000000000E+00 0. -1.
</event>
<event>
 7    1  0.1756449E-015  0.9000774E+02  0.7816164E-02  0.1186339E+00
        -11   -1    0    0    0    0  0.00000000000E+00  0.00000000000E+00  0.45593999997E+02  0.45594000000E+02  0.51100000000E-03 0.  1.
         11   -1    0    0    0    0 -0.00000000000E+00 -0.00000000000E+00 -0.45593999997E+02  0.45594000000E+02  0.51100000000E-03 0. -1.
    9900012    2    1    2    0    0  0.16390431925E+00 -0.11673490989E+01 -0.58747554264E-01  0.90007737394E+02  0.89999998727E+02 0.  0.
        -12    1    1    2    0    0 -0.16390431925E+00  0.11673490989E+01  0.58747554264E-01  0.11802626063E+01  0.00000000000E+00 0.  1.
         11    1    3    3    0    0  0.22601719894E+02  0.83415892766E+01 -0.28022366952E+02  0.36955011888E+02  0.51100000000E-03 0. -1.
        -11    1    3    3    0    0  0.64295816111E+01 -0.49282629906E+01 -0.45834202247E+01  0.93077944227E+01  0.51100000000E-03 0.  1.
        -12    1    3    3    0    0 -0.28867397186E+02 -0.45806753849E+01  0.32547039622E+02  0.43744931083E+02  0.00000000000E+00 0.  1.
</event>
<event>
 7    1  0.1756449E-015  0.9000790E+02  0.7816164E-02  0.1186339E+00
        -11   -1    0    0    0    0  0.00000000000E+00  0.00000000000E+00  0.45593999997E+02  0.45594000000E+02  0.51100000000E-03 0.  1.
         11   -1    0    0    0    0 -0.00000000000E+00 -0.00000000000E+00 -0.45593999997E+02  0.45594000000E+02  0.51100000000E-03 0. -1.
    9900012    2    1    2    0    0 -0.66530440525E+00 -0.71285797224E+00 -0.66471691879E+00  0.90007896182E+02  0.90000159611E+02 0.  0.
        -12    1    1    2    0    0  0.66530440525E+00  0.71285797224E+00  0.66471691879E+00  0.11801038185E+01  0.00000000000E+00 0.  1.
         11    1    3    3    0    0 -0.31726032283E+02  0.18662581118E+02  0.47786329867E+01  0.37116955585E+02  0.51100000000E-03 0. -1.
        -11    1    3    3    0    0 -0.31944474770E+01  0.80057262118E+01 -0.23194252966E+01  0.89261347082E+01  0.51100000000E-03 0.  1.
        -12    1    3    3    0    0  0.34255175355E+02 -0.27381165302E+02 -0.31239246089E+01  0.43964805889E+02  0.00000000000E+00 0.  1.
</event>
<event>
 7    1  0.1756449E-015  0.9000770E+02  0.7816164E-02  0.1186339E+00
        -11   -1    0    0    0    0  0.00000000000E+00  0.00000000000E+00  0.45593999997E+02  0.45594000000E+02  0.51100000000E-03 0. -1.
         11   -1    0    0    0    0 -0.00000000000E+00 -0.00000000000E+00 -0.45593999997E+02  0.45594000000E+02  0.51100000000E-03 0.  1.
    9900012    2    1    2    0    0 -0.51887824794E+00 -0.73825531852E+00  0.76081686020E+00  0.90007704339E+02  0.89999965237E+02 0.  0.
        -12    1    1    2    0    0  0.51887824794E+00  0.73825531852E+00 -0.76081686020E+00  0.11802956605E+01  0.00000000000E+00 0.  1.
         11    1    3    3    0    0  0.50685316576E-01 -0.83779697973E+01 -0.36444112271E+00  0.83860458214E+01  0.51100000000E-03 0. -1.
        -11    1    3    3    0    0  0.21351111672E+02 -0.28097888932E+02  0.13693765773E+02  0.37853408742E+02  0.51100000000E-03 0.  1.
         12    1    3    3    0    0 -0.21920675236E+02  0.35737603411E+02 -0.12568507790E+02  0.43768249776E+02  0.00000000000E+00 0. -1.
</event>
<event>
 7    1  0.1756449E-015  0.9000742E+02  0.7816164E-02  0.1186340E+00
        -11   -1    0    0    0    0  0.00000000000E+00  0.00000000000E+00  0.45593999997E+02  0.45594000000E+02  0.51100000000E-03 0.  1.
         11   -1    0    0    0    0 -0.00000000000E+00 -0.00000000000E+00 -0.45593999997E+02  0.45594000000E+02  0.51100000000E-03 0. -1.
    9900012    2    1    2    0    0 -0.10838158293E+01  0.29080406091E+00 -0.36679429463E+00  0.90007423104E+02  0.89999680288E+02 0.  0.
        -12    1    1    2    0    0  0.10838158293E+01 -0.29080406091E+00  0.36679429463E+00  0.11805768963E+01  0.00000000000E+00 0.  1.
         11    1    3    3    0    0 -0.72313200548E+01 -0.22494166581E+01  0.74258429333E+01  0.10606366417E+02  0.51100000000E-03 0. -1.
        -11    1    3    3    0    0 -0.23808920407E+01  0.31687041887E+02  0.20565261874E+02  0.37850591364E+02  0.51100000000E-03 0.  1.
         12    1    3    3    0    0  0.85283962663E+01 -0.29146821168E+02 -0.28357899102E+02  0.41550465322E+02  0.00000000000E+00 0. -1.
</event>
<event>
 7    1  0.1756449E-015  0.9000773E+02  0.7816164E-02  0.1186339E+00
        -11   -1    0    0    0    0  0.00000000000E+00  0.00000000000E+00  0.45593999997E+02  0.45594000000E+02  0.51100000000E-03 0.  1.
         11   -1    0    0    0    0 -0.00000000000E+00 -0.00000000000E+00 -0.45593999997E+02  0.45594000000E+02  0.51100000000E-03 0. -1.
    9900012    2    1    2    0    0 -0.35061005304E+00 -0.28264573786E+00 -0.10909701160E+01  0.90007732312E+02  0.89999993578E+02 0.  0.
        -12    1    1    2    0    0  0.35061005304E+00  0.28264573786E+00  0.10909701160E+01  0.11802676884E+01  0.00000000000E+00 0.  1.
         11    1    3    3    0    0  0.33936070286E+01 -0.15540129751E+02 -0.30693215934E+01  0.16199781994E+02  0.51100000000E-03 0. -1.
        -11    1    3    3    0    0  0.30935219489E+01 -0.20591563180E+02  0.23532999209E+02  0.31422673411E+02  0.51100000000E-03 0.  1.
         12    1    3    3    0    0 -0.68377390305E+01  0.35849047192E+02 -0.21554647732E+02  0.42385276907E+02  0.00000000000E+00 0. -1.
</event>
<event>
 7    1  0.1756449E-015  0.9000776E+02  0.7816164E-02  0.1186339E+00
        -11   -1    0    0    0    0  0.00000000000E+00  0.00000000000E+00  0.45593999997E+02  0.45594000000E+02  0.51100000000E-03 0.  1.
         11   -1    0    0    0    0 -0.00000000000E+00 -0.00000000000E+00 -0.45593999997E+02  0.45594000000E+02  0.51100000000E-03 0. -1.
    9900012    2    1    2    0    0 -0.43606375777E+00 -0.10295231162E+01 -0.37802655183E+00  0.90007757007E+02  0.90000018600E+02 0.  0.
        -12    1    1    2    0    0  0.43606375777E+00  0.10295231162E+01  0.37802655183E+00  0.11802429926E+01  0.00000000000E+00 0.  1.
         11    1    3    3    0    0 -0.58642677902E+01 -0.27425892865E+01  0.39497569639E+01  0.75836675194E+01  0.51100000000E-03 0. -1.
        -11    1    3    3    0    0 -0.27221724839E+02 -0.13763427035E+02  0.22091996512E+02  0.37663119057E+02  0.51100000000E-03 0.  1.
         12    1    3    3    0    0  0.32649928871E+02  0.15476493206E+02 -0.26419780027E+02  0.44760970431E+02  0.00000000000E+00 0. -1.
</event>
<event>
 7    1  0.1756449E-015  0.9000783E+02  0.7816164E-02  0.1186339E+00
        -11   -1    0    0    0    0  0.00000000000E+00  0.00000000000E+00  0.45593999997E+02  0.45594000000E+02  0.51100000000E-03 0. -1.
         11   -1    0    0    0    0 -0.00000000000E+00 -0.00000000000E+00 -0.45593999997E+02  0.45594000000E+02  0.51100000000E-03 0.  1.
    9900012    2    1    2    0    0  0.11782197921E+01  0.54912002593E-01  0.39875911700E-01  0.90007827430E+02  0.90000089952E+02 0.  0.
        -12    1    1    2    0    0 -0.11782197921E+01 -0.54912002593E-01 -0.39875911700E-01  0.11801725700E+01  0.00000000000E+00 0.  1.
         11    1    3    3    0    0  0.53544960156E+01  0.15633658420E+01  0.67414506490E+01  0.87499655686E+01  0.51100000000E-03 0. -1.
        -11    1    3    3    0    0  0.29921649908E+02 -0.12299669072E+02 -0.25185763574E+02  0.40998898516E+02  0.51100000000E-03 0.  1.
         12    1    3    3    0    0 -0.34097926132E+02  0.10791215232E+02  0.18484188836E+02  0.40258963345E+02  0.00000000000E+00 0. -1.
</event>
<event>
 7    1  0.1756449E-015  0.9000760E+02  0.7816164E-02  0.1186339E+00
        -11   -1    0    0    0    0  0.00000000000E+00  0.00000000000E+00  0.45593999997E+02  0.45594000000E+02  0.51100000000E-03 0.  1.
         11   -1    0    0    0    0 -0.00000000000E+00 -0.00000000000E+00 -0.45593999997E+02  0.45594000000E+02  0.51100000000E-03 0. -1.
    9900012    2    1    2    0    0 -0.38306383794E+00 -0.10815782204E+01 -0.27710724444E+00  0.90007602704E+02  0.89999862260E+02 0.  0.
        -12    1    1    2    0    0  0.38306383794E+00  0.10815782204E+01  0.27710724444E+00  0.11803972957E+01  0.00000000000E+00 0.  1.
         11    1    3    3    0    0 -0.24939965472E+01 -0.95649412425E+00  0.93786857129E+01  0.97516483606E+01  0.51100000000E-03 0. -1.
        -11    1    3    3    0    0 -0.16778735301E+02  0.31183540163E+02 -0.21969581270E+02  0.41672552560E+02  0.51100000000E-03 0.  1.
         12    1    3    3    0    0  0.18889668010E+02 -0.31308624260E+02  0.12313788313E+02  0.38583401784E+02  0.00000000000E+00 0. -1.
</event>
<event>
 7    1  0.1756449E-015  0.9000761E+02  0.7816164E-02  0.1186339E+00
        -11   -1    0    0    0    0  0.00000000000E+00  0.00000000000E+00  0.45593999997E+02  0.45594000000E+02  0.51100000000E-03 0.  1.
         11   -1    0    0    0    0 -0.00000000000E+00 -0.00000000000E+00 -0.45593999997E+02  0.45594000000E+02  0.51100000000E-03 0. -1.
    9900012    2    1    2    0    0  0.50617251832E+00  0.96672743726E+00  0.45004895631E+00  0.90007611666E+02  0.89999871340E+02 0.  0.
        -12    1    1    2    0    0 -0.50617251832E+00 -0.96672743726E+00 -0.45004895631E+00  0.11803883341E+01  0.00000000000E+00 0.  1.
         11    1    3    3    0    0 -0.34965244100E+02 -0.19306102888E+02 -0.48492926932E+01  0.40234432313E+02  0.51100000000E-03 0. -1.
        -11    1    3    3    0    0 -0.10652763630E+01  0.44884262540E+01  0.86796715043E+01  0.98294191919E+01  0.51100000000E-03 0.  1.
        -12    1    3    3    0    0  0.36536692981E+02  0.15784404071E+02 -0.33803298548E+01  0.39943760161E+02  0.00000000000E+00 0.  1.
</event>
<event>
 7    1  0.1756449E-015  0.9000827E+02  0.7816164E-02  0.1186338E+00
        -11   -1    0    0    0    0  0.00000000000E+00  0.00000000000E+00  0.45593999997E+02  0.45594000000E+02  0.51100000000E-03 0. -1.
         11   -1    0    0    0    0 -0.00000000000E+00 -0.00000000000E+00 -0.45593999997E+02  0.45594000000E+02  0.51100000000E-03 0.  1.
    9900012    2    1    2    0    0  0.59927921732E+00  0.26301095984E+00  0.98155150218E+00  0.90008273889E+02  0.90000542303E+02 0.  0.
        -12    1    1    2    0    0 -0.59927921732E+00 -0.26301095984E+00 -0.98155150218E+00  0.11797261109E+01  0.00000000000E+00 0.  1.
         11    1    3    3    0    0 -0.35711293454E+01 -0.11886571441E+02 -0.57390844392E+00  0.12424689798E+02  0.51100000000E-03 0. -1.
        -11    1    3    3    0    0  0.35419267226E+01 -0.25845476578E+02  0.22273697454E+02  0.34302354190E+02  0.51100000000E-03 0.  1.
         12    1    3    3    0    0  0.62848184008E+00  0.37995058979E+02 -0.20718237508E+02  0.43281229900E+02  0.00000000000E+00 0. -1.
</event>
<event>
 7    1  0.1756449E-015  0.9000775E+02  0.7816164E-02  0.1186339E+00
        -11   -1    0    0    0    0  0.00000000000E+00  0.00000000000E+00  0.45593999997E+02  0.45594000000E+02  0.51100000000E-03 0.  1.
         11   -1    0    0    0    0 -0.00000000000E+00 -0.00000000000E+00 -0.45593999997E+02  0.45594000000E+02  0.51100000000E-03 0. -1.
    9900012    2    1    2    0    0 -0.10576214521E+01 -0.46951277650E+00  0.23236653350E+00  0.90007745964E+02  0.90000007411E+02 0.  0.
        -12    1    1    2    0    0  0.10576214521E+01  0.46951277650E+00 -0.23236653350E+00  0.11802540359E+01  0.00000000000E+00 0.  1.
         11    1    3    3    0    0  0.42686965982E+01  0.42034110261E+01 -0.89204179275E+01  0.10745431176E+02  0.51100000000E-03 0. -1.
        -11    1    3    3    0    0  0.33229838739E+02 -0.43387044856E+01  0.20230592305E+02  0.39144902663E+02  0.51100000000E-03 0.  1.
         12    1    3    3    0    0 -0.38556156790E+02 -0.33421931704E+00 -0.11077807844E+02  0.40117412124E+02  0.00000000000E+00 0. -1.
</event>
<event>
 7    1  0.1756449E-015  0.9000773E+02  0.7816164E-02  0.1186339E+00
        -11   -1    0    0    0    0  0.00000000000E+00  0.00000000000E+00  0.45593999997E+02  0.45594000000E+02  0.51100000000E-03 0.  1.
         11   -1    0    0    0    0 -0.00000000000E+00 -0.00000000000E+00 -0.45593999997E+02  0.45594000000E+02  0.51100000000E-03 0. -1.
    9900012    2    1    2    0    0  0.11340791673E+01  0.25829821824E+00 -0.20042983306E+00  0.90007734926E+02  0.89999996227E+02 0.  0.
        -12    1    1    2    0    0 -0.11340791673E+01 -0.25829821824E+00  0.20042983306E+00  0.11802650741E+01  0.00000000000E+00 0.  1.
         11    1    3    3    0    0 -0.13018201887E+01  0.25168262233E+02 -0.27014929175E+02  0.36945129019E+02  0.51100000000E-03 0. -1.
        -11    1    3    3    0    0  0.44199057405E+01 -0.42302587141E+01 -0.94567235350E+01  0.11263226706E+02  0.51100000000E-03 0.  1.
        -12    1    3    3    0    0 -0.19840063846E+01 -0.20679705300E+02  0.36271222877E+02  0.41799379202E+02  0.00000000000E+00 0.  1.
</event>
<event>
 7    1  0.1756449E-015  0.9000757E+02  0.7816164E-02  0.1186339E+00
        -11   -1    0    0    0    0  0.00000000000E+00  0.00000000000E+00  0.45593999997E+02  0.45594000000E+02  0.51100000000E-03 0.  1.
         11   -1    0    0    0    0 -0.00000000000E+00 -0.00000000000E+00 -0.45593999997E+02  0.45594000000E+02  0.51100000000E-03 0. -1.
    9900012    2    1    2    0    0  0.40721376856E+00  0.69802857364E+00  0.86043238211E+00  0.90007571761E+02  0.89999830908E+02 0.  0.
        -12    1    1    2    0    0 -0.40721376856E+00 -0.69802857364E+00 -0.86043238211E+00  0.11804282389E+01  0.00000000000E+00 0.  1.
         11    1    3    3    0    0 -0.22400786717E+02  0.24155670318E+02  0.18321619895E+02  0.37695800958E+02  0.51100000000E-03 0. -1.
        -11    1    3    3    0    0  0.59051123569E+01  0.10038448365E+02 -0.24524883406E+01  0.11901911479E+02  0.51100000000E-03 0.  1.
        -12    1    3    3    0    0  0.16902888128E+02 -0.33496090110E+02 -0.15008699172E+02  0.40409859324E+02  0.00000000000E+00 0.  1.
</event>
<event>
 7    1  0.1756449E-015  0.9000768E+02  0.7816164E-02  0.1186339E+00
        -11   -1    0    0    0    0  0.00000000000E+00  0.00000000000E+00  0.45593999997E+02  0.45594000000E+02  0.51100000000E-03 0. -1.
         11   -1    0    0    0    0 -0.00000000000E+00 -0.00000000000E+00 -0.45593999997E+02  0.45594000000E+02  0.51100000000E-03 0.  1.
    9900012    2    1    2    0    0  0.43304486467E+00  0.82344656852E+00  0.72632808158E+00  0.90007684539E+02  0.89999945175E+02 0.  0.
        -12    1    1    2    0    0 -0.43304486467E+00 -0.82344656852E+00 -0.72632808158E+00  0.11803154613E+01  0.00000000000E+00 0.  1.
         11    1    3    3    0    0  0.32053500869E+01  0.13739426613E+02  0.41387447321E+02  0.43726043828E+02  0.51100000000E-03 0. -1.
        -11    1    3    3    0    0 -0.65457890141E+01  0.12822402609E+01 -0.76531945893E+01  0.10151989046E+02  0.51100000000E-03 0.  1.
        -12    1    3    3    0    0  0.37734837920E+01 -0.14198220305E+02 -0.33007924650E+02  0.36129651665E+02  0.00000000000E+00 0.  1.
</event>
<event>
 7    1  0.1756449E-015  0.9000778E+02  0.7816164E-02  0.1186339E+00
        -11   -1    0    0    0    0  0.00000000000E+00  0.00000000000E+00  0.45593999997E+02  0.45594000000E+02  0.51100000000E-03 0. -1.
         11   -1    0    0    0    0 -0.00000000000E+00 -0.00000000000E+00 -0.45593999997E+02  0.45594000000E+02  0.51100000000E-03 0.  1.
    9900012    2    1    2    0    0  0.64262547438E+00 -0.78166842490E+00 -0.60741248307E+00  0.90007778431E+02  0.90000040307E+02 0.  0.
        -12    1    1    2    0    0 -0.64262547438E+00  0.78166842490E+00  0.60741248307E+00  0.11802215688E+01  0.00000000000E+00 0.  1.
         11    1    3    3    0    0 -0.68516027249E+00  0.63914564798E+01 -0.53862463232E+01  0.83864062772E+01  0.51100000000E-03 0. -1.
        -11    1    3    3    0    0  0.20742905583E+02  0.58748213323E+01 -0.31670223490E+02  0.38311678557E+02  0.51100000000E-03 0.  1.
         12    1    3    3    0    0 -0.19415119836E+02 -0.13047946237E+02  0.36449057330E+02  0.43309693597E+02  0.00000000000E+00 0. -1.
</event>
<event>
 7    1  0.1756449E-015  0.9000774E+02  0.7816164E-02  0.1186339E+00
        -11   -1    0    0    0    0  0.00000000000E+00  0.00000000000E+00  0.45593999997E+02  0.45594000000E+02  0.51100000000E-03 0.  1.
         11   -1    0    0    0    0 -0.00000000000E+00 -0.00000000000E+00 -0.45593999997E+02  0.45594000000E+02  0.51100000000E-03 0. -1.
    9900012    2    1    2    0    0 -0.59082561461E+00 -0.43419129870E-01 -0.10208126961E+01  0.90007737873E+02  0.89999999213E+02 0.  0.
        -12    1    1    2    0    0  0.59082561461E+00  0.43419129870E-01  0.10208126961E+01  0.11802621269E+01  0.00000000000E+00 0.  1.
         11    1    3    3    0    0 -0.32142786968E+02 -0.19619600687E+02  0.59480207483E+01  0.38124354897E+02  0.51100000000E-03 0. -1.
        -11    1    3    3    0    0 -0.72934068923E+01  0.63543338492E+01 -0.47834898728E+01  0.10791344605E+02  0.51100000000E-03 0.  1.
        -12    1    3    3    0    0  0.38845368246E+02  0.13221847708E+02 -0.21853435715E+01  0.41092038371E+02  0.00000000000E+00 0.  1.
</event>
<event>
 7    1  0.1756449E-015  0.9000760E+02  0.7816164E-02  0.1186339E+00
        -11   -1    0    0    0    0  0.00000000000E+00  0.00000000000E+00  0.45593999997E+02  0.45594000000E+02  0.51100000000E-03 0.  1.
         11   -1    0    0    0    0 -0.00000000000E+00 -0.00000000000E+00 -0.45593999997E+02  0.45594000000E+02  0.51100000000E-03 0. -1.
    9900012    2    1    2    0    0  0.92790194949E-01  0.32358005819E+00 -0.11313800313E+01  0.90007603944E+02  0.89999863516E+02 0.  0.
        -12    1    1    2    0    0 -0.92790194949E-01 -0.32358005819E+00  0.11313800313E+01  0.11803960563E+01  0.00000000000E+00 0.  1.
         11    1    3    3    0    0 -0.15956278107E+02 -0.13457084723E+02 -0.28598463470E+02  0.35405762996E+02  0.51100000000E-03 0. -1.
        -11    1    3    3    0    0 -0.43503873437E+01 -0.10232816603E+02 -0.21884434367E+01  0.11332505928E+02  0.51100000000E-03 0.  1.
        -12    1    3    3    0    0  0.20399455645E+02  0.24013481384E+02  0.29655526875E+02  0.43269335020E+02  0.00000000000E+00 0.  1.
</event>
<event>
 7    1  0.1756449E-015  0.9000777E+02  0.7816164E-02  0.1186339E+00
        -11   -1    0    0    0    0  0.00000000000E+00  0.00000000000E+00  0.45593999997E+02  0.45594000000E+02  0.51100000000E-03 0.  1.
         11   -1    0    0    0    0 -0.00000000000E+00 -0.00000000000E+00 -0.45593999997E+02  0.45594000000E+02  0.51100000000E-03 0. -1.
    9900012    2    1    2    0    0  0.12806820523E+00  0.68149541070E+00 -0.95504140194E+00  0.90007770556E+02  0.90000032328E+02 0.  0.
        -12    1    1    2    0    0 -0.12806820523E+00 -0.68149541070E+00  0.95504140194E+00  0.11802294435E+01  0.00000000000E+00 0.  1.
         11    1    3    3    0    0  0.12907363986E+02  0.38993552055E+02  0.12541667510E+02  0.42946368544E+02  0.51100000000E-03 0. -1.
        -11    1    3    3    0    0  0.53771805069E+01 -0.67814672252E+01 -0.34338741126E+01  0.93109537434E+01  0.51100000000E-03 0.  1.
        -12    1    3    3    0    0 -0.18156476288E+02 -0.31530589419E+02 -0.10062834799E+02  0.37750448269E+02  0.00000000000E+00 0.  1.
</event>
<event>
 7    1  0.1756449E-015  0.9000771E+02  0.7816164E-02  0.1186339E+00
        -11   -1    0    0    0    0  0.00000000000E+00  0.00000000000E+00  0.45593999997E+02  0.45594000000E+02  0.51100000000E-03 0.  1.
         11   -1    0    0    0    0 -0.00000000000E+00 -0.00000000000E+00 -0.45593999997E+02  0.45594000000E+02  0.51100000000E-03 0. -1.
    9900012    2    1    2    0    0  0.84883606211E+00 -0.54202414963E+00 -0.61543503510E+00  0.90007714813E+02  0.89999975849E+02 0.  0.
        -12    1    1    2    0    0 -0.84883606211E+00  0.54202414963E+00  0.61543503510E+00  0.11802851865E+01  0.00000000000E+00 0.  1.
         11    1    3    3    0    0  0.18194766330E+01  0.91463216348E+01  0.92499493619E+01  0.13134963195E+02  0.51100000000E-03 0. -1.
        -11    1    3    3    0    0  0.16054265137E+02  0.28985341893E+02 -0.10023238753E+02  0.34617261432E+02  0.51100000000E-03 0.  1.
         12    1    3    3    0    0 -0.17024905707E+02 -0.38673687677E+02  0.15785435631E+00  0.42255490186E+02  0.00000000000E+00 0. -1.
</event>
<event>
 7    1  0.1756449E-015  0.9000774E+02  0.7816164E-02  0.1186339E+00
        -11   -1    0    0    0    0  0.00000000000E+00  0.00000000000E+00  0.45593999997E+02  0.45594000000E+02  0.51100000000E-03 0. -1.
         11   -1    0    0    0    0 -0.00000000000E+00 -0.00000000000E+00 -0.45593999997E+02  0.45594000000E+02  0.51100000000E-03 0.  1.
    9900012    2    1    2    0    0  0.63031096853E+00 -0.80012378519E+00 -0.59626583215E+00  0.90007736076E+02  0.89999997392E+02 0.  0.
        -12    1    1    2    0    0 -0.63031096853E+00  0.80012378519E+00  0.59626583215E+00  0.11802639244E+01  0.00000000000E+00 0.  1.
         11    1    3    3    0    0 -0.52191536791E+01 -0.20366264056E+00 -0.87981986474E+01  0.10231781042E+02  0.51100000000E-03 0. -1.
        -11    1    3    3    0    0 -0.27753559902E+02  0.21048419368E+02 -0.94340772807E+01  0.36087364264E+02  0.51100000000E-03 0.  1.
         12    1    3    3    0    0  0.33603024549E+02 -0.21644880513E+02  0.17636010096E+02  0.43688590769E+02  0.00000000000E+00 0. -1.
</event>
<event>
 7    1  0.1756449E-015  0.9000778E+02  0.7816164E-02  0.1186339E+00
        -11   -1    0    0    0    0  0.00000000000E+00  0.00000000000E+00  0.45593999997E+02  0.45594000000E+02  0.51100000000E-03 0. -1.
         11   -1    0    0    0    0 -0.00000000000E+00 -0.00000000000E+00 -0.45593999997E+02  0.45594000000E+02  0.51100000000E-03 0.  1.
    9900012    2    1    2    0    0 -0.80451933441E-01  0.11774637291E+01  0.43974838347E-02  0.90007782781E+02  0.90000044713E+02 0.  0.
        -12    1    1    2    0    0  0.80451933441E-01 -0.11774637291E+01 -0.43974838347E-02  0.11802172194E+01  0.00000000000E+00 0.  1.
         11    1    3    3    0    0 -0.31868209041E+02  0.18002227758E+02  0.25072784236E+02  0.44365611247E+02  0.51100000000E-03 0. -1.
        -11    1    3    3    0    0  0.94208642842E+01 -0.23696060554E+01 -0.10342395035E+01  0.97692051023E+01  0.51100000000E-03 0.  1.
        -12    1    3    3    0    0  0.22366892823E+02 -0.14455157974E+02 -0.24034147249E+02  0.35872966431E+02  0.00000000000E+00 0.  1.
</event>
<event>
 7    1  0.1756449E-015  0.9000769E+02  0.7816164E-02  0.1186339E+00
        -11   -1    0    0    0    0  0.00000000000E+00  0.00000000000E+00  0.45593999997E+02  0.45594000000E+02  0.51100000000E-03 0. -1.
         11   -1    0    0    0    0 -0.00000000000E+00 -0.00000000000E+00 -0.45593999997E+02  0.45594000000E+02  0.51100000000E-03 0.  1.
    9900012    2    1    2    0    0  0.73693337109E+00  0.70023324133E+00  0.59977010155E+00  0.90007694294E+02  0.89999955058E+02 0.  0.
        -12    1    1    2    0    0 -0.73693337109E+00 -0.70023324133E+00 -0.59977010155E+00  0.11803057063E+01  0.00000000000E+00 0.  1.
         11    1    3    3    0    0 -0.35761241908E+02  0.11595239191E+02  0.18614016240E+02  0.41949941544E+02  0.51100000000E-03 0. -1.
        -11    1    3    3    0    0  0.36212660171E+00 -0.82913614780E+01 -0.39874871392E+01  0.92074896025E+01  0.51100000000E-03 0.  1.
        -12    1    3    3    0    0  0.36136048678E+02 -0.26036444715E+01 -0.14026758999E+02  0.38850263147E+02  0.00000000000E+00 0.  1.
</event>
<event>
 7    1  0.1756449E-015  0.9000794E+02  0.7816164E-02  0.1186339E+00
        -11   -1    0    0    0    0  0.00000000000E+00  0.00000000000E+00  0.45593999997E+02  0.45594000000E+02  0.51100000000E-03 0.  1.
         11   -1    0    0    0    0 -0.00000000000E+00 -0.00000000000E+00 -0.45593999997E+02  0.45594000000E+02  0.51100000000E-03 0. -1.
    9900012    2    1    2    0    0  0.34551504804E+00 -0.71812630226E+00 -0.87031295138E+00  0.90007944634E+02  0.90000208703E+02 0.  0.
        -12    1    1    2    0    0 -0.34551504804E+00  0.71812630226E+00  0.87031295138E+00  0.11800553664E+01  0.00000000000E+00 0.  1.
         11    1    3    3    0    0 -0.21159972025E+01  0.12976543134E+02  0.66749743779E+01  0.14745283960E+02  0.51100000000E-03 0. -1.
        -11    1    3    3    0    0 -0.27933205194E+02 -0.27720963085E+02 -0.12788589019E+02  0.41379508892E+02  0.51100000000E-03 0.  1.
         12    1    3    3    0    0  0.30394717444E+02  0.14026293649E+02  0.52433016900E+01  0.33883151781E+02  0.00000000000E+00 0. -1.
</event>
<event>
 7    1  0.1789678E-015  0.9000775E+02  0.7816164E-02  0.1186339E+00
        -11   -1    0    0    0    0  0.00000000000E+00  0.00000000000E+00  0.45593999997E+02  0.45594000000E+02  0.51100000000E-03 0. -1.
         11   -1    0    0    0    0 -0.00000000000E+00 -0.00000000000E+00 -0.45593999997E+02  0.45594000000E+02  0.51100000000E-03 0.  1.
    9900012    2    1    2    0    0  0.33963676730E-01 -0.23048556190E+00  0.11570324166E+01  0.90007745308E+02  0.90000006746E+02 0.  0.
        -12    1    1    2    0    0 -0.33963676730E-01  0.23048556190E+00 -0.11570324166E+01  0.11802546923E+01  0.00000000000E+00 0.  1.
         11    1    3    3    0    0  0.10751777803E+01  0.35943373089E+01 -0.80884255177E+01  0.89161592384E+01  0.51100000000E-03 0. -1.
        -11    1    3    3    0    0  0.17376366495E+02 -0.21021641112E+02 -0.26056036983E+02  0.37719551576E+02  0.51100000000E-03 0.  1.
         12    1    3    3    0    0 -0.18417580598E+02  0.17196818241E+02  0.35301494917E+02  0.43372034493E+02  0.00000000000E+00 0. -1.
</event>
<event>
 7    1  0.1756449E-015  0.9000781E+02  0.7816164E-02  0.1186339E+00
        -11   -1    0    0    0    0  0.00000000000E+00  0.00000000000E+00  0.45593999997E+02  0.45594000000E+02  0.51100000000E-03 0. -1.
         11   -1    0    0    0    0 -0.00000000000E+00 -0.00000000000E+00 -0.45593999997E+02  0.45594000000E+02  0.51100000000E-03 0.  1.
    9900012    2    1    2    0    0  0.77174405933E-01 -0.23096359846E+00  0.11547922389E+01  0.90007811376E+02  0.90000073686E+02 0.  0.
        -12    1    1    2    0    0 -0.77174405933E-01  0.23096359846E+00 -0.11547922389E+01  0.11801886238E+01  0.00000000000E+00 0.  1.
         11    1    3    3    0    0  0.50365004043E+01  0.36900985615E+02  0.72924272758E+01  0.37950343496E+02  0.51100000000E-03 0. -1.
        -11    1    3    3    0    0  0.33677802796E+00  0.41999870639E+01 -0.93585342777E+01  0.10263307209E+02  0.51100000000E-03 0.  1.
        -12    1    3    3    0    0 -0.52961040264E+01 -0.41331936277E+02  0.32208992407E+01  0.41794160671E+02  0.00000000000E+00 0.  1.
</event>
<event>
 7    1  0.1756449E-015  0.9000781E+02  0.7816164E-02  0.1186339E+00
        -11   -1    0    0    0    0  0.00000000000E+00  0.00000000000E+00  0.45593999997E+02  0.45594000000E+02  0.51100000000E-03 0. -1.
         11   -1    0    0    0    0 -0.00000000000E+00 -0.00000000000E+00 -0.45593999997E+02  0.45594000000E+02  0.51100000000E-03 0.  1.
    9900012    2    1    2    0    0  0.20161285409E+00  0.11382162337E+01 -0.23803765517E+00  0.90007811090E+02  0.90000073397E+02 0.  0.
        -12    1    1    2    0    0 -0.20161285409E+00 -0.11382162337E+01  0.23803765517E+00  0.11801889098E+01  0.00000000000E+00 0.  1.
         11    1    3    3    0    0  0.78773318665E+01  0.10261140495E+02 -0.23547813305E+01  0.13148701722E+02  0.51100000000E-03 0. -1.
        -11    1    3    3    0    0  0.23499076188E+02  0.13192011537E+01 -0.24931158028E+02  0.34285704225E+02  0.51100000000E-03 0.  1.
         12    1    3    3    0    0 -0.31174795200E+02 -0.10442125415E+02  0.27047901703E+02  0.42573405143E+02  0.00000000000E+00 0. -1.
</event>
<event>
 7    1  0.1756449E-015  0.9000780E+02  0.7816164E-02  0.1186339E+00
        -11   -1    0    0    0    0  0.00000000000E+00  0.00000000000E+00  0.45593999997E+02  0.45594000000E+02  0.51100000000E-03 0.  1.
         11   -1    0    0    0    0 -0.00000000000E+00 -0.00000000000E+00 -0.45593999997E+02  0.45594000000E+02  0.51100000000E-03 0. -1.
    9900012    2    1    2    0    0 -0.99998174778E-01 -0.97155571745E+00  0.66254114334E+00  0.90007796241E+02  0.90000058351E+02 0.  0.
        -12    1    1    2    0    0  0.99998174778E-01  0.97155571745E+00 -0.66254114334E+00  0.11802037594E+01  0.00000000000E+00 0.  1.
         11    1    3    3    0    0 -0.18858800748E+01 -0.77596154413E+01 -0.66148228321E+01  0.10369380734E+02  0.51100000000E-03 0. -1.
        -11    1    3    3    0    0  0.10783745534E+02  0.29327331594E+02 -0.24462327891E+02  0.39683586434E+02  0.51100000000E-03 0.  1.
         12    1    3    3    0    0 -0.89978636336E+01 -0.22539271870E+02  0.31739691866E+02  0.39954829072E+02  0.00000000000E+00 0. -1.
</event>
<event>
 7    1  0.1756449E-015  0.9000695E+02  0.7816164E-02  0.1186341E+00
        -11   -1    0    0    0    0  0.00000000000E+00  0.00000000000E+00  0.45593999997E+02  0.45594000000E+02  0.51100000000E-03 0.  1.
         11   -1    0    0    0    0 -0.00000000000E+00 -0.00000000000E+00 -0.45593999997E+02  0.45594000000E+02  0.51100000000E-03 0. -1.
    9900012    2    1    2    0    0  0.94718950685E+00  0.11822738138E+00 -0.69550206631E+00  0.90006954362E+02  0.89999205356E+02 0.  0.
        -12    1    1    2    0    0 -0.94718950685E+00 -0.11822738138E+00  0.69550206631E+00  0.11810456383E+01  0.00000000000E+00 0.  1.
         11    1    3    3    0    0  0.98551588178E+01  0.11268681788E+02  0.13503838572E+02  0.20160877982E+02  0.51100000000E-03 0. -1.
        -11    1    3    3    0    0  0.15533853474E+02 -0.14251891081E+02  0.19083816142E+02  0.28436051799E+02  0.51100000000E-03 0.  1.
         12    1    3    3    0    0 -0.24441822785E+02  0.31014366744E+01 -0.33283156780E+02  0.41410024581E+02  0.00000000000E+00 0. -1.
</event>
<event>
 7    1  0.1756449E-015  0.9000775E+02  0.7816164E-02  0.1186339E+00
        -11   -1    0    0    0    0  0.00000000000E+00  0.00000000000E+00  0.45593999997E+02  0.45594000000E+02  0.51100000000E-03 0.  1.
         11   -1    0    0    0    0 -0.00000000000E+00 -0.00000000000E+00 -0.45593999997E+02  0.45594000000E+02  0.51100000000E-03 0. -1.
    9900012    2    1    2    0    0 -0.74314139889E+00  0.79068499150E+00  0.46427403038E+00  0.90007749065E+02  0.90000010553E+02 0.  0.
        -12    1    1    2    0    0  0.74314139889E+00 -0.79068499150E+00 -0.46427403038E+00  0.11802509351E+01  0.00000000000E+00 0.  1.
         11    1    3    3    0    0  0.22011494962E+02  0.24000904209E+02 -0.14753529261E+02  0.35752145939E+02  0.51100000000E-03 0. -1.
        -11    1    3    3    0    0  0.44442390538E+01  0.24137562630E+01 -0.85754192664E+01  0.99556665232E+01  0.51100000000E-03 0.  1.
        -12    1    3    3    0    0 -0.27198875415E+02 -0.25623975481E+02  0.23793222558E+02  0.44299936602E+02  0.00000000000E+00 0.  1.
</event>
<event>
 7    1  0.1756449E-015  0.9000776E+02  0.7816164E-02  0.1186339E+00
        -11   -1    0    0    0    0  0.00000000000E+00  0.00000000000E+00  0.45593999997E+02  0.45594000000E+02  0.51100000000E-03 0.  1.
         11   -1    0    0    0    0 -0.00000000000E+00 -0.00000000000E+00 -0.45593999997E+02  0.45594000000E+02  0.51100000000E-03 0. -1.
    9900012    2    1    2    0    0  0.10415073628E+00 -0.11221203482E+01 -0.35067047611E+00  0.90007757976E+02  0.90000019582E+02 0.  0.
        -12    1    1    2    0    0 -0.10415073628E+00  0.11221203482E+01  0.35067047611E+00  0.11802420237E+01  0.00000000000E+00 0.  1.
         11    1    3    3    0    0  0.85646976032E+01  0.23475518970E+02 -0.25537414109E+02  0.35729729296E+02  0.51100000000E-03 0. -1.
        -11    1    3    3    0    0 -0.39350031408E+01  0.11014543127E+02  0.29940158436E+01  0.12073464339E+02  0.51100000000E-03 0.  1.
        -12    1    3    3    0    0 -0.45255437261E+01 -0.35612182445E+02  0.22192727789E+02  0.42204564341E+02  0.00000000000E+00 0.  1.
</event>
<event>
 7    1  0.1756449E-015  0.9000776E+02  0.7816164E-02  0.1186339E+00
        -11   -1    0    0    0    0  0.00000000000E+00  0.00000000000E+00  0.45593999997E+02  0.45594000000E+02  0.51100000000E-03 0. -1.
         11   -1    0    0    0    0 -0.00000000000E+00 -0.00000000000E+00 -0.45593999997E+02  0.45594000000E+02  0.51100000000E-03 0.  1.
    9900012    2    1    2    0    0  0.56029375685E+00  0.85806826245E+00  0.58546372236E+00  0.90007755107E+02  0.90000016675E+02 0.  0.
        -12    1    1    2    0    0 -0.56029375685E+00 -0.85806826245E+00 -0.58546372236E+00  0.11802448929E+01  0.00000000000E+00 0.  1.
         11    1    3    3    0    0  0.59995268402E+01  0.23567758307E+02  0.28419811985E+02  0.37404802732E+02  0.51100000000E-03 0. -1.
        -11    1    3    3    0    0  0.76065379036E+01  0.32253271250E+01  0.42855296587E+01  0.93074120280E+01  0.51100000000E-03 0.  1.
        -12    1    3    3    0    0 -0.13045770987E+02 -0.25935017170E+02 -0.32119877921E+02  0.43295540347E+02  0.00000000000E+00 0.  1.
</event>
<event>
 7    1  0.1756449E-015  0.9000733E+02  0.7816164E-02  0.1186340E+00
        -11   -1    0    0    0    0  0.00000000000E+00  0.00000000000E+00  0.45593999997E+02  0.45594000000E+02  0.51100000000E-03 0. -1.
         11   -1    0    0    0    0 -0.00000000000E+00 -0.00000000000E+00 -0.45593999997E+02  0.45594000000E+02  0.51100000000E-03 0.  1.
    9900012    2    1    2    0    0 -0.21367504773E-01 -0.39274601731E+00  0.11132308194E+01  0.90007326946E+02  0.89999582860E+02 0.  0.
        -12    1    1    2    0    0  0.21367504773E-01  0.39274601731E+00 -0.11132308194E+01  0.11806730545E+01  0.00000000000E+00 0.  1.
         11    1    3    3    0    0  0.21576844558E+02 -0.10955574789E+02  0.25065283814E+02  0.34840397428E+02  0.51100000000E-03 0. -1.
        -11    1    3    3    0    0  0.56573547842E+01  0.82409181309E+01  0.82172404962E+01  0.12939916400E+02  0.51100000000E-03 0.  1.
        -12    1    3    3    0    0 -0.27255566847E+02  0.23219106404E+01 -0.32169293491E+02  0.42227013118E+02  0.00000000000E+00 0.  1.
</event>
<event>
 7    1  0.1756449E-015  0.9000785E+02  0.7816164E-02  0.1186339E+00
        -11   -1    0    0    0    0  0.00000000000E+00  0.00000000000E+00  0.45593999997E+02  0.45594000000E+02  0.51100000000E-03 0.  1.
         11   -1    0    0    0    0 -0.00000000000E+00 -0.00000000000E+00 -0.45593999997E+02  0.45594000000E+02  0.51100000000E-03 0. -1.
    9900012    2    1    2    0    0 -0.10792367595E+00 -0.10389771155E+01 -0.54920153725E+00  0.90007854545E+02  0.90000117425E+02 0.  0.
        -12    1    1    2    0    0  0.10792367595E+00  0.10389771155E+01  0.54920153725E+00  0.11801454549E+01  0.00000000000E+00 0.  1.
         11    1    3    3    0    0 -0.12403711349E+00  0.73201757823E+00  0.11306508630E+02  0.11330859306E+02  0.51100000000E-03 0. -1.
        -11    1    3    3    0    0  0.37190047138E+02 -0.10453946003E+02  0.23956601554E+00  0.38632136691E+02  0.51100000000E-03 0.  1.
         12    1    3    3    0    0 -0.37173933701E+02  0.86829513093E+01 -0.12095276183E+02  0.40044858548E+02  0.00000000000E+00 0. -1.
</event>
<event>
 7    1  0.1756449E-015  0.9000775E+02  0.7816164E-02  0.1186339E+00
        -11   -1    0    0    0    0  0.00000000000E+00  0.00000000000E+00  0.45593999997E+02  0.45594000000E+02  0.51100000000E-03 0.  1.
         11   -1    0    0    0    0 -0.00000000000E+00 -0.00000000000E+00 -0.45593999997E+02  0.45594000000E+02  0.51100000000E-03 0. -1.
    9900012    2    1    2    0    0  0.85667274778E+00  0.79008401762E+00 -0.18670463305E+00  0.90007754444E+02  0.90000016003E+02 0.  0.
        -12    1    1    2    0    0 -0.85667274778E+00 -0.79008401762E+00  0.18670463305E+00  0.11802455557E+01  0.00000000000E+00 0.  1.
         11    1    3    3    0    0  0.25200994152E+02 -0.11560787493E+02 -0.29895418710E+02  0.40773495972E+02  0.51100000000E-03 0. -1.
        -11    1    3    3    0    0  0.43999728303E+01  0.73919775179E+01  0.16472163871E+01  0.87586765336E+01  0.51100000000E-03 0.  1.
        -12    1    3    3    0    0 -0.28744294235E+02  0.49588939923E+01  0.28061497690E+02  0.40475581939E+02  0.00000000000E+00 0.  1.
</event>
<event>
 7    1  0.1756449E-015  0.9000827E+02  0.7816164E-02  0.1186338E+00
        -11   -1    0    0    0    0  0.00000000000E+00  0.00000000000E+00  0.45593999997E+02  0.45594000000E+02  0.51100000000E-03 0. -1.
         11   -1    0    0    0    0 -0.00000000000E+00 -0.00000000000E+00 -0.45593999997E+02  0.45594000000E+02  0.51100000000E-03 0.  1.
    9900012    2    1    2    0    0 -0.35451379267E+00 -0.16481333292E+00  0.11130648814E+01  0.90008272534E+02  0.90000540930E+02 0.  0.
        -12    1    1    2    0    0  0.35451379267E+00  0.16481333292E+00 -0.11130648814E+01  0.11797274660E+01  0.00000000000E+00 0.  1.
         11    1    3    3    0    0 -0.32945420676E+01 -0.77713087209E+01  0.34856320636E+01  0.91321891031E+01  0.51100000000E-03 0. -1.
        -11    1    3    3    0    0 -0.20199458257E+02 -0.29645888091E+02 -0.77278729795E+01  0.36696277954E+02  0.51100000000E-03 0.  1.
         12    1    3    3    0    0  0.23139486532E+02  0.37252383479E+02  0.53553057972E+01  0.44179805477E+02  0.00000000000E+00 0. -1.
</event>
<event>
 7    1  0.1756449E-015  0.9000786E+02  0.7816164E-02  0.1186339E+00
        -11   -1    0    0    0    0  0.00000000000E+00  0.00000000000E+00  0.45593999997E+02  0.45594000000E+02  0.51100000000E-03 0.  1.
         11   -1    0    0    0    0 -0.00000000000E+00 -0.00000000000E+00 -0.45593999997E+02  0.45594000000E+02  0.51100000000E-03 0. -1.
    9900012    2    1    2    0    0 -0.47291209511E+00  0.85654488662E+00 -0.65986320116E+00  0.90007858298E+02  0.90000121227E+02 0.  0.
        -12    1    1    2    0    0  0.47291209511E+00 -0.85654488662E+00  0.65986320116E+00  0.11801417020E+01  0.00000000000E+00 0.  1.
         11    1    3    3    0    0 -0.23219350273E+02  0.10643078224E+02 -0.29456164598E+02  0.38988190190E+02  0.51100000000E-03 0. -1.
        -11    1    3    3    0    0  0.54250195366E+00 -0.11682814977E+02 -0.31096953920E+01  0.12101763501E+02  0.51100000000E-03 0.  1.
        -12    1    3    3    0    0  0.22203936224E+02  0.18962816397E+01  0.31905996789E+02  0.38917904607E+02  0.00000000000E+00 0.  1.
</event>
<event>
 7    1  0.1756449E-015  0.9000772E+02  0.7816164E-02  0.1186339E+00
        -11   -1    0    0    0    0  0.00000000000E+00  0.00000000000E+00  0.45593999997E+02  0.45594000000E+02  0.51100000000E-03 0.  1.
         11   -1    0    0    0    0 -0.00000000000E+00 -0.00000000000E+00 -0.45593999997E+02  0.45594000000E+02  0.51100000000E-03 0. -1.
    9900012    2    1    2    0    0 -0.52937712281E+00  0.90130378928E+00 -0.54814860732E+00  0.90007722255E+02  0.89999983389E+02 0.  0.
        -12    1    1    2    0    0  0.52937712281E+00 -0.90130378928E+00  0.54814860732E+00  0.11802777446E+01  0.00000000000E+00 0.  1.
         11    1    3    3    0    0  0.10805865970E+02 -0.24567530077E+02 -0.23631365990E+02  0.35759917956E+02  0.51100000000E-03 0. -1.
        -11    1    3    3    0    0 -0.10060212758E+02 -0.58071350706E+01 -0.45678916215E+01  0.12481840112E+02  0.51100000000E-03 0.  1.
        -12    1    3    3    0    0 -0.12750303350E+01  0.31275968937E+02  0.27651109004E+02  0.41765964187E+02  0.00000000000E+00 0.  1.
</event>
<event>
 7    1  0.1756449E-015  0.9000775E+02  0.7816164E-02  0.1186339E+00
        -11   -1    0    0    0    0  0.00000000000E+00  0.00000000000E+00  0.45593999997E+02  0.45594000000E+02  0.51100000000E-03 0.  1.
         11   -1    0    0    0    0 -0.00000000000E+00 -0.00000000000E+00 -0.45593999997E+02  0.45594000000E+02  0.51100000000E-03 0. -1.
    9900012    2    1    2    0    0 -0.81031353087E+00  0.45047453843E+00 -0.73038132410E+00  0.90007749092E+02  0.90000010580E+02 0.  0.
        -12    1    1    2    0    0  0.81031353087E+00 -0.45047453843E+00  0.73038132410E+00  0.11802509084E+01  0.00000000000E+00 0.  1.
         11    1    3    3    0    0  0.13783386442E+01  0.18797165916E+02 -0.31371886540E+02  0.36598203908E+02  0.51100000000E-03 0. -1.
        -11    1    3    3    0    0  0.29829553816E-01 -0.10726769455E+01 -0.95483339902E+01  0.96084446130E+01  0.51100000000E-03 0.  1.
        -12    1    3    3    0    0 -0.22184817289E+01 -0.17274014433E+02  0.40189839206E+02  0.43801100571E+02  0.00000000000E+00 0.  1.
</event>
<event>
 7    1  0.1756449E-015  0.9000770E+02  0.7816164E-02  0.1186339E+00
        -11   -1    0    0    0    0  0.00000000000E+00  0.00000000000E+00  0.45593999997E+02  0.45594000000E+02  0.51100000000E-03 0. -1.
         11   -1    0    0    0    0 -0.00000000000E+00 -0.00000000000E+00 -0.45593999997E+02  0.45594000000E+02  0.51100000000E-03 0.  1.
    9900012    2    1    2    0    0 -0.88734476871E+00  0.67721487738E+00 -0.38354569666E+00  0.90007700025E+02  0.89999960866E+02 0.  0.
        -12    1    1    2    0    0  0.88734476871E+00 -0.67721487738E+00  0.38354569666E+00  0.11802999746E+01  0.00000000000E+00 0.  1.
         11    1    3    3    0    0  0.31000135039E+02  0.83634240257E+01 -0.92351638400E+01  0.33410230249E+02  0.51100000000E-03 0. -1.
        -11    1    3    3    0    0  0.65906078208E+01  0.67055215664E+01 -0.78523625094E+01  0.12249886863E+02  0.51100000000E-03 0.  1.
        -12    1    3    3    0    0 -0.38478087629E+02 -0.14391730715E+02  0.16703980653E+02  0.44347582913E+02  0.00000000000E+00 0.  1.
</event>
<event>
 7    1  0.1756449E-015  0.9000771E+02  0.7816164E-02  0.1186339E+00
        -11   -1    0    0    0    0  0.00000000000E+00  0.00000000000E+00  0.45593999997E+02  0.45594000000E+02  0.51100000000E-03 0. -1.
         11   -1    0    0    0    0 -0.00000000000E+00 -0.00000000000E+00 -0.45593999997E+02  0.45594000000E+02  0.51100000000E-03 0.  1.
    9900012    2    1    2    0    0 -0.11406765451E+01 -0.52701594012E-01  0.29859226349E+00  0.90007712841E+02  0.89999973850E+02 0.  0.
        -12    1    1    2    0    0  0.11406765451E+01  0.52701594012E-01 -0.29859226349E+00  0.11802871592E+01  0.00000000000E+00 0.  1.
         11    1    3    3    0    0 -0.12969008464E+02 -0.41624364336E+02 -0.65571131209E+01  0.44088304795E+02  0.51100000000E-03 0. -1.
        -11    1    3    3    0    0 -0.63842731513E+00  0.70515634333E+01  0.58808914920E+01  0.92041849880E+01  0.51100000000E-03 0.  1.
        -12    1    3    3    0    0  0.12466759234E+02  0.34520099309E+02  0.97481389231E+00  0.36715223058E+02  0.00000000000E+00 0.  1.
</event>
<event>
 7    1  0.1756449E-015  0.9000774E+02  0.7816164E-02  0.1186339E+00
        -11   -1    0    0    0    0  0.00000000000E+00  0.00000000000E+00  0.45593999997E+02  0.45594000000E+02  0.51100000000E-03 0.  1.
         11   -1    0    0    0    0 -0.00000000000E+00 -0.00000000000E+00 -0.45593999997E+02  0.45594000000E+02  0.51100000000E-03 0. -1.
    9900012    2    1    2    0    0 -0.27018677670E+00  0.10162995346E+01  0.53586360726E+00  0.90007739248E+02  0.90000000606E+02 0.  0.
        -12    1    1    2    0    0  0.27018677670E+00 -0.10162995346E+01 -0.53586360726E+00  0.11802607525E+01  0.00000000000E+00 0.  1.
         11    1    3    3    0    0  0.77154261625E-01  0.17808967971E+02 -0.31579212485E+02  0.36254819740E+02  0.51100000000E-03 0. -1.
        -11    1    3    3    0    0 -0.50964687302E+01  0.23877698353E+01 -0.75627701332E+01  0.94271379884E+01  0.51100000000E-03 0.  1.
        -12    1    3    3    0    0  0.47491276918E+01 -0.19180438271E+02  0.39677846226E+02  0.44325781519E+02  0.00000000000E+00 0.  1.
</event>
<event>
 7    1  0.1756449E-015  0.9000761E+02  0.7816164E-02  0.1186339E+00
        -11   -1    0    0    0    0  0.00000000000E+00  0.00000000000E+00  0.45593999997E+02  0.45594000000E+02  0.51100000000E-03 0.  1.
         11   -1    0    0    0    0 -0.00000000000E+00 -0.00000000000E+00 -0.45593999997E+02  0.45594000000E+02  0.51100000000E-03 0. -1.
    9900012    2    1    2    0    0 -0.10105771911E+01 -0.47636166314E+00 -0.38095440723E+00  0.90007613219E+02  0.89999872913E+02 0.  0.
        -12    1    1    2    0    0  0.10105771911E+01  0.47636166314E+00  0.38095440723E+00  0.11803867814E+01  0.00000000000E+00 0.  1.
         11    1    3    3    0    0 -0.32010538045E+02  0.10100206910E+02 -0.22100991048E+02  0.40188835902E+02  0.51100000000E-03 0. -1.
        -11    1    3    3    0    0  0.26438599067E+01 -0.27239426683E+00 -0.74151576521E+01  0.78771033451E+01  0.51100000000E-03 0.  1.
        -12    1    3    3    0    0  0.28356100947E+02 -0.10304174306E+02  0.29135194293E+02  0.41941673972E+02  0.00000000000E+00 0.  1.
</event>
<event>
 7    1  0.1756449E-015  0.9000771E+02  0.7816164E-02  0.1186339E+00
        -11   -1    0    0    0    0  0.00000000000E+00  0.00000000000E+00  0.45593999997E+02  0.45594000000E+02  0.51100000000E-03 0. -1.
         11   -1    0    0    0    0 -0.00000000000E+00 -0.00000000000E+00 -0.45593999997E+02  0.45594000000E+02  0.51100000000E-03 0.  1.
    9900012    2    1    2    0    0 -0.10162180121E+01  0.56697102722E+00  0.19728280683E+00  0.90007713721E+02  0.89999974742E+02 0.  0.
        -12    1    1    2    0    0  0.10162180121E+01 -0.56697102722E+00 -0.19728280683E+00  0.11802862787E+01  0.00000000000E+00 0.  1.
         11    1    3    3    0    0  0.31123211000E+02  0.12188846249E+02  0.12285092407E+02  0.35611033845E+02  0.51100000000E-03 0. -1.
        -11    1    3    3    0    0  0.30699659728E+01  0.10056937651E+02 -0.72372198174E+01  0.12764953464E+02  0.51100000000E-03 0.  1.
        -12    1    3    3    0    0 -0.35209394985E+02 -0.21678812873E+02 -0.48505897823E+01  0.41631726412E+02  0.00000000000E+00 0.  1.
</event>
<event>
 7    1  0.1756449E-015  0.9000773E+02  0.7816164E-02  0.1186339E+00
        -11   -1    0    0    0    0  0.00000000000E+00  0.00000000000E+00  0.45593999997E+02  0.45594000000E+02  0.51100000000E-03 0. -1.
         11   -1    0    0    0    0 -0.00000000000E+00 -0.00000000000E+00 -0.45593999997E+02  0.45594000000E+02  0.51100000000E-03 0.  1.
    9900012    2    1    2    0    0 -0.67036023009E+00 -0.39724600821E+00  0.88647621682E+00  0.90007734220E+02  0.89999995511E+02 0.  0.
        -12    1    1    2    0    0  0.67036023009E+00  0.39724600821E+00 -0.88647621682E+00  0.11802657803E+01  0.00000000000E+00 0.  1.
         11    1    3    3    0    0  0.12360276038E+02 -0.72631417106E+01  0.15756690927E+02  0.21302651490E+02  0.51100000000E-03 0. -1.
        -11    1    3    3    0    0  0.25715579751E+02 -0.39123649679E+01 -0.11200915997E+02  0.28320631366E+02  0.51100000000E-03 0.  1.
        -12    1    3    3    0    0 -0.38746216019E+02  0.10778260670E+02 -0.36692987139E+01  0.40384451364E+02  0.00000000000E+00 0.  1.
</event>
<event>
 7    1  0.1756449E-015  0.9000772E+02  0.7816164E-02  0.1186339E+00
        -11   -1    0    0    0    0  0.00000000000E+00  0.00000000000E+00  0.45593999997E+02  0.45594000000E+02  0.51100000000E-03 0. -1.
         11   -1    0    0    0    0 -0.00000000000E+00 -0.00000000000E+00 -0.45593999997E+02  0.45594000000E+02  0.51100000000E-03 0.  1.
    9900012    2    1    2    0    0 -0.44343182422E+00 -0.10882723160E+01  0.10994257801E+00  0.90007722157E+02  0.89999983289E+02 0.  0.
        -12    1    1    2    0    0  0.44343182422E+00  0.10882723160E+01 -0.10994257801E+00  0.11802778432E+01  0.00000000000E+00 0.  1.
         11    1    3    3    0    0  0.30245797822E+01  0.40380791636E+01 -0.77667949326E+01  0.92616019120E+01  0.51100000000E-03 0. -1.
        -11    1    3    3    0    0 -0.26017800336E+02  0.27213510775E+02 -0.75691862087E+01  0.38403042629E+02  0.51100000000E-03 0.  1.
         12    1    3    3    0    0  0.22549788730E+02 -0.32339862255E+02  0.15445923719E+02  0.42343077616E+02  0.00000000000E+00 0. -1.
</event>
<event>
 7    1  0.1756449E-015  0.9000783E+02  0.7816164E-02  0.1186339E+00
        -11   -1    0    0    0    0  0.00000000000E+00  0.00000000000E+00  0.45593999997E+02  0.45594000000E+02  0.51100000000E-03 0. -1.
         11   -1    0    0    0    0 -0.00000000000E+00 -0.00000000000E+00 -0.45593999997E+02  0.45594000000E+02  0.51100000000E-03 0.  1.
    9900012    2    1    2    0    0  0.11207227086E+01  0.26212928993E+00 -0.26092374191E+00  0.90007825287E+02  0.90000087781E+02 0.  0.
        -12    1    1    2    0    0 -0.11207227086E+01 -0.26212928993E+00  0.26092374191E+00  0.11801747130E+01  0.00000000000E+00 0.  1.
         11    1    3    3    0    0 -0.91641471302E+01  0.35184184117E+00  0.42906277758E+01  0.10124962828E+02  0.51100000000E-03 0. -1.
        -11    1    3    3    0    0 -0.32420679590E+02 -0.13241193524E+02 -0.62573827793E+00  0.35026007761E+02  0.51100000000E-03 0.  1.
         12    1    3    3    0    0  0.42705549429E+02  0.13151480973E+02 -0.39258132398E+01  0.44856854698E+02  0.00000000000E+00 0. -1.
</event>
<event>
 7    1  0.1756449E-015  0.9000763E+02  0.7816164E-02  0.1186339E+00
        -11   -1    0    0    0    0  0.00000000000E+00  0.00000000000E+00  0.45593999997E+02  0.45594000000E+02  0.51100000000E-03 0. -1.
         11   -1    0    0    0    0 -0.00000000000E+00 -0.00000000000E+00 -0.45593999997E+02  0.45594000000E+02  0.51100000000E-03 0.  1.
    9900012    2    1    2    0    0  0.10533104280E+01  0.46888862105E+00  0.25290627668E+00  0.90007626762E+02  0.89999886635E+02 0.  0.
        -12    1    1    2    0    0 -0.10533104280E+01 -0.46888862105E+00 -0.25290627668E+00  0.11803732382E+01  0.00000000000E+00 0.  1.
         11    1    3    3    0    0  0.20599871758E+02 -0.18239585062E+02  0.12958660326E+02  0.30413221753E+02  0.51100000000E-03 0. -1.
        -11    1    3    3    0    0 -0.59687981648E+01 -0.18056707299E+02 -0.35334045124E+01  0.19343117063E+02  0.51100000000E-03 0.  1.
        -12    1    3    3    0    0 -0.13577763166E+02  0.36765180982E+02 -0.91723495369E+01  0.40251287945E+02  0.00000000000E+00 0.  1.
</event>
<event>
 7    1  0.1756449E-015  0.9000754E+02  0.7816164E-02  0.1186339E+00
        -11   -1    0    0    0    0  0.00000000000E+00  0.00000000000E+00  0.45593999997E+02  0.45594000000E+02  0.51100000000E-03 0. -1.
         11   -1    0    0    0    0 -0.00000000000E+00 -0.00000000000E+00 -0.45593999997E+02  0.45594000000E+02  0.51100000000E-03 0.  1.
    9900012    2    1    2    0    0 -0.10530356835E+01 -0.29710366145E+00  0.44308206533E+00  0.90007543964E+02  0.89999802744E+02 0.  0.
        -12    1    1    2    0    0  0.10530356835E+01  0.29710366145E+00 -0.44308206533E+00  0.11804560360E+01  0.00000000000E+00 0.  1.
         11    1    3    3    0    0 -0.35434255773E+02  0.69868907737E+01  0.19022814990E+02  0.40819978139E+02  0.51100000000E-03 0. -1.
        -11    1    3    3    0    0 -0.22364369262E+00  0.68720861601E+01 -0.75380355572E+01  0.10202821424E+02  0.51100000000E-03 0.  1.
        -12    1    3    3    0    0  0.34604863782E+02 -0.14156080595E+02 -0.11041697367E+02  0.38984744400E+02  0.00000000000E+00 0.  1.
</event>
<event>
 7    1  0.1756449E-015  0.9000769E+02  0.7816164E-02  0.1186339E+00
        -11   -1    0    0    0    0  0.00000000000E+00  0.00000000000E+00  0.45593999997E+02  0.45594000000E+02  0.51100000000E-03 0.  1.
         11   -1    0    0    0    0 -0.00000000000E+00 -0.00000000000E+00 -0.45593999997E+02  0.45594000000E+02  0.51100000000E-03 0. -1.
    9900012    2    1    2    0    0  0.77773695993E+00 -0.78879836689E+00 -0.40749137136E+00  0.90007692049E+02  0.89999952784E+02 0.  0.
        -12    1    1    2    0    0 -0.77773695993E+00  0.78879836689E+00  0.40749137136E+00  0.11803079514E+01  0.00000000000E+00 0.  1.
         11    1    3    3    0    0 -0.22969643392E+01  0.11334209829E+02  0.99507464057E+01  0.15256399048E+02  0.51100000000E-03 0. -1.
        -11    1    3    3    0    0  0.32985805480E+02  0.75957222709E+01 -0.17674783192E+02  0.38185813087E+02  0.51100000000E-03 0.  1.
         12    1    3    3    0    0 -0.29911104181E+02 -0.19718730466E+02  0.73165454153E+01  0.36565479914E+02  0.00000000000E+00 0. -1.
</event>
<event>
 7    1  0.1756449E-015  0.9000772E+02  0.7816164E-02  0.1186339E+00
        -11   -1    0    0    0    0  0.00000000000E+00  0.00000000000E+00  0.45593999997E+02  0.45594000000E+02  0.51100000000E-03 0.  1.
         11   -1    0    0    0    0 -0.00000000000E+00 -0.00000000000E+00 -0.45593999997E+02  0.45594000000E+02  0.51100000000E-03 0. -1.
    9900012    2    1    2    0    0  0.23755456956E+00 -0.39750823373E+00  0.10856397838E+01  0.90007720919E+02  0.89999982035E+02 0.  0.
        -12    1    1    2    0    0 -0.23755456956E+00  0.39750823373E+00 -0.10856397838E+01  0.11802790813E+01  0.00000000000E+00 0.  1.
         11    1    3    3    0    0 -0.17043176554E+01 -0.11484245244E+02  0.10942687253E+01  0.11661475541E+02  0.51100000000E-03 0. -1.
        -11    1    3    3    0    0 -0.33451338827E+02 -0.77782972088E+00 -0.16769137447E+02  0.37427276943E+02  0.51100000000E-03 0.  1.
         12    1    3    3    0    0  0.35393211052E+02  0.11864566731E+02  0.16760508505E+02  0.40918968434E+02  0.00000000000E+00 0. -1.
</event>
<event>
 7    1  0.1756449E-015  0.9000779E+02  0.7816164E-02  0.1186339E+00
        -11   -1    0    0    0    0  0.00000000000E+00  0.00000000000E+00  0.45593999997E+02  0.45594000000E+02  0.51100000000E-03 0.  1.
         11   -1    0    0    0    0 -0.00000000000E+00 -0.00000000000E+00 -0.45593999997E+02  0.45594000000E+02  0.51100000000E-03 0. -1.
    9900012    2    1    2    0    0 -0.79518959459E+00  0.85647994289E+00 -0.16435000340E+00  0.90007790143E+02  0.90000052172E+02 0.  0.
        -12    1    1    2    0    0  0.79518959459E+00 -0.85647994289E+00  0.16435000340E+00  0.11802098574E+01  0.00000000000E+00 0.  1.
         11    1    3    3    0    0  0.85158245527E+01 -0.29185643241E-01  0.31826374471E+01  0.90911660965E+01  0.51100000000E-03 0. -1.
        -11    1    3    3    0    0  0.51091220296E+01  0.24299374991E+02  0.29185816693E+02  0.38319376941E+02  0.51100000000E-03 0.  1.
         12    1    3    3    0    0 -0.14420136177E+02 -0.23413709405E+02 -0.32532804144E+02  0.42597247105E+02  0.00000000000E+00 0. -1.
</event>
<event>
 7    1  0.1756449E-015  0.9000753E+02  0.7816164E-02  0.1186339E+00
        -11   -1    0    0    0    0  0.00000000000E+00  0.00000000000E+00  0.45593999997E+02  0.45594000000E+02  0.51100000000E-03 0.  1.
         11   -1    0    0    0    0 -0.00000000000E+00 -0.00000000000E+00 -0.45593999997E+02  0.45594000000E+02  0.51100000000E-03 0. -1.
    9900012    2    1    2    0    0 -0.11551574273E+01  0.21715303853E+00 -0.10938349316E+00  0.90007530232E+02  0.89999788831E+02 0.  0.
        -12    1    1    2    0    0  0.11551574273E+01 -0.21715303853E+00  0.10938349316E+00  0.11804697677E+01  0.00000000000E+00 0.  1.
         11    1    3    3    0    0  0.25998487240E+02 -0.14153941696E+02 -0.26754539476E+02  0.39900636425E+02  0.51100000000E-03 0. -1.
        -11    1    3    3    0    0  0.29877869092E+01  0.66565002122E+01 -0.22606443559E+01  0.76384801404E+01  0.51100000000E-03 0.  1.
        -12    1    3    3    0    0 -0.30141431577E+02  0.77145945228E+01  0.28905800339E+02  0.42468413667E+02  0.00000000000E+00 0.  1.
</event>
<event>
 7    1  0.1756449E-015  0.9000772E+02  0.7816164E-02  0.1186339E+00
        -11   -1    0    0    0    0  0.00000000000E+00  0.00000000000E+00  0.45593999997E+02  0.45594000000E+02  0.51100000000E-03 0.  1.
         11   -1    0    0    0    0 -0.00000000000E+00 -0.00000000000E+00 -0.45593999997E+02  0.45594000000E+02  0.51100000000E-03 0. -1.
    9900012    2    1    2    0    0 -0.75639798933E+00  0.81638353410E-01 -0.90235678382E+00  0.90007724395E+02  0.89999985557E+02 0.  0.
        -12    1    1    2    0    0  0.75639798933E+00 -0.81638353410E-01  0.90235678382E+00  0.11802756052E+01  0.00000000000E+00 0.  1.
         11    1    3    3    0    0 -0.13523792438E+02 -0.35709780913E+00 -0.14607891264E+01  0.13607144663E+02  0.51100000000E-03 0. -1.
        -11    1    3    3    0    0  0.51514835259E+01  0.18584748705E+02  0.33136459427E+02  0.38340000137E+02  0.51100000000E-03 0.  1.
         12    1    3    3    0    0  0.76159109225E+01 -0.18146012543E+02 -0.32578027084E+02  0.38060579594E+02  0.00000000000E+00 0. -1.
</event>
<event>
 7    1  0.1756449E-015  0.9000774E+02  0.7816164E-02  0.1186339E+00
        -11   -1    0    0    0    0  0.00000000000E+00  0.00000000000E+00  0.45593999997E+02  0.45594000000E+02  0.51100000000E-03 0. -1.
         11   -1    0    0    0    0 -0.00000000000E+00 -0.00000000000E+00 -0.45593999997E+02  0.45594000000E+02  0.51100000000E-03 0.  1.
    9900012    2    1    2    0    0  0.10207505782E+01  0.53320115155E+00 -0.25842035295E+00  0.90007738889E+02  0.90000000243E+02 0.  0.
        -12    1    1    2    0    0 -0.10207505782E+01 -0.53320115155E+00  0.25842035295E+00  0.11802611108E+01  0.00000000000E+00 0.  1.
         11    1    3    3    0    0 -0.15651674971E+02 -0.17707940391E+02  0.28291722034E+02  0.36864177981E+02  0.51100000000E-03 0. -1.
        -11    1    3    3    0    0  0.82651188913E+01 -0.23548787706E+01  0.70827993902E+01  0.11136592467E+02  0.51100000000E-03 0.  1.
        -12    1    3    3    0    0  0.84073066575E+01  0.20596020313E+02 -0.35632941777E+02  0.42006968442E+02  0.00000000000E+00 0.  1.
</event>
<event>
 7    1  0.1756449E-015  0.9000773E+02  0.7816164E-02  0.1186339E+00
        -11   -1    0    0    0    0  0.00000000000E+00  0.00000000000E+00  0.45593999997E+02  0.45594000000E+02  0.51100000000E-03 0. -1.
         11   -1    0    0    0    0 -0.00000000000E+00 -0.00000000000E+00 -0.45593999997E+02  0.45594000000E+02  0.51100000000E-03 0.  1.
    9900012    2    1    2    0    0  0.11111099799E+01  0.14411189287E+00  0.37107343114E+00  0.90007733455E+02  0.89999994737E+02 0.  0.
        -12    1    1    2    0    0 -0.11111099799E+01 -0.14411189287E+00 -0.37107343114E+00  0.11802665446E+01  0.00000000000E+00 0.  1.
         11    1    3    3    0    0  0.85917648787E+01 -0.31373032552E+01  0.75227164941E+00  0.91775273544E+01  0.51100000000E-03 0. -1.
        -11    1    3    3    0    0  0.30914208286E+02  0.21910311150E+02 -0.34280395043E+01  0.38046043996E+02  0.51100000000E-03 0.  1.
         12    1    3    3    0    0 -0.38394863185E+02 -0.18628896002E+02  0.30468412861E+01  0.42784162105E+02  0.00000000000E+00 0. -1.
</event>
<event>
 7    1  0.1756449E-015  0.9000767E+02  0.7816164E-02  0.1186339E+00
        -11   -1    0    0    0    0  0.00000000000E+00  0.00000000000E+00  0.45593999997E+02  0.45594000000E+02  0.51100000000E-03 0.  1.
         11   -1    0    0    0    0 -0.00000000000E+00 -0.00000000000E+00 -0.45593999997E+02  0.45594000000E+02  0.51100000000E-03 0. -1.
    9900012    2    1    2    0    0  0.64185378648E+00 -0.97564345243E+00  0.17124000859E+00  0.90007669720E+02  0.89999930160E+02 0.  0.
        -12    1    1    2    0    0 -0.64185378648E+00  0.97564345243E+00 -0.17124000859E+00  0.11803302801E+01  0.00000000000E+00 0.  1.
         11    1    3    3    0    0 -0.44242933375E+01  0.67941141809E+01 -0.44566006630E+01  0.92517916518E+01  0.51100000000E-03 0. -1.
        -11    1    3    3    0    0  0.48664664873E+01 -0.87280357506E+01  0.42100602088E+02  0.43270333955E+02  0.51100000000E-03 0.  1.
         12    1    3    3    0    0  0.19968063668E+00  0.95827811732E+00 -0.37472761416E+02  0.37485544113E+02  0.00000000000E+00 0. -1.
</event>
<event>
 7    1  0.1756449E-015  0.9000780E+02  0.7816164E-02  0.1186339E+00
        -11   -1    0    0    0    0  0.00000000000E+00  0.00000000000E+00  0.45593999997E+02  0.45594000000E+02  0.51100000000E-03 0. -1.
         11   -1    0    0    0    0 -0.00000000000E+00 -0.00000000000E+00 -0.45593999997E+02  0.45594000000E+02  0.51100000000E-03 0.  1.
    9900012    2    1    2    0    0  0.88292339849E+00 -0.70955408299E+00 -0.33143284933E+00  0.90007801518E+02  0.90000063698E+02 0.  0.
        -12    1    1    2    0    0 -0.88292339849E+00  0.70955408299E+00  0.33143284933E+00  0.11801984824E+01  0.00000000000E+00 0.  1.
         11    1    3    3    0    0 -0.64448228951E+00  0.75990075862E+01 -0.77620706209E+01  0.10881636564E+02  0.51100000000E-03 0. -1.
        -11    1    3    3    0    0  0.30556288979E+02 -0.23673895324E+02 -0.12599487822E+02  0.40655715584E+02  0.51100000000E-03 0.  1.
         12    1    3    3    0    0 -0.29028883291E+02  0.15365333655E+02  0.20030125594E+02  0.38470449370E+02  0.00000000000E+00 0. -1.
</event>
<event>
 7    1  0.1756449E-015  0.9000773E+02  0.7816164E-02  0.1186339E+00
        -11   -1    0    0    0    0  0.00000000000E+00  0.00000000000E+00  0.45593999997E+02  0.45594000000E+02  0.51100000000E-03 0.  1.
         11   -1    0    0    0    0 -0.00000000000E+00 -0.00000000000E+00 -0.45593999997E+02  0.45594000000E+02  0.51100000000E-03 0. -1.
    9900012    2    1    2    0    0  0.48637120057E+00 -0.95286801906E+00 -0.49851761142E+00  0.90007731295E+02  0.89999992548E+02 0.  0.
        -12    1    1    2    0    0 -0.48637120057E+00  0.95286801906E+00  0.49851761142E+00  0.11802687047E+01  0.00000000000E+00 0.  1.
         11    1    3    3    0    0 -0.14979300869E+02 -0.20927710833E+02 -0.30525881852E+02  0.39927158656E+02  0.51100000000E-03 0. -1.
        -11    1    3    3    0    0  0.59223402991E+01  0.50040867584E+01 -0.60744025551E+01  0.98495363122E+01  0.51100000000E-03 0.  1.
        -12    1    3    3    0    0  0.95433317706E+01  0.14970756056E+02  0.36101766796E+02  0.40231036327E+02  0.00000000000E+00 0.  1.
</event>
<event>
 7    1  0.1756449E-015  0.9000770E+02  0.7816164E-02  0.1186339E+00
        -11   -1    0    0    0    0  0.00000000000E+00  0.00000000000E+00  0.45593999997E+02  0.45594000000E+02  0.51100000000E-03 0.  1.
         11   -1    0    0    0    0 -0.00000000000E+00 -0.00000000000E+00 -0.45593999997E+02  0.45594000000E+02  0.51100000000E-03 0. -1.
    9900012    2    1    2    0    0  0.61239546870E+00 -0.51850047312E+00 -0.86558602094E+00  0.90007699144E+02  0.89999959973E+02 0.  0.
        -12    1    1    2    0    0 -0.61239546870E+00  0.51850047312E+00  0.86558602094E+00  0.11803008559E+01  0.00000000000E+00 0.  1.
         11    1    3    3    0    0  0.24137101624E+01 -0.88898790207E+00  0.85133055746E+01  0.88934058889E+01  0.51100000000E-03 0. -1.
        -11    1    3    3    0    0  0.13737470655E+02 -0.36896210909E+02 -0.10413491433E+02  0.40724553816E+02  0.51100000000E-03 0.  1.
         12    1    3    3    0    0 -0.15538785349E+02  0.37266698338E+02  0.10345998377E+01  0.40389739439E+02  0.00000000000E+00 0. -1.
</event>
<event>
 7    1  0.1756449E-015  0.9000775E+02  0.7816164E-02  0.1186339E+00
        -11   -1    0    0    0    0  0.00000000000E+00  0.00000000000E+00  0.45593999997E+02  0.45594000000E+02  0.51100000000E-03 0.  1.
         11   -1    0    0    0    0 -0.00000000000E+00 -0.00000000000E+00 -0.45593999997E+02  0.45594000000E+02  0.51100000000E-03 0. -1.
    9900012    2    1    2    0    0 -0.38234080271E+00 -0.52311448331E+00 -0.98648982688E+00  0.90007747726E+02  0.90000009196E+02 0.  0.
        -12    1    1    2    0    0  0.38234080271E+00  0.52311448331E+00  0.98648982688E+00  0.11802522741E+01  0.00000000000E+00 0.  1.
         11    1    3    3    0    0 -0.21456615541E+02 -0.10774496256E+02  0.21990558127E+02  0.32558574401E+02  0.51100000000E-03 0. -1.
        -11    1    3    3    0    0  0.33348282792E+01 -0.33341678503E+01  0.13707280137E+02  0.14495767794E+02  0.51100000000E-03 0.  1.
        -12    1    3    3    0    0  0.17739446459E+02  0.13585549623E+02 -0.36684328091E+02  0.42953405531E+02  0.00000000000E+00 0.  1.
</event>
<event>
 7    1  0.1756449E-015  0.9000775E+02  0.7816164E-02  0.1186339E+00
        -11   -1    0    0    0    0  0.00000000000E+00  0.00000000000E+00  0.45593999997E+02  0.45594000000E+02  0.51100000000E-03 0. -1.
         11   -1    0    0    0    0 -0.00000000000E+00 -0.00000000000E+00 -0.45593999997E+02  0.45594000000E+02  0.51100000000E-03 0.  1.
    9900012    2    1    2    0    0  0.21085906265E+00  0.28337834799E+00  0.11261592901E+01  0.90007745968E+02  0.90000007415E+02 0.  0.
        -12    1    1    2    0    0 -0.21085906265E+00 -0.28337834799E+00 -0.11261592901E+01  0.11802540316E+01  0.00000000000E+00 0.  1.
         11    1    3    3    0    0 -0.55272016250E+01  0.51652602438E+01 -0.82342259023E+01  0.11181786425E+02  0.51100000000E-03 0. -1.
        -11    1    3    3    0    0  0.18091555903E+02  0.11517954323E+02 -0.28552672535E+02  0.35710261494E+02  0.51100000000E-03 0.  1.
         12    1    3    3    0    0 -0.12353495215E+02 -0.16399836219E+02  0.37913057728E+02  0.43115698050E+02  0.00000000000E+00 0. -1.
</event>
<event>
 7    1  0.1756449E-015  0.9000775E+02  0.7816164E-02  0.1186339E+00
        -11   -1    0    0    0    0  0.00000000000E+00  0.00000000000E+00  0.45593999997E+02  0.45594000000E+02  0.51100000000E-03 0.  1.
         11   -1    0    0    0    0 -0.00000000000E+00 -0.00000000000E+00 -0.45593999997E+02  0.45594000000E+02  0.51100000000E-03 0. -1.
    9900012    2    1    2    0    0  0.33422997206E+00 -0.10952675285E+01 -0.28579111521E+00  0.90007746978E+02  0.90000008439E+02 0.  0.
        -12    1    1    2    0    0 -0.33422997206E+00  0.10952675285E+01  0.28579111521E+00  0.11802530215E+01  0.00000000000E+00 0.  1.
         11    1    3    3    0    0 -0.10023068330E+02 -0.65138860333E+01  0.23792957934E+01  0.12188259053E+02  0.51100000000E-03 0. -1.
        -11    1    3    3    0    0 -0.34316247253E+01  0.28760228828E+02  0.25599059022E+02  0.38655382983E+02  0.51100000000E-03 0.  1.
         12    1    3    3    0    0  0.13788923027E+02 -0.23341610323E+02 -0.28264145931E+02  0.39164104943E+02  0.00000000000E+00 0. -1.
</event>
<event>
 7    1  0.1756449E-015  0.9000855E+02  0.7816164E-02  0.1186337E+00
        -11   -1    0    0    0    0  0.00000000000E+00  0.00000000000E+00  0.45593999997E+02  0.45594000000E+02  0.51100000000E-03 0.  1.
         11   -1    0    0    0    0 -0.00000000000E+00 -0.00000000000E+00 -0.45593999997E+02  0.45594000000E+02  0.51100000000E-03 0. -1.
    9900012    2    1    2    0    0  0.30148143888E+00  0.10640408877E+01 -0.40992199275E+00  0.90008546691E+02  0.90000818703E+02 0.  0.
        -12    1    1    2    0    0 -0.30148143888E+00 -0.10640408877E+01  0.40992199275E+00  0.11794533093E+01  0.00000000000E+00 0.  1.
         11    1    3    3    0    0  0.67682485818E+01  0.71783300535E+00 -0.36172991298E+02  0.36807740664E+02  0.51100000000E-03 0. -1.
        -11    1    3    3    0    0 -0.29124723077E+01  0.12105832041E+02 -0.27709676857E+01  0.12755858518E+02  0.51100000000E-03 0.  1.
        -12    1    3    3    0    0 -0.35542948352E+01 -0.11759624159E+02  0.38534036991E+02  0.40444947508E+02  0.00000000000E+00 0.  1.
</event>
<event>
 7    1  0.1756449E-015  0.9000767E+02  0.7816164E-02  0.1186339E+00
        -11   -1    0    0    0    0  0.00000000000E+00  0.00000000000E+00  0.45593999997E+02  0.45594000000E+02  0.51100000000E-03 0. -1.
         11   -1    0    0    0    0 -0.00000000000E+00 -0.00000000000E+00 -0.45593999997E+02  0.45594000000E+02  0.51100000000E-03 0.  1.
    9900012    2    1    2    0    0  0.10666982646E+01  0.49823223686E+00 -0.84261077500E-01  0.90007669335E+02  0.89999929770E+02 0.  0.
        -12    1    1    2    0    0 -0.10666982646E+01 -0.49823223686E+00  0.84261077500E-01  0.11803306650E+01  0.00000000000E+00 0.  1.
         11    1    3    3    0    0  0.31934882382E+01 -0.10780297477E+02 -0.13881473972E+01  0.11328730479E+02  0.51100000000E-03 0. -1.
        -11    1    3    3    0    0 -0.34895089181E+01  0.32740148486E+02 -0.27384529729E+02  0.42825301681E+02  0.51100000000E-03 0.  1.
         12    1    3    3    0    0  0.13627189445E+01 -0.21461618772E+02  0.28688416049E+02  0.35853637174E+02  0.00000000000E+00 0. -1.
</event>
<event>
 7    1  0.1756449E-015  0.9000779E+02  0.7816164E-02  0.1186339E+00
        -11   -1    0    0    0    0  0.00000000000E+00  0.00000000000E+00  0.45593999997E+02  0.45594000000E+02  0.51100000000E-03 0. -1.
         11   -1    0    0    0    0 -0.00000000000E+00 -0.00000000000E+00 -0.45593999997E+02  0.45594000000E+02  0.51100000000E-03 0.  1.
    9900012    2    1    2    0    0  0.31632807834E+00 -0.65926162121E+00  0.92639650403E+00  0.90007788230E+02  0.90000050235E+02 0.  0.
        -12    1    1    2    0    0 -0.31632807834E+00  0.65926162121E+00 -0.92639650403E+00  0.11802117696E+01  0.00000000000E+00 0.  1.
         11    1    3    3    0    0 -0.13519624290E+01 -0.81594079556E+01 -0.10311038846E+02  0.13218217086E+02  0.51100000000E-03 0. -1.
        -11    1    3    3    0    0 -0.22159834141E+02 -0.25915301607E+02  0.10726844642E+02  0.35745297631E+02  0.51100000000E-03 0.  1.
         12    1    3    3    0    0  0.23828124648E+02  0.33415447941E+02  0.51059070740E+00  0.41044273513E+02  0.00000000000E+00 0. -1.
</event>
<event>
 7    1  0.1756449E-015  0.9000812E+02  0.7816164E-02  0.1186338E+00
        -11   -1    0    0    0    0  0.00000000000E+00  0.00000000000E+00  0.45593999997E+02  0.45594000000E+02  0.51100000000E-03 0.  1.
         11   -1    0    0    0    0 -0.00000000000E+00 -0.00000000000E+00 -0.45593999997E+02  0.45594000000E+02  0.51100000000E-03 0. -1.
    9900012    2    1    2    0    0 -0.80250188751E-01 -0.11683184159E+01  0.14391414041E+00  0.90008118949E+02  0.90000385319E+02 0.  0.
        -12    1    1    2    0    0  0.80250188751E-01  0.11683184159E+01 -0.14391414041E+00  0.11798810506E+01  0.00000000000E+00 0.  1.
         11    1    3    3    0    0  0.95637264264E+01 -0.15180350690E+02  0.13871031524E+02  0.22678479359E+02  0.51100000000E-03 0. -1.
        -11    1    3    3    0    0 -0.13346413835E+02 -0.20577970338E+01  0.23224512581E+02  0.26865205671E+02  0.51100000000E-03 0.  1.
         12    1    3    3    0    0  0.37024372198E+01  0.16069829308E+02 -0.36951629964E+02  0.40464433919E+02  0.00000000000E+00 0. -1.
</event>
<event>
 7    1  0.1756449E-015  0.9000768E+02  0.7816164E-02  0.1186339E+00
        -11   -1    0    0    0    0  0.00000000000E+00  0.00000000000E+00  0.45593999997E+02  0.45594000000E+02  0.51100000000E-03 0.  1.
         11   -1    0    0    0    0 -0.00000000000E+00 -0.00000000000E+00 -0.45593999997E+02  0.45594000000E+02  0.51100000000E-03 0. -1.
    9900012    2    1    2    0    0 -0.42871098741E+00 -0.10905275222E+01 -0.14182311547E+00  0.90007679203E+02  0.89999939769E+02 0.  0.
        -12    1    1    2    0    0  0.42871098741E+00  0.10905275222E+01  0.14182311547E+00  0.11803207968E+01  0.00000000000E+00 0.  1.
         11    1    3    3    0    0 -0.33468415215E+02  0.12713983903E+02  0.33374328072E+01  0.35957178166E+02  0.51100000000E-03 0. -1.
        -11    1    3    3    0    0 -0.50913099903E+01  0.16792869068E+00  0.10032177957E+02  0.11251410235E+02  0.51100000000E-03 0.  1.
        -12    1    3    3    0    0  0.38131014217E+02 -0.13972440115E+02 -0.13511433879E+02  0.42799090802E+02  0.00000000000E+00 0.  1.
</event>
<event>
 7    1  0.1756449E-015  0.9000778E+02  0.7816164E-02  0.1186339E+00
        -11   -1    0    0    0    0  0.00000000000E+00  0.00000000000E+00  0.45593999997E+02  0.45594000000E+02  0.51100000000E-03 0.  1.
         11   -1    0    0    0    0 -0.00000000000E+00 -0.00000000000E+00 -0.45593999997E+02  0.45594000000E+02  0.51100000000E-03 0. -1.
    9900012    2    1    2    0    0 -0.31364302928E+00  0.67244789021E+00 -0.91780828234E+00  0.90007775378E+02  0.90000037213E+02 0.  0.
        -12    1    1    2    0    0  0.31364302928E+00 -0.67244789021E+00  0.91780828234E+00  0.11802246218E+01  0.00000000000E+00 0.  1.
         11    1    3    3    0    0 -0.12547692414E+02  0.38474572819E+02 -0.78045447275E+01  0.41214660707E+02  0.51100000000E-03 0. -1.
        -11    1    3    3    0    0 -0.75355105124E+01 -0.49658165355E+01  0.52266925290E+01  0.10428881417E+02  0.51100000000E-03 0.  1.
        -12    1    3    3    0    0  0.19769559898E+02 -0.32836308393E+02  0.16600439161E+01  0.38364233255E+02  0.00000000000E+00 0.  1.
</event>
<event>
 7    1  0.1756449E-015  0.9000760E+02  0.7816164E-02  0.1186339E+00
        -11   -1    0    0    0    0  0.00000000000E+00  0.00000000000E+00  0.45593999997E+02  0.45594000000E+02  0.51100000000E-03 0.  1.
         11   -1    0    0    0    0 -0.00000000000E+00 -0.00000000000E+00 -0.45593999997E+02  0.45594000000E+02  0.51100000000E-03 0. -1.
    9900012    2    1    2    0    0  0.65620820339E-01 -0.71475118154E+00 -0.93711276682E+00  0.90007595120E+02  0.89999854575E+02 0.  0.
        -12    1    1    2    0    0 -0.65620820339E-01  0.71475118154E+00  0.93711276682E+00  0.11804048802E+01  0.00000000000E+00 0.  1.
         11    1    3    3    0    0 -0.89732628383E+01 -0.46356108300E+01 -0.40150300324E+02  0.41401146725E+02  0.51100000000E-03 0. -1.
        -11    1    3    3    0    0 -0.82317230534E+01 -0.22837199545E+00  0.39733593553E+01  0.91433584105E+01  0.51100000000E-03 0.  1.
        -12    1    3    3    0    0  0.17270606712E+02  0.41492316439E+01  0.35239828202E+02  0.39463089985E+02  0.00000000000E+00 0.  1.
</event>
<event>
 7    1  0.1756449E-015  0.9000782E+02  0.7816164E-02  0.1186339E+00
        -11   -1    0    0    0    0  0.00000000000E+00  0.00000000000E+00  0.45593999997E+02  0.45594000000E+02  0.51100000000E-03 0. -1.
         11   -1    0    0    0    0 -0.00000000000E+00 -0.00000000000E+00 -0.45593999997E+02  0.45594000000E+02  0.51100000000E-03 0.  1.
    9900012    2    1    2    0    0  0.11493877077E+01  0.26076984619E+00  0.61181551723E-01  0.90007815185E+02  0.90000077545E+02 0.  0.
        -12    1    1    2    0    0 -0.11493877077E+01 -0.26076984619E+00 -0.61181551723E-01  0.11801848150E+01  0.00000000000E+00 0.  1.
         11    1    3    3    0    0 -0.33251055318E+02 -0.18029452986E+02 -0.43580478372E+00  0.37827024477E+02  0.51100000000E-03 0. -1.
        -11    1    3    3    0    0 -0.44743468476E+01  0.10999341794E+02 -0.36210961499E+01  0.12414412479E+02  0.51100000000E-03 0.  1.
        -12    1    3    3    0    0  0.38874789874E+02  0.72908810377E+01  0.41180824854E+01  0.39766378228E+02  0.00000000000E+00 0.  1.
</event>
<event>
 7    1  0.1756449E-015  0.9000771E+02  0.7816164E-02  0.1186339E+00
        -11   -1    0    0    0    0  0.00000000000E+00  0.00000000000E+00  0.45593999997E+02  0.45594000000E+02  0.51100000000E-03 0.  1.
         11   -1    0    0    0    0 -0.00000000000E+00 -0.00000000000E+00 -0.45593999997E+02  0.45594000000E+02  0.51100000000E-03 0. -1.
    9900012    2    1    2    0    0  0.56568031296E+00  0.10095827034E+01  0.23201286512E+00  0.90007711298E+02  0.89999972287E+02 0.  0.
        -12    1    1    2    0    0 -0.56568031296E+00 -0.10095827034E+01 -0.23201286512E+00  0.11802887024E+01  0.00000000000E+00 0.  1.
         11    1    3    3    0    0  0.16583023904E+02  0.28542789352E+02 -0.21064441454E+02  0.39158628677E+02  0.51100000000E-03 0. -1.
        -11    1    3    3    0    0 -0.30970704562E+01  0.23718700346E+01 -0.67936327543E+01  0.78339682877E+01  0.51100000000E-03 0.  1.
        -12    1    3    3    0    0 -0.12920273135E+02 -0.29905076683E+02  0.28090087073E+02  0.43015114333E+02  0.00000000000E+00 0.  1.
</event>
<event>
 7    1  0.1756449E-015  0.9000776E+02  0.7816164E-02  0.1186339E+00
        -11   -1    0    0    0    0  0.00000000000E+00  0.00000000000E+00  0.45593999997E+02  0.45594000000E+02  0.51100000000E-03 0.  1.
         11   -1    0    0    0    0 -0.00000000000E+00 -0.00000000000E+00 -0.45593999997E+02  0.45594000000E+02  0.51100000000E-03 0. -1.
    9900012    2    1    2    0    0 -0.88223750780E+00  0.76614868415E+00  0.16622034597E+00  0.90007764418E+02  0.90000026108E+02 0.  0.
        -12    1    1    2    0    0  0.88223750780E+00 -0.76614868415E+00 -0.16622034597E+00  0.11802355823E+01  0.00000000000E+00 0.  1.
         11    1    3    3    0    0  0.22317079103E+02  0.27592928716E+02  0.10866737002E+02  0.37114790962E+02  0.51100000000E-03 0. -1.
        -11    1    3    3    0    0 -0.11970897939E+01  0.87314874330E+01  0.22915147209E+01  0.91062032013E+01  0.51100000000E-03 0.  1.
        -12    1    3    3    0    0 -0.22002226817E+02 -0.35558267465E+02 -0.12992031377E+02  0.43786770254E+02  0.00000000000E+00 0.  1.
</event>
<event>
 7    1  0.1756449E-015  0.9000760E+02  0.7816164E-02  0.1186339E+00
        -11   -1    0    0    0    0  0.00000000000E+00  0.00000000000E+00  0.45593999997E+02  0.45594000000E+02  0.51100000000E-03 0.  1.
         11   -1    0    0    0    0 -0.00000000000E+00 -0.00000000000E+00 -0.45593999997E+02  0.45594000000E+02  0.51100000000E-03 0. -1.
    9900012    2    1    2    0    0  0.24226749182E+00  0.68917511672E+00 -0.92719582516E+00  0.90007598383E+02  0.89999857882E+02 0.  0.
        -12    1    1    2    0    0 -0.24226749182E+00 -0.68917511672E+00  0.92719582516E+00  0.11804016169E+01  0.00000000000E+00 0.  1.
         11    1    3    3    0    0 -0.11294464458E+02 -0.25246194106E+01 -0.54547717006E+00  0.11586033669E+02  0.51100000000E-03 0. -1.
        -11    1    3    3    0    0  0.12833063153E+02  0.24810998321E+02  0.30085348015E+02  0.41053639461E+02  0.51100000000E-03 0.  1.
         12    1    3    3    0    0 -0.12963312028E+01 -0.21597203794E+02 -0.30467066670E+02  0.37367925253E+02  0.00000000000E+00 0. -1.
</event>
<event>
 7    1  0.1756449E-015  0.9000776E+02  0.7816164E-02  0.1186339E+00
        -11   -1    0    0    0    0  0.00000000000E+00  0.00000000000E+00  0.45593999997E+02  0.45594000000E+02  0.51100000000E-03 0.  1.
         11   -1    0    0    0    0 -0.00000000000E+00 -0.00000000000E+00 -0.45593999997E+02  0.45594000000E+02  0.51100000000E-03 0. -1.
    9900012    2    1    2    0    0 -0.59560870510E+00 -0.12073794639E+00 -0.10117448078E+01  0.90007764880E+02  0.90000026577E+02 0.  0.
        -12    1    1    2    0    0  0.59560870510E+00  0.12073794639E+00  0.10117448078E+01  0.11802351195E+01  0.00000000000E+00 0.  1.
         11    1    3    3    0    0  0.32306021071E+01 -0.24338863597E+01  0.19026797032E+02  0.19451981862E+02  0.51100000000E-03 0. -1.
        -11    1    3    3    0    0  0.29770206586E+02 -0.93978426191E+01 -0.38085946304E+01  0.31449801898E+02  0.51100000000E-03 0.  1.
         12    1    3    3    0    0 -0.33596417399E+02  0.11710991032E+02 -0.16229947210E+02  0.39105981121E+02  0.00000000000E+00 0. -1.
</event>
<event>
 7    1  0.1756449E-015  0.9000790E+02  0.7816164E-02  0.1186339E+00
        -11   -1    0    0    0    0  0.00000000000E+00  0.00000000000E+00  0.45593999997E+02  0.45594000000E+02  0.51100000000E-03 0.  1.
         11   -1    0    0    0    0 -0.00000000000E+00 -0.00000000000E+00 -0.45593999997E+02  0.45594000000E+02  0.51100000000E-03 0. -1.
    9900012    2    1    2    0    0 -0.15116948785E-01  0.85466971670E+00 -0.81359887785E+00  0.90007901707E+02  0.90000165210E+02 0.  0.
        -12    1    1    2    0    0  0.15116948785E-01 -0.85466971670E+00  0.81359887785E+00  0.11800982929E+01  0.00000000000E+00 0.  1.
         11    1    3    3    0    0 -0.78093347657E+01  0.44839824402E+01  0.23057461859E+01  0.92956050767E+01  0.51100000000E-03 0. -1.
        -11    1    3    3    0    0 -0.32073281563E+02 -0.18206333175E+02 -0.87151670004E+01  0.37896175190E+02  0.51100000000E-03 0.  1.
         12    1    3    3    0    0  0.39867499380E+02  0.14577020451E+02  0.55958219367E+01  0.42816121441E+02  0.00000000000E+00 0. -1.
</event>
<event>
 7    1  0.1756449E-015  0.9000777E+02  0.7816164E-02  0.1186339E+00
        -11   -1    0    0    0    0  0.00000000000E+00  0.00000000000E+00  0.45593999997E+02  0.45594000000E+02  0.51100000000E-03 0.  1.
         11   -1    0    0    0    0 -0.00000000000E+00 -0.00000000000E+00 -0.45593999997E+02  0.45594000000E+02  0.51100000000E-03 0. -1.
    9900012    2    1    2    0    0  0.47885783495E+00 -0.31222259369E+00 -0.10325467752E+01  0.90007770947E+02  0.90000032724E+02 0.  0.
        -12    1    1    2    0    0 -0.47885783495E+00  0.31222259369E+00  0.10325467752E+01  0.11802290528E+01  0.00000000000E+00 0.  1.
         11    1    3    3    0    0 -0.16089286591E+02 -0.17847016983E+02 -0.33058223193E+02  0.40868414199E+02  0.51100000000E-03 0. -1.
        -11    1    3    3    0    0  0.83119983767E+01 -0.44967635014E+01  0.62529001116E-01  0.94506142202E+01  0.51100000000E-03 0.  1.
        -12    1    3    3    0    0  0.82561460493E+01  0.22031557891E+02  0.31963147416E+02  0.39688742528E+02  0.00000000000E+00 0.  1.
</event>
<event>
 7    1  0.1756449E-015  0.9000746E+02  0.7816164E-02  0.1186340E+00
        -11   -1    0    0    0    0  0.00000000000E+00  0.00000000000E+00  0.45593999997E+02  0.45594000000E+02  0.51100000000E-03 0.  1.
         11   -1    0    0    0    0 -0.00000000000E+00 -0.00000000000E+00 -0.45593999997E+02  0.45594000000E+02  0.51100000000E-03 0. -1.
    9900012    2    1    2    0    0 -0.56795181516E+00 -0.12365647373E+00 -0.10275230595E+01  0.90007464602E+02  0.89999722334E+02 0.  0.
        -12    1    1    2    0    0  0.56795181516E+00  0.12365647373E+00  0.10275230595E+01  0.11805353979E+01  0.00000000000E+00 0.  1.
         11    1    3    3    0    0  0.85909098359E+01  0.35616532217E+02 -0.18319920466E+02  0.40962917194E+02  0.51100000000E-03 0. -1.
        -11    1    3    3    0    0  0.59997524621E+01 -0.60261245495E+01 -0.40759275224E+01  0.94299730711E+01  0.51100000000E-03 0.  1.
        -12    1    3    3    0    0 -0.15158614113E+02 -0.29714064141E+02  0.21368324929E+02  0.39614574337E+02  0.00000000000E+00 0.  1.
</event>
<event>
 7    1  0.1756449E-015  0.9000776E+02  0.7816164E-02  0.1186339E+00
        -11   -1    0    0    0    0  0.00000000000E+00  0.00000000000E+00  0.45593999997E+02  0.45594000000E+02  0.51100000000E-03 0.  1.
         11   -1    0    0    0    0 -0.00000000000E+00 -0.00000000000E+00 -0.45593999997E+02  0.45594000000E+02  0.51100000000E-03 0. -1.
    9900012    2    1    2    0    0  0.78263510222E+00  0.84291959175E+00  0.26444502385E+00  0.90007761756E+02  0.90000023411E+02 0.  0.
        -12    1    1    2    0    0 -0.78263510222E+00 -0.84291959175E+00 -0.26444502385E+00  0.11802382438E+01  0.00000000000E+00 0.  1.
         11    1    3    3    0    0  0.44472775294E+01 -0.55501414549E+01 -0.54946815780E+01  0.89874286366E+01  0.51100000000E-03 0. -1.
        -11    1    3    3    0    0  0.21185881324E+02 -0.22299812492E+02  0.23897075642E+02  0.38951167238E+02  0.51100000000E-03 0.  1.
         12    1    3    3    0    0 -0.24850523751E+02  0.28692873539E+02 -0.18137949041E+02  0.42069165882E+02  0.00000000000E+00 0. -1.
</event>
<event>
 7    1  0.1756449E-015  0.9000774E+02  0.7816164E-02  0.1186339E+00
        -11   -1    0    0    0    0  0.00000000000E+00  0.00000000000E+00  0.45593999997E+02  0.45594000000E+02  0.51100000000E-03 0. -1.
         11   -1    0    0    0    0 -0.00000000000E+00 -0.00000000000E+00 -0.45593999997E+02  0.45594000000E+02  0.51100000000E-03 0.  1.
    9900012    2    1    2    0    0 -0.11245823535E+01 -0.27404687630E+00  0.23071802984E+00  0.90007738178E+02  0.89999999521E+02 0.  0.
        -12    1    1    2    0    0  0.11245823535E+01  0.27404687630E+00 -0.23071802984E+00  0.11802618225E+01  0.00000000000E+00 0.  1.
         11    1    3    3    0    0  0.29519062185E+01 -0.61509866875E+01  0.73426321190E+00  0.68620354326E+01  0.51100000000E-03 0. -1.
        -11    1    3    3    0    0  0.20646008598E+02 -0.16778800779E+02  0.28371320386E+02  0.38893671045E+02  0.51100000000E-03 0.  1.
         12    1    3    3    0    0 -0.24722497170E+02  0.22655740590E+02 -0.28874865568E+02  0.44252031700E+02  0.00000000000E+00 0. -1.
</event>
<event>
 7    1  0.1756449E-015  0.9000776E+02  0.7816164E-02  0.1186339E+00
        -11   -1    0    0    0    0  0.00000000000E+00  0.00000000000E+00  0.45593999997E+02  0.45594000000E+02  0.51100000000E-03 0.  1.
         11   -1    0    0    0    0 -0.00000000000E+00 -0.00000000000E+00 -0.45593999997E+02  0.45594000000E+02  0.51100000000E-03 0. -1.
    9900012    2    1    2    0    0 -0.56865425986E+00 -0.59470495125E+00 -0.84611874842E+00  0.90007763336E+02  0.90000025012E+02 0.  0.
        -12    1    1    2    0    0  0.56865425986E+00  0.59470495125E+00  0.84611874842E+00  0.11802366639E+01  0.00000000000E+00 0.  1.
         11    1    3    3    0    0  0.16217008796E+02 -0.36281075004E+02 -0.76933286154E+01  0.40478328562E+02  0.51100000000E-03 0. -1.
        -11    1    3    3    0    0 -0.78174384957E+00 -0.14168814418E+01  0.89229708870E+01  0.90685217196E+01  0.51100000000E-03 0.  1.
        -12    1    3    3    0    0 -0.16003919206E+02  0.37103251494E+02 -0.20757610201E+01  0.40460913055E+02  0.00000000000E+00 0.  1.
</event>
<event>
 7    1  0.1756449E-015  0.9000774E+02  0.7816164E-02  0.1186339E+00
        -11   -1    0    0    0    0  0.00000000000E+00  0.00000000000E+00  0.45593999997E+02  0.45594000000E+02  0.51100000000E-03 0.  1.
         11   -1    0    0    0    0 -0.00000000000E+00 -0.00000000000E+00 -0.45593999997E+02  0.45594000000E+02  0.51100000000E-03 0. -1.
    9900012    2    1    2    0    0  0.44970078481E+00 -0.32114035633E+00 -0.10429107386E+01  0.90007735312E+02  0.89999996618E+02 0.  0.
        -12    1    1    2    0    0 -0.44970078481E+00  0.32114035633E+00  0.10429107386E+01  0.11802646877E+01  0.00000000000E+00 0.  1.
         11    1    3    3    0    0  0.18728576657E+01 -0.92854265139E+01  0.37403807334E+01  0.10184163671E+02  0.51100000000E-03 0. -1.
        -11    1    3    3    0    0  0.28897702270E+02  0.30046139492E+02  0.39534087430E+01  0.41874540425E+02  0.51100000000E-03 0.  1.
         12    1    3    3    0    0 -0.30320859151E+02 -0.21081853334E+02 -0.87367002150E+01  0.37949031217E+02  0.00000000000E+00 0. -1.
</event>
<event>
 7    1  0.1756449E-015  0.9000772E+02  0.7816164E-02  0.1186339E+00
        -11   -1    0    0    0    0  0.00000000000E+00  0.00000000000E+00  0.45593999997E+02  0.45594000000E+02  0.51100000000E-03 0.  1.
         11   -1    0    0    0    0 -0.00000000000E+00 -0.00000000000E+00 -0.45593999997E+02  0.45594000000E+02  0.51100000000E-03 0. -1.
    9900012    2    1    2    0    0 -0.89804333873E+00  0.29410917398E+00  0.70716539435E+00  0.90007718280E+02  0.89999979361E+02 0.  0.
        -12    1    1    2    0    0  0.89804333873E+00 -0.29410917398E+00 -0.70716539435E+00  0.11802817204E+01  0.00000000000E+00 0.  1.
         11    1    3    3    0    0 -0.36167109572E+02 -0.12409027069E+01  0.57521867041E+01  0.36642697860E+02  0.51100000000E-03 0. -1.
        -11    1    3    3    0    0 -0.45651993608E+01  0.55242642133E+00 -0.12058994798E+02  0.12906028667E+02  0.51100000000E-03 0.  1.
        -12    1    3    3    0    0  0.39834265594E+02  0.98258545951E+00  0.70139734885E+01  0.40458991753E+02  0.00000000000E+00 0.  1.
</event>
<event>
 7    1  0.1756449E-015  0.9000777E+02  0.7816164E-02  0.1186339E+00
        -11   -1    0    0    0    0  0.00000000000E+00  0.00000000000E+00  0.45593999997E+02  0.45594000000E+02  0.51100000000E-03 0. -1.
         11   -1    0    0    0    0 -0.00000000000E+00 -0.00000000000E+00 -0.45593999997E+02  0.45594000000E+02  0.51100000000E-03 0.  1.
    9900012    2    1    2    0    0 -0.34794337854E+00 -0.23507837944E+00  0.11030002409E+01  0.90007772916E+02  0.90000034718E+02 0.  0.
        -12    1    1    2    0    0  0.34794337854E+00  0.23507837944E+00 -0.11030002409E+01  0.11802270844E+01  0.00000000000E+00 0.  1.
         11    1    3    3    0    0  0.14957009510E+02  0.76338326289E+01  0.33213071420E+02  0.37216873156E+02  0.51100000000E-03 0. -1.
        -11    1    3    3    0    0 -0.17935355099E+01 -0.29764588333E+01  0.87835376812E+01  0.94459838698E+01  0.51100000000E-03 0.  1.
        -12    1    3    3    0    0 -0.13511417379E+02 -0.48924521750E+01 -0.40893608860E+02  0.43344915890E+02  0.00000000000E+00 0.  1.
</event>
<event>
 7    1  0.1756449E-015  0.9000772E+02  0.7816164E-02  0.1186339E+00
        -11   -1    0    0    0    0  0.00000000000E+00  0.00000000000E+00  0.45593999997E+02  0.45594000000E+02  0.51100000000E-03 0.  1.
         11   -1    0    0    0    0 -0.00000000000E+00 -0.00000000000E+00 -0.45593999997E+02  0.45594000000E+02  0.51100000000E-03 0. -1.
    9900012    2    1    2    0    0  0.36710815485E+00  0.11137516888E+01 -0.13361856626E+00  0.90007718193E+02  0.89999979274E+02 0.  0.
        -12    1    1    2    0    0 -0.36710815485E+00 -0.11137516888E+01  0.13361856626E+00  0.11802818066E+01  0.00000000000E+00 0.  1.
         11    1    3    3    0    0 -0.13962663590E+02  0.28478934085E+02 -0.17957767458E+02  0.36448416611E+02  0.51100000000E-03 0. -1.
        -11    1    3    3    0    0 -0.16590755295E+01  0.94924473005E+01  0.73841297134E-01  0.96366249363E+01  0.51100000000E-03 0.  1.
        -12    1    3    3    0    0  0.15988847274E+02 -0.36857629697E+02  0.17750307595E+02  0.43922676646E+02  0.00000000000E+00 0.  1.
</event>
<event>
 7    1  0.1877728E-015  0.9000776E+02  0.7816164E-02  0.1186339E+00
        -11   -1    0    0    0    0  0.00000000000E+00  0.00000000000E+00  0.45593999997E+02  0.45594000000E+02  0.51100000000E-03 0. -1.
         11   -1    0    0    0    0 -0.00000000000E+00 -0.00000000000E+00 -0.45593999997E+02  0.45594000000E+02  0.51100000000E-03 0.  1.
    9900012    2    1    2    0    0  0.11482401053E+00 -0.44859488940E+00  0.10856071812E+01  0.90007760668E+02  0.90000022309E+02 0.  0.
        -12    1    1    2    0    0 -0.11482401053E+00  0.44859488940E+00 -0.10856071812E+01  0.11802393317E+01  0.00000000000E+00 0.  1.
         11    1    3    3    0    0  0.86992718472E+01 -0.24425595652E+01 -0.24615100996E+01  0.93649591635E+01  0.51100000000E-03 0. -1.
        -11    1    3    3    0    0  0.12804762845E+02  0.21133750796E+01 -0.34574748984E+02  0.36930225741E+02  0.51100000000E-03 0.  1.
         12    1    3    3    0    0 -0.21389210681E+02 -0.11941040374E+00  0.38121866265E+02  0.43712575764E+02  0.00000000000E+00 0. -1.
</event>
<event>
 7    1  0.1756449E-015  0.9000774E+02  0.7816164E-02  0.1186339E+00
        -11   -1    0    0    0    0  0.00000000000E+00  0.00000000000E+00  0.45593999997E+02  0.45594000000E+02  0.51100000000E-03 0. -1.
         11   -1    0    0    0    0 -0.00000000000E+00 -0.00000000000E+00 -0.45593999997E+02  0.45594000000E+02  0.51100000000E-03 0.  1.
    9900012    2    1    2    0    0 -0.11304366242E+00  0.11599774497E+01 -0.18627036433E+00  0.90007735961E+02  0.89999997276E+02 0.  0.
        -12    1    1    2    0    0  0.11304366242E+00 -0.11599774497E+01  0.18627036433E+00  0.11802640392E+01  0.00000000000E+00 0.  1.
         11    1    3    3    0    0 -0.39120746324E+02 -0.82675884370E+01  0.12546866732E+02  0.41907155434E+02  0.51100000000E-03 0. -1.
        -11    1    3    3    0    0  0.37580369634E+01 -0.48857249077E+01 -0.74836890552E+01  0.96952953450E+01  0.51100000000E-03 0.  1.
        -12    1    3    3    0    0  0.35249665698E+02  0.14313290794E+02 -0.52494480411E+01  0.38405285182E+02  0.00000000000E+00 0.  1.
</event>
<event>
 7    1  0.1756449E-015  0.9000778E+02  0.7816164E-02  0.1186339E+00
        -11   -1    0    0    0    0  0.00000000000E+00  0.00000000000E+00  0.45593999997E+02  0.45594000000E+02  0.51100000000E-03 0. -1.
         11   -1    0    0    0    0 -0.00000000000E+00 -0.00000000000E+00 -0.45593999997E+02  0.45594000000E+02  0.51100000000E-03 0.  1.
    9900012    2    1    2    0    0  0.99270691759E+00 -0.63553798864E+00  0.59493142512E-01  0.90007781803E+02  0.90000043722E+02 0.  0.
        -12    1    1    2    0    0 -0.99270691759E+00  0.63553798864E+00 -0.59493142512E-01  0.11802181973E+01  0.00000000000E+00 0.  1.
         11    1    3    3    0    0  0.67801178135E+01 -0.60177454289E+01  0.24278678797E+01  0.93849773743E+01  0.51100000000E-03 0. -1.
        -11    1    3    3    0    0  0.10198520627E+02 -0.33348467024E+02 -0.13295096748E+02  0.37321437186E+02  0.51100000000E-03 0.  1.
         12    1    3    3    0    0 -0.15985931523E+02  0.38730674464E+02  0.10926722011E+02  0.43301367242E+02  0.00000000000E+00 0. -1.
</event>
<event>
 7    1  0.4277614E-015  0.9000769E+02  0.7816164E-02  0.1186339E+00
        -11   -1    0    0    0    0  0.00000000000E+00  0.00000000000E+00  0.45593999997E+02  0.45594000000E+02  0.51100000000E-03 0. -1.
         11   -1    0    0    0    0 -0.00000000000E+00 -0.00000000000E+00 -0.45593999997E+02  0.45594000000E+02  0.51100000000E-03 0.  1.
    9900012    2    1    2    0    0 -0.44249879558E+00  0.30739494265E+00  0.10501579514E+01  0.90007691329E+02  0.89999952055E+02 0.  0.
        -12    1    1    2    0    0  0.44249879558E+00 -0.30739494265E+00 -0.10501579514E+01  0.11803086706E+01  0.00000000000E+00 0.  1.
         11    1    3    3    0    0 -0.50979976176E+01  0.44608103780E+01  0.67405878143E+01  0.95563556485E+01  0.51100000000E-03 0. -1.
        -11    1    3    3    0    0 -0.10781355668E+02  0.67056598563E+01 -0.39631507568E+02  0.41615620823E+02  0.51100000000E-03 0.  1.
         12    1    3    3    0    0  0.15436854490E+02 -0.10859075292E+02  0.33941077705E+02  0.38835714858E+02  0.00000000000E+00 0. -1.
</event>
<event>
 7    1  0.1756449E-015  0.9000783E+02  0.7816164E-02  0.1186339E+00
        -11   -1    0    0    0    0  0.00000000000E+00  0.00000000000E+00  0.45593999997E+02  0.45594000000E+02  0.51100000000E-03 0. -1.
         11   -1    0    0    0    0 -0.00000000000E+00 -0.00000000000E+00 -0.45593999997E+02  0.45594000000E+02  0.51100000000E-03 0.  1.
    9900012    2    1    2    0    0  0.46238671084E+00  0.87255376323E+00  0.64625341077E+00  0.90007832634E+02  0.90000095225E+02 0.  0.
        -12    1    1    2    0    0 -0.46238671084E+00 -0.87255376323E+00 -0.64625341077E+00  0.11801673657E+01  0.00000000000E+00 0.  1.
         11    1    3    3    0    0 -0.33905090308E+02 -0.12490025439E+02  0.83993604385E+01  0.37095891151E+02  0.51100000000E-03 0. -1.
        -11    1    3    3    0    0 -0.29008863549E+01 -0.80620515458E+01  0.20734342374E+01  0.88153812492E+01  0.51100000000E-03 0.  1.
        -12    1    3    3    0    0  0.37268363374E+02  0.21424630748E+02 -0.98265412651E+01  0.44096560234E+02  0.00000000000E+00 0.  1.
</event>
<event>
 7    1  0.1756449E-015  0.9000778E+02  0.7816164E-02  0.1186339E+00
        -11   -1    0    0    0    0  0.00000000000E+00  0.00000000000E+00  0.45593999997E+02  0.45594000000E+02  0.51100000000E-03 0. -1.
         11   -1    0    0    0    0 -0.00000000000E+00 -0.00000000000E+00 -0.45593999997E+02  0.45594000000E+02  0.51100000000E-03 0.  1.
    9900012    2    1    2    0    0  0.48928087391E-01 -0.11150411813E+01  0.38369263602E+00  0.90007775092E+02  0.90000036924E+02 0.  0.
        -12    1    1    2    0    0 -0.48928087391E-01  0.11150411813E+01 -0.38369263602E+00  0.11802249076E+01  0.00000000000E+00 0.  1.
         11    1    3    3    0    0 -0.93066761210E+01  0.17179067315E+01  0.41386015380E+00  0.94729459223E+01  0.51100000000E-03 0. -1.
        -11    1    3    3    0    0  0.29934273730E+02  0.15753994231E+02 -0.25905933332E+02  0.42607117481E+02  0.51100000000E-03 0.  1.
         12    1    3    3    0    0 -0.20578669521E+02 -0.18586942144E+02  0.25875765814E+02  0.37927711689E+02  0.00000000000E+00 0. -1.
</event>
<event>
 7    1  0.1756449E-015  0.9000776E+02  0.7816164E-02  0.1186339E+00
        -11   -1    0    0    0    0  0.00000000000E+00  0.00000000000E+00  0.45593999997E+02  0.45594000000E+02  0.51100000000E-03 0.  1.
         11   -1    0    0    0    0 -0.00000000000E+00 -0.00000000000E+00 -0.45593999997E+02  0.45594000000E+02  0.51100000000E-03 0. -1.
    9900012    2    1    2    0    0  0.54110669385E+00  0.62929794897E+00 -0.83914075260E+00  0.90007758683E+02  0.90000020298E+02 0.  0.
        -12    1    1    2    0    0 -0.54110669385E+00 -0.62929794897E+00  0.83914075260E+00  0.11802413166E+01  0.00000000000E+00 0.  1.
         11    1    3    3    0    0 -0.51309161068E+01  0.29528919300E+01  0.73127510897E+01  0.94086236829E+01  0.51100000000E-03 0. -1.
        -11    1    3    3    0    0  0.15703362120E+02  0.17272998652E+02  0.29113442260E+02  0.37316813701E+02  0.51100000000E-03 0.  1.
         12    1    3    3    0    0 -0.10031339319E+02 -0.19596592633E+02 -0.37265334102E+02  0.43282321300E+02  0.00000000000E+00 0. -1.
</event>
<event>
 7    1  0.1756449E-015  0.9000769E+02  0.7816164E-02  0.1186339E+00
        -11   -1    0    0    0    0  0.00000000000E+00  0.00000000000E+00  0.45593999997E+02  0.45594000000E+02  0.51100000000E-03 0. -1.
         11   -1    0    0    0    0 -0.00000000000E+00 -0.00000000000E+00 -0.45593999997E+02  0.45594000000E+02  0.51100000000E-03 0.  1.
    9900012    2    1    2    0    0 -0.12954446514E+00 -0.91017536910E+00 -0.74021804929E+00  0.90007693374E+02  0.89999954126E+02 0.  0.
        -12    1    1    2    0    0  0.12954446514E+00  0.91017536910E+00  0.74021804929E+00  0.11803066260E+01  0.00000000000E+00 0.  1.
         11    1    3    3    0    0 -0.38922092520E+02 -0.12884814459E+02 -0.31318094561E+01  0.41118803005E+02  0.51100000000E-03 0. -1.
        -11    1    3    3    0    0  0.18881575365E+01 -0.10534910712E+01  0.89492939931E+01  0.92067825843E+01  0.51100000000E-03 0.  1.
        -12    1    3    3    0    0  0.36904390519E+02  0.13028130162E+02 -0.65577025863E+01  0.39682107785E+02  0.00000000000E+00 0.  1.
</event>
<event>
 7    1  0.1756449E-015  0.9000779E+02  0.7816164E-02  0.1186339E+00
        -11   -1    0    0    0    0  0.00000000000E+00  0.00000000000E+00  0.45593999997E+02  0.45594000000E+02  0.51100000000E-03 0.  1.
         11   -1    0    0    0    0 -0.00000000000E+00 -0.00000000000E+00 -0.45593999997E+02  0.45594000000E+02  0.51100000000E-03 0. -1.
    9900012    2    1    2    0    0 -0.37656441194E+00  0.93705751058E+00  0.61075862805E+00  0.90007786614E+02  0.90000048597E+02 0.  0.
        -12    1    1    2    0    0  0.37656441194E+00 -0.93705751058E+00 -0.61075862805E+00  0.11802133859E+01  0.00000000000E+00 0.  1.
         11    1    3    3    0    0 -0.11662944676E+01  0.28296686011E+02  0.22236043532E+02  0.36007003683E+02  0.51100000000E-03 0. -1.
        -11    1    3    3    0    0 -0.68209165982E+01  0.60560590066E+01  0.51816940511E+01  0.10490505585E+02  0.51100000000E-03 0.  1.
        -12    1    3    3    0    0  0.76106466538E+01 -0.33415687507E+02 -0.26806978955E+02  0.43510277346E+02  0.00000000000E+00 0.  1.
</event>
<event>
 7    1  0.1756449E-015  0.9000765E+02  0.7816164E-02  0.1186339E+00
        -11   -1    0    0    0    0  0.00000000000E+00  0.00000000000E+00  0.45593999997E+02  0.45594000000E+02  0.51100000000E-03 0.  1.
         11   -1    0    0    0    0 -0.00000000000E+00 -0.00000000000E+00 -0.45593999997E+02  0.45594000000E+02  0.51100000000E-03 0. -1.
    9900012    2    1    2    0    0 -0.11289477415E+00 -0.78587384043E+00 -0.87343560380E+00  0.90007647223E+02  0.89999907367E+02 0.  0.
        -12    1    1    2    0    0  0.11289477415E+00  0.78587384043E+00  0.87343560380E+00  0.11803527765E+01  0.00000000000E+00 0.  1.
         11    1    3    3    0    0 -0.44236033184E+01 -0.48314395407E+01 -0.53232081051E+01  0.84408304772E+01  0.51100000000E-03 0. -1.
        -11    1    3    3    0    0 -0.20961374796E+02 -0.70164790501E+01  0.34373209364E+02  0.40867196305E+02  0.51100000000E-03 0.  1.
         12    1    3    3    0    0  0.25272083340E+02  0.11062044750E+02 -0.29923436862E+02  0.40699620441E+02  0.00000000000E+00 0. -1.
</event>
<event>
 7    1  0.1756449E-015  0.9000777E+02  0.7816164E-02  0.1186339E+00
        -11   -1    0    0    0    0  0.00000000000E+00  0.00000000000E+00  0.45593999997E+02  0.45594000000E+02  0.51100000000E-03 0.  1.
         11   -1    0    0    0    0 -0.00000000000E+00 -0.00000000000E+00 -0.45593999997E+02  0.45594000000E+02  0.51100000000E-03 0. -1.
    9900012    2    1    2    0    0  0.96132583719E+00 -0.40712543841E+00  0.55049457311E+00  0.90007770038E+02  0.90000031803E+02 0.  0.
        -12    1    1    2    0    0 -0.96132583719E+00  0.40712543841E+00 -0.55049457311E+00  0.11802299619E+01  0.00000000000E+00 0.  1.
         11    1    3    3    0    0  0.14524946986E+02  0.24933343538E+02 -0.27282717474E+02  0.39711363336E+02  0.51100000000E-03 0. -1.
        -11    1    3    3    0    0 -0.37602773910E+01 -0.63972460836E+01 -0.65081449768E+01  0.98701770406E+01  0.51100000000E-03 0.  1.
        -12    1    3    3    0    0 -0.98033437581E+01 -0.18943222893E+02  0.34341357024E+02  0.40426229662E+02  0.00000000000E+00 0.  1.
</event>
<event>
 7    1  0.1756449E-015  0.9000774E+02  0.7816164E-02  0.1186339E+00
        -11   -1    0    0    0    0  0.00000000000E+00  0.00000000000E+00  0.45593999997E+02  0.45594000000E+02  0.51100000000E-03 0.  1.
         11   -1    0    0    0    0 -0.00000000000E+00 -0.00000000000E+00 -0.45593999997E+02  0.45594000000E+02  0.51100000000E-03 0. -1.
    9900012    2    1    2    0    0 -0.21733442064E+00 -0.54143480954E-01 -0.11588110557E+01  0.90007742049E+02  0.90000003445E+02 0.  0.
        -12    1    1    2    0    0  0.21733442064E+00  0.54143480954E-01  0.11588110557E+01  0.11802579505E+01  0.00000000000E+00 0.  1.
         11    1    3    3    0    0  0.12955783270E+01 -0.33920214567E+02  0.12364775655E+02  0.36126820462E+02  0.51100000000E-03 0. -1.
        -11    1    3    3    0    0  0.12586248776E-01 -0.47085860407E+01  0.82941025772E+01  0.95374566179E+01  0.51100000000E-03 0.  1.
        -12    1    3    3    0    0 -0.15254989964E+01  0.38574657127E+02 -0.21817689288E+02  0.44343464969E+02  0.00000000000E+00 0.  1.
</event>
<event>
 7    1  0.1756449E-015  0.9000769E+02  0.7816164E-02  0.1186339E+00
        -11   -1    0    0    0    0  0.00000000000E+00  0.00000000000E+00  0.45593999997E+02  0.45594000000E+02  0.51100000000E-03 0. -1.
         11   -1    0    0    0    0 -0.00000000000E+00 -0.00000000000E+00 -0.45593999997E+02  0.45594000000E+02  0.51100000000E-03 0.  1.
    9900012    2    1    2    0    0 -0.29300136162E+00 -0.11369267075E+01 -0.12117804173E+00  0.90007688069E+02  0.89999948752E+02 0.  0.
        -12    1    1    2    0    0  0.29300136162E+00  0.11369267075E+01  0.12117804173E+00  0.11803119307E+01  0.00000000000E+00 0.  1.
         11    1    3    3    0    0 -0.12589017103E+01  0.86770759299E+01 -0.31903159375E+00  0.87737256412E+01  0.51100000000E-03 0. -1.
        -11    1    3    3    0    0  0.22997656873E+02 -0.22638879770E+02  0.28563512388E+02  0.43096233468E+02  0.51100000000E-03 0.  1.
         12    1    3    3    0    0 -0.22031756525E+02  0.12824877132E+02 -0.28365658836E+02  0.38137728960E+02  0.00000000000E+00 0. -1.
</event>
<event>
 7    1  0.1756449E-015  0.9000738E+02  0.7816164E-02  0.1186340E+00
        -11   -1    0    0    0    0  0.00000000000E+00  0.00000000000E+00  0.45593999997E+02  0.45594000000E+02  0.51100000000E-03 0. -1.
         11   -1    0    0    0    0 -0.00000000000E+00 -0.00000000000E+00 -0.45593999997E+02  0.45594000000E+02  0.51100000000E-03 0.  1.
    9900012    2    1    2    0    0  0.34131485964E+00 -0.11244037220E+01 -0.11441148136E+00  0.90007377473E+02  0.89999634055E+02 0.  0.
        -12    1    1    2    0    0 -0.34131485964E+00  0.11244037220E+01  0.11441148136E+00  0.11806225267E+01  0.00000000000E+00 0.  1.
         11    1    3    3    0    0 -0.31965691011E+02  0.15257285308E+02 -0.82920905015E+01  0.36377863076E+02  0.51100000000E-03 0. -1.
        -11    1    3    3    0    0 -0.45053307959E+01  0.75835497366E+01 -0.57690941502E+00  0.88397430348E+01  0.51100000000E-03 0.  1.
        -12    1    3    3    0    0  0.36812336667E+02 -0.23965238767E+02  0.87545884352E+01  0.44789771363E+02  0.00000000000E+00 0.  1.
</event>
<event>
 7    1  0.1756449E-015  0.9000778E+02  0.7816164E-02  0.1186339E+00
        -11   -1    0    0    0    0  0.00000000000E+00  0.00000000000E+00  0.45593999997E+02  0.45594000000E+02  0.51100000000E-03 0.  1.
         11   -1    0    0    0    0 -0.00000000000E+00 -0.00000000000E+00 -0.45593999997E+02  0.45594000000E+02  0.51100000000E-03 0. -1.
    9900012    2    1    2    0    0  0.69873875823E+00  0.93976474321E+00 -0.14671962611E+00  0.90007779566E+02  0.90000041456E+02 0.  0.
        -12    1    1    2    0    0 -0.69873875823E+00 -0.93976474321E+00  0.14671962611E+00  0.11802204343E+01  0.00000000000E+00 0.  1.
         11    1    3    3    0    0 -0.24641837689E+02  0.22892795880E+02 -0.19461384176E+02  0.38859307022E+02  0.51100000000E-03 0. -1.
        -11    1    3    3    0    0 -0.54056169482E+01 -0.77279612804E+01 -0.37668282508E+01  0.10155347137E+02  0.51100000000E-03 0.  1.
        -12    1    3    3    0    0  0.30746193395E+02 -0.14225069856E+02  0.23081492801E+02  0.40993125407E+02  0.00000000000E+00 0.  1.
</event>
<event>
 7    1  0.2101332E-015  0.9000782E+02  0.7816164E-02  0.1186339E+00
        -11   -1    0    0    0    0  0.00000000000E+00  0.00000000000E+00  0.45593999997E+02  0.45594000000E+02  0.51100000000E-03 0. -1.
         11   -1    0    0    0    0 -0.00000000000E+00 -0.00000000000E+00 -0.45593999997E+02  0.45594000000E+02  0.51100000000E-03 0.  1.
    9900012    2    1    2    0    0  0.19587076436E+00  0.87197475405E+00  0.77078394881E+00  0.90007824918E+02  0.90000087407E+02 0.  0.
        -12    1    1    2    0    0 -0.19587076436E+00 -0.87197475405E+00 -0.77078394881E+00  0.11801750818E+01  0.00000000000E+00 0.  1.
         11    1    3    3    0    0  0.24656679281E+02  0.13113783762E+02  0.30810940377E+02  0.41584097981E+02  0.51100000000E-03 0. -1.
        -11    1    3    3    0    0  0.54406368479E+01 -0.44767759414E+01 -0.64700821095E+01  0.95657730950E+01  0.51100000000E-03 0.  1.
        -12    1    3    3    0    0 -0.29901445364E+02 -0.77650330661E+01 -0.23570074319E+02  0.38857953842E+02  0.00000000000E+00 0.  1.
</event>
<event>
 7    1  0.1756449E-015  0.9000795E+02  0.7816164E-02  0.1186339E+00
        -11   -1    0    0    0    0  0.00000000000E+00  0.00000000000E+00  0.45593999997E+02  0.45594000000E+02  0.51100000000E-03 0. -1.
         11   -1    0    0    0    0 -0.00000000000E+00 -0.00000000000E+00 -0.45593999997E+02  0.45594000000E+02  0.51100000000E-03 0.  1.
    9900012    2    1    2    0    0 -0.39472818892E+00 -0.10219217125E+01  0.43862145704E+00  0.90007947835E+02  0.90000211946E+02 0.  0.
        -12    1    1    2    0    0  0.39472818892E+00  0.10219217125E+01 -0.43862145704E+00  0.11800521650E+01  0.00000000000E+00 0.  1.
         11    1    3    3    0    0 -0.31413378256E+01 -0.35034045919E+02  0.11397704786E+02  0.36975127470E+02  0.51100000000E-03 0. -1.
        -11    1    3    3    0    0  0.43854796140E+01 -0.81693334245E+01 -0.45757651783E+01  0.10339635742E+02  0.51100000000E-03 0.  1.
        -12    1    3    3    0    0 -0.16388699773E+01  0.42181457631E+02 -0.63833181505E+01  0.42693184623E+02  0.00000000000E+00 0.  1.
</event>
<event>
 7    1  0.1756449E-015  0.9000775E+02  0.7816164E-02  0.1186339E+00
        -11   -1    0    0    0    0  0.00000000000E+00  0.00000000000E+00  0.45593999997E+02  0.45594000000E+02  0.51100000000E-03 0. -1.
         11   -1    0    0    0    0 -0.00000000000E+00 -0.00000000000E+00 -0.45593999997E+02  0.45594000000E+02  0.51100000000E-03 0.  1.
    9900012    2    1    2    0    0 -0.10066935562E+01 -0.21197624641E-01  0.61571196766E+00  0.90007753211E+02  0.90000014754E+02 0.  0.
        -12    1    1    2    0    0  0.10066935562E+01  0.21197624641E-01 -0.61571196766E+00  0.11802467888E+01  0.00000000000E+00 0.  1.
         11    1    3    3    0    0  0.39262897201E+02 -0.17126163964E+02  0.71752621022E+01  0.43432303361E+02  0.51100000000E-03 0. -1.
        -11    1    3    3    0    0 -0.40783357641E+01  0.58449639767E+01 -0.48762815401E+01  0.86356556447E+01  0.51100000000E-03 0.  1.
        -12    1    3    3    0    0 -0.36191254993E+02  0.11260002363E+02 -0.16832685944E+01  0.37939794205E+02  0.00000000000E+00 0.  1.
</event>
<event>
 7    1  0.1756449E-015  0.9000785E+02  0.7816164E-02  0.1186339E+00
        -11   -1    0    0    0    0  0.00000000000E+00  0.00000000000E+00  0.45593999997E+02  0.45594000000E+02  0.51100000000E-03 0. -1.
         11   -1    0    0    0    0 -0.00000000000E+00 -0.00000000000E+00 -0.45593999997E+02  0.45594000000E+02  0.51100000000E-03 0.  1.
    9900012    2    1    2    0    0  0.10917878500E+01 -0.39985284130E+00  0.20218764478E+00  0.90007846261E+02  0.90000109031E+02 0.  0.
        -12    1    1    2    0    0 -0.10917878500E+01  0.39985284130E+00 -0.20218764478E+00  0.11801537391E+01  0.00000000000E+00 0.  1.
         11    1    3    3    0    0 -0.16876268842E+02 -0.30029109768E+02  0.10520673361E+02  0.36017224376E+02  0.51100000000E-03 0. -1.
        -11    1    3    3    0    0  0.26065268965E+01 -0.51581880151E+00  0.12761185317E+02  0.13034872553E+02  0.51100000000E-03 0.  1.
        -12    1    3    3    0    0  0.15361529795E+02  0.30145075728E+02 -0.23079671034E+02  0.40955749332E+02  0.00000000000E+00 0.  1.
</event>
<event>
 7    1  0.1756449E-015  0.9000773E+02  0.7816164E-02  0.1186339E+00
        -11   -1    0    0    0    0  0.00000000000E+00  0.00000000000E+00  0.45593999997E+02  0.45594000000E+02  0.51100000000E-03 0. -1.
         11   -1    0    0    0    0 -0.00000000000E+00 -0.00000000000E+00 -0.45593999997E+02  0.45594000000E+02  0.51100000000E-03 0.  1.
    9900012    2    1    2    0    0 -0.10094533429E+01 -0.21559191332E-01  0.61120401922E+00  0.90007732571E+02  0.89999993841E+02 0.  0.
        -12    1    1    2    0    0  0.10094533429E+01  0.21559191332E-01 -0.61120401922E+00  0.11802674288E+01  0.00000000000E+00 0.  1.
         11    1    3    3    0    0  0.35435057126E+02 -0.83205498096E+01  0.18684869264E+02  0.40914534854E+02  0.51100000000E-03 0. -1.
        -11    1    3    3    0    0  0.16860266546E+01  0.73028503845E+01 -0.26581364242E+01  0.79523580861E+01  0.51100000000E-03 0.  1.
        -12    1    3    3    0    0 -0.38130537124E+02  0.99614023374E+00 -0.15415528820E+02  0.41140839631E+02  0.00000000000E+00 0.  1.
</event>
<event>
 7    1  0.1756449E-015  0.9000782E+02  0.7816164E-02  0.1186339E+00
        -11   -1    0    0    0    0  0.00000000000E+00  0.00000000000E+00  0.45593999997E+02  0.45594000000E+02  0.51100000000E-03 0. -1.
         11   -1    0    0    0    0 -0.00000000000E+00 -0.00000000000E+00 -0.45593999997E+02  0.45594000000E+02  0.51100000000E-03 0.  1.
    9900012    2    1    2    0    0 -0.11135872368E+01 -0.14863835670E+00  0.36145492915E+00  0.90007822233E+02  0.90000084687E+02 0.  0.
        -12    1    1    2    0    0  0.11135872368E+01  0.14863835670E+00 -0.36145492915E+00  0.11801777666E+01  0.00000000000E+00 0.  1.
         11    1    3    3    0    0 -0.15003266976E+02  0.90431201455E+01  0.33309772293E+02  0.37635315494E+02  0.51100000000E-03 0. -1.
        -11    1    3    3    0    0 -0.68351521546E+01  0.89421333290E+01 -0.29182686102E+01  0.11627439331E+02  0.51100000000E-03 0.  1.
        -12    1    3    3    0    0  0.20724831893E+02 -0.18133891831E+02 -0.30030048754E+02  0.40745067408E+02  0.00000000000E+00 0.  1.
</event>
<event>
 7    1  0.1756449E-015  0.9000795E+02  0.7816164E-02  0.1186339E+00
        -11   -1    0    0    0    0  0.00000000000E+00  0.00000000000E+00  0.45593999997E+02  0.45594000000E+02  0.51100000000E-03 0. -1.
         11   -1    0    0    0    0 -0.00000000000E+00 -0.00000000000E+00 -0.45593999997E+02  0.45594000000E+02  0.51100000000E-03 0.  1.
    9900012    2    1    2    0    0 -0.39490388698E+00 -0.43409533567E+00  0.10237813240E+01  0.90007950832E+02  0.90000214982E+02 0.  0.
        -12    1    1    2    0    0  0.39490388698E+00  0.43409533567E+00 -0.10237813240E+01  0.11800491683E+01  0.00000000000E+00 0.  1.
         11    1    3    3    0    0 -0.25582024023E+01  0.27503657519E+02  0.28585873532E+02  0.39751072216E+02  0.51100000000E-03 0. -1.
        -11    1    3    3    0    0 -0.72686868588E+01 -0.44103931462E+01  0.43117498135E+01  0.95329199656E+01  0.51100000000E-03 0.  1.
        -12    1    3    3    0    0  0.94319853741E+01 -0.23527359709E+02 -0.31873842021E+02  0.40723958650E+02  0.00000000000E+00 0.  1.
</event>
<event>
 7    1  0.1756449E-015  0.9000726E+02  0.7816164E-02  0.1186340E+00
        -11   -1    0    0    0    0  0.00000000000E+00  0.00000000000E+00  0.45593999997E+02  0.45594000000E+02  0.51100000000E-03 0.  1.
         11   -1    0    0    0    0 -0.00000000000E+00 -0.00000000000E+00 -0.45593999997E+02  0.45594000000E+02  0.51100000000E-03 0. -1.
    9900012    2    1    2    0    0 -0.84192582342E+00 -0.11041775565E+00 -0.82043278439E+00  0.90007262465E+02  0.89999517528E+02 0.  0.
        -12    1    1    2    0    0  0.84192582342E+00  0.11041775565E+00  0.82043278439E+00  0.11807375350E+01  0.00000000000E+00 0.  1.
         11    1    3    3    0    0  0.18943522593E+01  0.71665734545E+01  0.16840389881E+01  0.76016006956E+01  0.51100000000E-03 0. -1.
        -11    1    3    3    0    0  0.18937317116E+02 -0.13311767227E+02  0.33038496961E+02  0.40340642136E+02  0.51100000000E-03 0.  1.
         12    1    3    3    0    0 -0.21673595199E+02  0.60347760166E+01 -0.35542968733E+02  0.42065019634E+02  0.00000000000E+00 0. -1.
</event>
<event>
 7    1  0.1756449E-015  0.9000772E+02  0.7816164E-02  0.1186339E+00
        -11   -1    0    0    0    0  0.00000000000E+00  0.00000000000E+00  0.45593999997E+02  0.45594000000E+02  0.51100000000E-03 0.  1.
         11   -1    0    0    0    0 -0.00000000000E+00 -0.00000000000E+00 -0.45593999997E+02  0.45594000000E+02  0.51100000000E-03 0. -1.
    9900012    2    1    2    0    0  0.11205589715E+01  0.36323814260E+00 -0.74000822720E-01  0.90007715933E+02  0.89999976983E+02 0.  0.
        -12    1    1    2    0    0 -0.11205589715E+01 -0.36323814260E+00  0.74000822720E-01  0.11802840669E+01  0.00000000000E+00 0.  1.
         11    1    3    3    0    0  0.58141729628E+01 -0.20018741070E+02 -0.31615833318E+02  0.37869717690E+02  0.51100000000E-03 0. -1.
        -11    1    3    3    0    0 -0.41629067174E+01 -0.40296187521E+01 -0.53576051578E+01  0.78912326612E+01  0.51100000000E-03 0.  1.
        -12    1    3    3    0    0 -0.53070727389E+00  0.24411597964E+02  0.36899437653E+02  0.44246765582E+02  0.00000000000E+00 0.  1.
</event>
<event>
 7    1  0.1756449E-015  0.9000765E+02  0.7816164E-02  0.1186339E+00
        -11   -1    0    0    0    0  0.00000000000E+00  0.00000000000E+00  0.45593999997E+02  0.45594000000E+02  0.51100000000E-03 0. -1.
         11   -1    0    0    0    0 -0.00000000000E+00 -0.00000000000E+00 -0.45593999997E+02  0.45594000000E+02  0.51100000000E-03 0.  1.
    9900012    2    1    2    0    0  0.12681365726E+00 -0.10732754004E+01  0.47457967816E+00  0.90007649349E+02  0.89999909520E+02 0.  0.
        -12    1    1    2    0    0 -0.12681365726E+00  0.10732754004E+01 -0.47457967816E+00  0.11803506512E+01  0.00000000000E+00 0.  1.
         11    1    3    3    0    0  0.27002894248E+02 -0.23851128679E+02  0.47962193486E-01  0.36028251937E+02  0.51100000000E-03 0. -1.
        -11    1    3    3    0    0  0.75700524382E+01 -0.22585904654E+01 -0.72348193312E+01  0.10712120977E+02  0.51100000000E-03 0.  1.
        -12    1    3    3    0    0 -0.34446133029E+02  0.25036443744E+02  0.76614368159E+01  0.43267276435E+02  0.00000000000E+00 0.  1.
</event>
<event>
 7    1  0.1756449E-015  0.9000773E+02  0.7816164E-02  0.1186339E+00
        -11   -1    0    0    0    0  0.00000000000E+00  0.00000000000E+00  0.45593999997E+02  0.45594000000E+02  0.51100000000E-03 0.  1.
         11   -1    0    0    0    0 -0.00000000000E+00 -0.00000000000E+00 -0.45593999997E+02  0.45594000000E+02  0.51100000000E-03 0. -1.
    9900012    2    1    2    0    0  0.81998915866E+00 -0.31904669699E+00 -0.78667681024E+00  0.90007731633E+02  0.89999992890E+02 0.  0.
        -12    1    1    2    0    0 -0.81998915866E+00  0.31904669699E+00  0.78667681024E+00  0.11802683673E+01  0.00000000000E+00 0.  1.
         11    1    3    3    0    0 -0.22728306572E+02  0.29198289585E+02 -0.17414200140E+02  0.40894625577E+02  0.51100000000E-03 0. -1.
        -11    1    3    3    0    0 -0.37548714616E+01 -0.18185479659E+01  0.83710897428E+01  0.93531449332E+01  0.51100000000E-03 0.  1.
        -12    1    3    3    0    0  0.27303167192E+02 -0.27698788316E+02  0.82564335871E+01  0.39759961123E+02  0.00000000000E+00 0.  1.
</event>
<event>
 7    1  0.1756449E-015  0.9000755E+02  0.7816164E-02  0.1186339E+00
        -11   -1    0    0    0    0  0.00000000000E+00  0.00000000000E+00  0.45593999997E+02  0.45594000000E+02  0.51100000000E-03 0. -1.
         11   -1    0    0    0    0 -0.00000000000E+00 -0.00000000000E+00 -0.45593999997E+02  0.45594000000E+02  0.51100000000E-03 0.  1.
    9900012    2    1    2    0    0  0.71156315144E+00 -0.87618133732E+00 -0.34561297603E+00  0.90007549161E+02  0.89999808010E+02 0.  0.
        -12    1    1    2    0    0 -0.71156315144E+00  0.87618133732E+00  0.34561297603E+00  0.11804508391E+01  0.00000000000E+00 0.  1.
         11    1    3    3    0    0 -0.27617488406E+01 -0.53699415445E+01  0.56225959895E+01  0.82508856962E+01  0.51100000000E-03 0. -1.
        -11    1    3    3    0    0 -0.73653071260E+01  0.39569960307E+02 -0.16595786356E+02  0.43536761855E+02  0.51100000000E-03 0.  1.
         12    1    3    3    0    0  0.10838619118E+02 -0.35076200100E+02  0.10627577391E+02  0.38219901610E+02  0.00000000000E+00 0. -1.
</event>
<event>
 7    1  0.1756449E-015  0.9000785E+02  0.7816164E-02  0.1186339E+00
        -11   -1    0    0    0    0  0.00000000000E+00  0.00000000000E+00  0.45593999997E+02  0.45594000000E+02  0.51100000000E-03 0. -1.
         11   -1    0    0    0    0 -0.00000000000E+00 -0.00000000000E+00 -0.45593999997E+02  0.45594000000E+02  0.51100000000E-03 0.  1.
    9900012    2    1    2    0    0  0.88897617039E+00  0.64732209922E+00  0.42830264743E+00  0.90007852683E+02  0.90000115538E+02 0.  0.
        -12    1    1    2    0    0 -0.88897617039E+00 -0.64732209922E+00 -0.42830264743E+00  0.11801473168E+01  0.00000000000E+00 0.  1.
         11    1    3    3    0    0  0.19806517732E+02  0.36393333031E+02 -0.10845270891E+02  0.42829811285E+02  0.51100000000E-03 0. -1.
        -11    1    3    3    0    0 -0.80116060200E+01 -0.41788993059E+01  0.10388419590E+02  0.13768380161E+02  0.51100000000E-03 0.  1.
        -12    1    3    3    0    0 -0.10905935542E+02 -0.31567111626E+02  0.88515394867E+00  0.33409661237E+02  0.00000000000E+00 0.  1.
</event>
<event>
 7    1  0.1756449E-015  0.9000778E+02  0.7816164E-02  0.1186339E+00
        -11   -1    0    0    0    0  0.00000000000E+00  0.00000000000E+00  0.45593999997E+02  0.45594000000E+02  0.51100000000E-03 0. -1.
         11   -1    0    0    0    0 -0.00000000000E+00 -0.00000000000E+00 -0.45593999997E+02  0.45594000000E+02  0.51100000000E-03 0.  1.
    9900012    2    1    2    0    0  0.76837544575E-01  0.98068770120E+00  0.65212352095E+00  0.90007780757E+02  0.90000042663E+02 0.  0.
        -12    1    1    2    0    0 -0.76837544575E-01 -0.98068770120E+00 -0.65212352095E+00  0.11802192432E+01  0.00000000000E+00 0.  1.
         11    1    3    3    0    0 -0.13264539960E+02  0.40153979877E+01  0.34605917661E+02  0.37277888604E+02  0.51100000000E-03 0. -1.
        -11    1    3    3    0    0 -0.29174964898E+01  0.95589180349E+01  0.30034901429E+01  0.10435787132E+02  0.51100000000E-03 0.  1.
        -12    1    3    3    0    0  0.16258873994E+02 -0.12593628321E+02 -0.36957284283E+02  0.42294105020E+02  0.00000000000E+00 0.  1.
</event>
<event>
 7    1  0.1756449E-015  0.9000772E+02  0.7816164E-02  0.1186339E+00
        -11   -1    0    0    0    0  0.00000000000E+00  0.00000000000E+00  0.45593999997E+02  0.45594000000E+02  0.51100000000E-03 0.  1.
         11   -1    0    0    0    0 -0.00000000000E+00 -0.00000000000E+00 -0.45593999997E+02  0.45594000000E+02  0.51100000000E-03 0. -1.
    9900012    2    1    2    0    0  0.10629525511E+01  0.80227449653E-01 -0.50669979959E+00  0.90007724923E+02  0.89999986092E+02 0.  0.
        -12    1    1    2    0    0 -0.10629525511E+01 -0.80227449653E-01  0.50669979959E+00  0.11802750766E+01  0.00000000000E+00 0.  1.
         11    1    3    3    0    0 -0.71988189735E+00 -0.76065055773E+01  0.17348238848E+01  0.78349710412E+01  0.51100000000E-03 0. -1.
        -11    1    3    3    0    0 -0.29902152305E+02 -0.23164280955E+02 -0.29896927972E+01  0.37942863465E+02  0.51100000000E-03 0.  1.
         12    1    3    3    0    0  0.31684986754E+02  0.30851013982E+02  0.74816911280E+00  0.44229890417E+02  0.00000000000E+00 0. -1.
</event>
<event>
 7    1  0.1756449E-015  0.9000774E+02  0.7816164E-02  0.1186339E+00
        -11   -1    0    0    0    0  0.00000000000E+00  0.00000000000E+00  0.45593999997E+02  0.45594000000E+02  0.51100000000E-03 0.  1.
         11   -1    0    0    0    0 -0.00000000000E+00 -0.00000000000E+00 -0.45593999997E+02  0.45594000000E+02  0.51100000000E-03 0. -1.
    9900012    2    1    2    0    0  0.19899969372E+00 -0.11485029222E+01 -0.18536502165E+00  0.90007737304E+02  0.89999998636E+02 0.  0.
        -12    1    1    2    0    0 -0.19899969372E+00  0.11485029222E+01  0.18536502165E+00  0.11802626960E+01  0.00000000000E+00 0.  1.
         11    1    3    3    0    0 -0.10705687024E+02  0.28255757565E+02 -0.23349066360E+02  0.38186103105E+02  0.51100000000E-03 0. -1.
        -11    1    3    3    0    0  0.45681160182E+01  0.48462882846E+01 -0.38944607874E+01  0.77149866610E+01  0.51100000000E-03 0.  1.
        -12    1    3    3    0    0  0.63365706994E+01 -0.34250548771E+02  0.27058162126E+02  0.44106647538E+02  0.00000000000E+00 0.  1.
</event>
<event>
 7    1  0.1756449E-015  0.9000775E+02  0.7816164E-02  0.1186339E+00
        -11   -1    0    0    0    0  0.00000000000E+00  0.00000000000E+00  0.45593999997E+02  0.45594000000E+02  0.51100000000E-03 0.  1.
         11   -1    0    0    0    0 -0.00000000000E+00 -0.00000000000E+00 -0.45593999997E+02  0.45594000000E+02  0.51100000000E-03 0. -1.
    9900012    2    1    2    0    0  0.69531513669E+00  0.81510584618E+00 -0.49509369927E+00  0.90007754919E+02  0.90000016484E+02 0.  0.
        -12    1    1    2    0    0 -0.69531513669E+00 -0.81510584618E+00  0.49509369927E+00  0.11802450808E+01  0.00000000000E+00 0.  1.
         11    1    3    3    0    0  0.23011711794E+02  0.16037697716E+02 -0.25919183358E+02  0.38190976603E+02  0.51100000000E-03 0. -1.
        -11    1    3    3    0    0 -0.34710054787E+01  0.76145249000E+01 -0.46831949909E+01  0.95896394129E+01  0.51100000000E-03 0.  1.
        -12    1    3    3    0    0 -0.18845391178E+02 -0.22837116769E+02  0.30107284649E+02  0.42227138903E+02  0.00000000000E+00 0.  1.
</event>
<event>
 7    1  0.1756449E-015  0.9000774E+02  0.7816164E-02  0.1186339E+00
        -11   -1    0    0    0    0  0.00000000000E+00  0.00000000000E+00  0.45593999997E+02  0.45594000000E+02  0.51100000000E-03 0.  1.
         11   -1    0    0    0    0 -0.00000000000E+00 -0.00000000000E+00 -0.45593999997E+02  0.45594000000E+02  0.51100000000E-03 0. -1.
    9900012    2    1    2    0    0 -0.11730827772E+01  0.97974274014E-01 -0.85415785749E-01  0.90007738157E+02  0.89999999501E+02 0.  0.
        -12    1    1    2    0    0  0.11730827772E+01 -0.97974274014E-01  0.85415785749E-01  0.11802618426E+01  0.00000000000E+00 0.  1.
         11    1    3    3    0    0  0.11542839949E+02 -0.87835595113E+00  0.63707336899E+01  0.13213436770E+02  0.51100000000E-03 0. -1.
        -11    1    3    3    0    0  0.14894195684E+02 -0.33430391371E+01  0.28325378816E+02  0.32176700593E+02  0.51100000000E-03 0.  1.
         12    1    3    3    0    0 -0.27610118411E+02  0.43193693623E+01 -0.34781528291E+02  0.44617600794E+02  0.00000000000E+00 0. -1.
</event>
<event>
 7    1  0.1756449E-015  0.9000755E+02  0.7816164E-02  0.1186339E+00
        -11   -1    0    0    0    0  0.00000000000E+00  0.00000000000E+00  0.45593999997E+02  0.45594000000E+02  0.51100000000E-03 0.  1.
         11   -1    0    0    0    0 -0.00000000000E+00 -0.00000000000E+00 -0.45593999997E+02  0.45594000000E+02  0.51100000000E-03 0. -1.
    9900012    2    1    2    0    0 -0.34205815072E+00  0.11033087495E+01  0.24323222122E+00  0.90007552674E+02  0.89999811569E+02 0.  0.
        -12    1    1    2    0    0  0.34205815072E+00 -0.11033087495E+01 -0.24323222122E+00  0.11804473256E+01  0.00000000000E+00 0.  1.
         11    1    3    3    0    0 -0.90037672925E+01  0.15027279172E+02 -0.91653268651E+00  0.17542148591E+02  0.51100000000E-03 0. -1.
        -11    1    3    3    0    0 -0.11041416251E+02  0.11751686940E+02  0.26731086886E+02  0.31218040059E+02  0.51100000000E-03 0.  1.
         12    1    3    3    0    0  0.19703125393E+02 -0.25675657362E+02 -0.25571321978E+02  0.41247364024E+02  0.00000000000E+00 0. -1.
</event>
<event>
 7    1  0.1756449E-015  0.9000770E+02  0.7816164E-02  0.1186339E+00
        -11   -1    0    0    0    0  0.00000000000E+00  0.00000000000E+00  0.45593999997E+02  0.45594000000E+02  0.51100000000E-03 0.  1.
         11   -1    0    0    0    0 -0.00000000000E+00 -0.00000000000E+00 -0.45593999997E+02  0.45594000000E+02  0.51100000000E-03 0. -1.
    9900012    2    1    2    0    0  0.23902077036E+00  0.79767828696E+00 -0.83647885622E+00  0.90007695609E+02  0.89999956391E+02 0.  0.
        -12    1    1    2    0    0 -0.23902077036E+00 -0.79767828696E+00  0.83647885622E+00  0.11803043908E+01  0.00000000000E+00 0.  1.
         11    1    3    3    0    0 -0.80396562199E+01  0.56948971100E+00  0.28893856094E+00  0.80649783892E+01  0.51100000000E-03 0. -1.
        -11    1    3    3    0    0  0.62713905489E+01  0.39129858138E+02  0.11032123333E+02  0.41136162714E+02  0.51100000000E-03 0.  1.
         12    1    3    3    0    0  0.20072864413E+01 -0.38901669562E+02 -0.12157540750E+02  0.40806554506E+02  0.00000000000E+00 0. -1.
</event>
<event>
 7    1  0.1756449E-015  0.9000784E+02  0.7816164E-02  0.1186339E+00
        -11   -1    0    0    0    0  0.00000000000E+00  0.00000000000E+00  0.45593999997E+02  0.45594000000E+02  0.51100000000E-03 0. -1.
         11   -1    0    0    0    0 -0.00000000000E+00 -0.00000000000E+00 -0.45593999997E+02  0.45594000000E+02  0.51100000000E-03 0.  1.
    9900012    2    1    2    0    0 -0.16576131542E+00 -0.67791464234E+00  0.95170264716E+00  0.90007837721E+02  0.90000100379E+02 0.  0.
        -12    1    1    2    0    0  0.16576131542E+00  0.67791464234E+00 -0.95170264716E+00  0.11801622789E+01  0.00000000000E+00 0.  1.
         11    1    3    3    0    0 -0.22865752696E+02  0.27080677158E+02  0.84357101447E+01  0.36433047191E+02  0.51100000000E-03 0. -1.
        -11    1    3    3    0    0 -0.12802527860E+01  0.90255842063E+01 -0.18854180860E+01  0.93088677658E+01  0.51100000000E-03 0.  1.
        -12    1    3    3    0    0  0.23980244166E+02 -0.36784176007E+02 -0.55985894115E+01  0.44265922764E+02  0.00000000000E+00 0.  1.
</event>
<event>
 7    1  0.1756449E-015  0.9000770E+02  0.7816164E-02  0.1186339E+00
        -11   -1    0    0    0    0  0.00000000000E+00  0.00000000000E+00  0.45593999997E+02  0.45594000000E+02  0.51100000000E-03 0.  1.
         11   -1    0    0    0    0 -0.00000000000E+00 -0.00000000000E+00 -0.45593999997E+02  0.45594000000E+02  0.51100000000E-03 0. -1.
    9900012    2    1    2    0    0 -0.81857675260E+00  0.17348149894E+00 -0.83242671945E+00  0.90007704286E+02  0.89999965182E+02 0.  0.
        -12    1    1    2    0    0  0.81857675260E+00 -0.17348149894E+00  0.83242671945E+00  0.11802957145E+01  0.00000000000E+00 0.  1.
         11    1    3    3    0    0 -0.18248478870E+02  0.25956288136E+02  0.12837382919E+02  0.34227682880E+02  0.51100000000E-03 0. -1.
        -11    1    3    3    0    0  0.36181518393E+01  0.12582083456E+02 -0.12316427651E+01  0.13149782926E+02  0.51100000000E-03 0.  1.
        -12    1    3    3    0    0  0.13811750278E+02 -0.38364890094E+02 -0.12438166873E+02  0.42630238479E+02  0.00000000000E+00 0.  1.
</event>
<event>
 7    1  0.1756449E-015  0.9000758E+02  0.7816164E-02  0.1186339E+00
        -11   -1    0    0    0    0  0.00000000000E+00  0.00000000000E+00  0.45593999997E+02  0.45594000000E+02  0.51100000000E-03 0. -1.
         11   -1    0    0    0    0 -0.00000000000E+00 -0.00000000000E+00 -0.45593999997E+02  0.45594000000E+02  0.51100000000E-03 0.  1.
    9900012    2    1    2    0    0 -0.46519820548E+00 -0.10830244648E+01  0.63559905940E-01  0.90007580065E+02  0.89999839321E+02 0.  0.
        -12    1    1    2    0    0  0.46519820548E+00  0.10830244648E+01 -0.63559905940E-01  0.11804199352E+01  0.00000000000E+00 0.  1.
         11    1    3    3    0    0  0.25436104927E+02 -0.28143248655E+02 -0.17368828309E+01  0.37974394544E+02  0.51100000000E-03 0. -1.
        -11    1    3    3    0    0  0.61066488417E+00 -0.24662111518E+01  0.11007289812E+02  0.11296704755E+02  0.51100000000E-03 0.  1.
        -12    1    3    3    0    0 -0.26511968017E+02  0.29526435342E+02 -0.92068470754E+01  0.40736480766E+02  0.00000000000E+00 0.  1.
</event>
<event>
 7    1  0.1756449E-015  0.9000763E+02  0.7816164E-02  0.1186339E+00
        -11   -1    0    0    0    0  0.00000000000E+00  0.00000000000E+00  0.45593999997E+02  0.45594000000E+02  0.51100000000E-03 0.  1.
         11   -1    0    0    0    0 -0.00000000000E+00 -0.00000000000E+00 -0.45593999997E+02  0.45594000000E+02  0.51100000000E-03 0. -1.
    9900012    2    1    2    0    0 -0.10012705608E+01 -0.15290781527E+00 -0.60609426559E+00  0.90007629806E+02  0.89999889719E+02 0.  0.
        -12    1    1    2    0    0  0.10012705608E+01  0.15290781527E+00  0.60609426559E+00  0.11803701939E+01  0.00000000000E+00 0.  1.
         11    1    3    3    0    0 -0.57122311704E+01  0.45773058271E+01  0.65928322773E+01  0.98512309524E+01  0.51100000000E-03 0. -1.
        -11    1    3    3    0    0  0.29425205260E+02  0.58299692073E+01  0.24404399179E+02  0.38670478987E+02  0.51100000000E-03 0.  1.
         12    1    3    3    0    0 -0.24714244650E+02 -0.10560182850E+02 -0.31603325722E+02  0.41485919866E+02  0.00000000000E+00 0. -1.
</event>
<event>
 7    1  0.1756449E-015  0.9000771E+02  0.7816164E-02  0.1186339E+00
        -11   -1    0    0    0    0  0.00000000000E+00  0.00000000000E+00  0.45593999997E+02  0.45594000000E+02  0.51100000000E-03 0.  1.
         11   -1    0    0    0    0 -0.00000000000E+00 -0.00000000000E+00 -0.45593999997E+02  0.45594000000E+02  0.51100000000E-03 0. -1.
    9900012    2    1    2    0    0  0.10145513520E+01  0.88321238827E-01  0.59664150238E+00  0.90007705050E+02  0.89999965956E+02 0.  0.
        -12    1    1    2    0    0 -0.10145513520E+01 -0.88321238827E-01 -0.59664150238E+00  0.11802949502E+01  0.00000000000E+00 0.  1.
         11    1    3    3    0    0  0.69939529106E+01  0.45140734350E+01 -0.43096603155E+00  0.83353445204E+01  0.51100000000E-03 0. -1.
        -11    1    3    3    0    0  0.25648813778E-01  0.32822981612E+02 -0.20042108206E+02  0.38458222546E+02  0.51100000000E-03 0.  1.
         12    1    3    3    0    0 -0.60050503723E+01 -0.37248733808E+02  0.21069715740E+02  0.43214137984E+02  0.00000000000E+00 0. -1.
</event>
<event>
 7    1  0.1756449E-015  0.9000775E+02  0.7816164E-02  0.1186339E+00
        -11   -1    0    0    0    0  0.00000000000E+00  0.00000000000E+00  0.45593999997E+02  0.45594000000E+02  0.51100000000E-03 0. -1.
         11   -1    0    0    0    0 -0.00000000000E+00 -0.00000000000E+00 -0.45593999997E+02  0.45594000000E+02  0.51100000000E-03 0.  1.
    9900012    2    1    2    0    0 -0.28883152269E+00  0.58767287252E+00  0.98194448680E+00  0.90007746625E+02  0.90000008081E+02 0.  0.
        -12    1    1    2    0    0  0.28883152269E+00 -0.58767287252E+00 -0.98194448680E+00  0.11802533748E+01  0.00000000000E+00 0.  1.
         11    1    3    3    0    0  0.94090843559E+01  0.88702951284E+00  0.31890237929E+01  0.99743452309E+01  0.51100000000E-03 0. -1.
        -11    1    3    3    0    0 -0.22350618743E+02  0.50882337623E+01  0.34168450363E+02  0.41145148942E+02  0.51100000000E-03 0.  1.
         12    1    3    3    0    0  0.12652702864E+02 -0.53875904026E+01 -0.36375529669E+02  0.38888252452E+02  0.00000000000E+00 0. -1.
</event>
<event>
 7    1  0.1756449E-015  0.9000812E+02  0.7816164E-02  0.1186338E+00
        -11   -1    0    0    0    0  0.00000000000E+00  0.00000000000E+00  0.45593999997E+02  0.45594000000E+02  0.51100000000E-03 0.  1.
         11   -1    0    0    0    0 -0.00000000000E+00 -0.00000000000E+00 -0.45593999997E+02  0.45594000000E+02  0.51100000000E-03 0. -1.
    9900012    2    1    2    0    0 -0.10676027201E-01 -0.23234107021E+00 -0.11567309236E+01  0.90008117472E+02  0.90000383822E+02 0.  0.
        -12    1    1    2    0    0  0.10676027201E-01  0.23234107021E+00  0.11567309236E+01  0.11798825281E+01  0.00000000000E+00 0.  1.
         11    1    3    3    0    0  0.37963555667E+01 -0.13074980880E+02 -0.54886714489E+01  0.14679678305E+02  0.51100000000E-03 0. -1.
        -11    1    3    3    0    0 -0.38490737179E+02  0.12151322242E+02 -0.41390353220E-01  0.40363265406E+02  0.51100000000E-03 0.  1.
         12    1    3    3    0    0  0.34683705586E+02  0.69131756774E+00  0.43733308785E+01  0.34965173760E+02  0.00000000000E+00 0. -1.
</event>
<event>
 7    1  0.1756449E-015  0.9000776E+02  0.7816164E-02  0.1186339E+00
        -11   -1    0    0    0    0  0.00000000000E+00  0.00000000000E+00  0.45593999997E+02  0.45594000000E+02  0.51100000000E-03 0. -1.
         11   -1    0    0    0    0 -0.00000000000E+00 -0.00000000000E+00 -0.45593999997E+02  0.45594000000E+02  0.51100000000E-03 0.  1.
    9900012    2    1    2    0    0 -0.43372967597E+00  0.77999706480E+00  0.77230495035E+00  0.90007757741E+02  0.90000019343E+02 0.  0.
        -12    1    1    2    0    0  0.43372967597E+00 -0.77999706480E+00 -0.77230495035E+00  0.11802422587E+01  0.00000000000E+00 0.  1.
         11    1    3    3    0    0 -0.83020102839E+01 -0.53378721417E+01 -0.34915606392E+01  0.10469348104E+02  0.51100000000E-03 0. -1.
        -11    1    3    3    0    0  0.31266501057E+01 -0.19652904177E+02 -0.30247418135E+02  0.36206613865E+02  0.51100000000E-03 0.  1.
         12    1    3    3    0    0  0.47416305022E+01  0.25770773383E+02  0.34511283724E+02  0.43331795773E+02  0.00000000000E+00 0. -1.
</event>
<event>
 7    1  0.1756449E-015  0.9000788E+02  0.7816164E-02  0.1186339E+00
        -11   -1    0    0    0    0  0.00000000000E+00  0.00000000000E+00  0.45593999997E+02  0.45594000000E+02  0.51100000000E-03 0. -1.
         11   -1    0    0    0    0 -0.00000000000E+00 -0.00000000000E+00 -0.45593999997E+02  0.45594000000E+02  0.51100000000E-03 0.  1.
    9900012    2    1    2    0    0  0.10239383062E+01  0.49246228546E+00 -0.31893967139E+00  0.90007876586E+02  0.90000139757E+02 0.  0.
        -12    1    1    2    0    0 -0.10239383062E+01 -0.49246228546E+00  0.31893967139E+00  0.11801234136E+01  0.00000000000E+00 0.  1.
         11    1    3    3    0    0  0.34705132386E+02 -0.15849173704E+02 -0.64944094582E+01  0.38701677942E+02  0.51100000000E-03 0. -1.
        -11    1    3    3    0    0  0.63995925628E+01  0.63423997158E+01  0.42236015425E+01  0.99508607355E+01  0.51100000000E-03 0.  1.
        -12    1    3    3    0    0 -0.40080786643E+02  0.99992362733E+01  0.19518682443E+01  0.41355337909E+02  0.00000000000E+00 0.  1.
</event>
<event>
 7    1  0.1756449E-015  0.9000788E+02  0.7816164E-02  0.1186339E+00
        -11   -1    0    0    0    0  0.00000000000E+00  0.00000000000E+00  0.45593999997E+02  0.45594000000E+02  0.51100000000E-03 0. -1.
         11   -1    0    0    0    0 -0.00000000000E+00 -0.00000000000E+00 -0.45593999997E+02  0.45594000000E+02  0.51100000000E-03 0.  1.
    9900012    2    1    2    0    0  0.10621910201E+01  0.45631243128E+00  0.23710245535E+00  0.90007877815E+02  0.90000141002E+02 0.  0.
        -12    1    1    2    0    0 -0.10621910201E+01 -0.45631243128E+00 -0.23710245535E+00  0.11801221854E+01  0.00000000000E+00 0.  1.
         11    1    3    3    0    0  0.81245677561E+00 -0.33852288888E+01  0.10490285254E+02  0.11052870469E+02  0.51100000000E-03 0. -1.
        -11    1    3    3    0    0  0.31981348239E+02 -0.74886900270E+01 -0.25876952580E+02  0.41815114356E+02  0.51100000000E-03 0.  1.
         12    1    3    3    0    0 -0.31731613995E+02  0.11330231347E+02  0.15623769781E+02  0.37139892989E+02  0.00000000000E+00 0. -1.
</event>
<event>
 7    1  0.1756449E-015  0.9000732E+02  0.7816164E-02  0.1186340E+00
        -11   -1    0    0    0    0  0.00000000000E+00  0.00000000000E+00  0.45593999997E+02  0.45594000000E+02  0.51100000000E-03 0. -1.
         11   -1    0    0    0    0 -0.00000000000E+00 -0.00000000000E+00 -0.45593999997E+02  0.45594000000E+02  0.51100000000E-03 0.  1.
    9900012    2    1    2    0    0 -0.21356180852E+00 -0.74929151788E+00  0.88710710928E+00  0.90007319921E+02  0.89999575743E+02 0.  0.
        -12    1    1    2    0    0  0.21356180852E+00  0.74929151788E+00 -0.88710710928E+00  0.11806800787E+01  0.00000000000E+00 0.  1.
         11    1    3    3    0    0  0.36320745176E+02  0.15631387946E+02 -0.39617718990E+01  0.39739557824E+02  0.51100000000E-03 0. -1.
        -11    1    3    3    0    0  0.36137494143E+01 -0.42676200276E+01  0.61496223669E+01  0.83120166654E+01  0.51100000000E-03 0.  1.
        -12    1    3    3    0    0 -0.40148056398E+02 -0.12113059436E+02 -0.13007433586E+01  0.41955745432E+02  0.00000000000E+00 0.  1.
</event>
<event>
 7    1  0.1756449E-015  0.9000768E+02  0.7816164E-02  0.1186339E+00
        -11   -1    0    0    0    0  0.00000000000E+00  0.00000000000E+00  0.45593999997E+02  0.45594000000E+02  0.51100000000E-03 0.  1.
         11   -1    0    0    0    0 -0.00000000000E+00 -0.00000000000E+00 -0.45593999997E+02  0.45594000000E+02  0.51100000000E-03 0. -1.
    9900012    2    1    2    0    0  0.80577696928E-01 -0.10168643995E+01 -0.59384245291E+00  0.90007680200E+02  0.89999940778E+02 0.  0.
        -12    1    1    2    0    0 -0.80577696928E-01  0.10168643995E+01  0.59384245291E+00  0.11803198004E+01  0.00000000000E+00 0.  1.
         11    1    3    3    0    0 -0.39845598537E+02  0.57192580202E+01 -0.11799145398E+02  0.41947603834E+02  0.51100000000E-03 0. -1.
        -11    1    3    3    0    0  0.27771104544E+01  0.24412757707E+01  0.90008502758E+01  0.97307489852E+01  0.51100000000E-03 0.  1.
        -12    1    3    3    0    0  0.37149065779E+02 -0.91773981905E+01  0.22044526692E+01  0.38329327380E+02  0.00000000000E+00 0.  1.
</event>
<event>
 7    1  0.1756449E-015  0.9000773E+02  0.7816164E-02  0.1186339E+00
        -11   -1    0    0    0    0  0.00000000000E+00  0.00000000000E+00  0.45593999997E+02  0.45594000000E+02  0.51100000000E-03 0.  1.
         11   -1    0    0    0    0 -0.00000000000E+00 -0.00000000000E+00 -0.45593999997E+02  0.45594000000E+02  0.51100000000E-03 0. -1.
    9900012    2    1    2    0    0 -0.61435704196E+00  0.19856155024E+00 -0.98802165066E+00  0.90007725436E+02  0.89999986612E+02 0.  0.
        -12    1    1    2    0    0  0.61435704196E+00 -0.19856155024E+00  0.98802165066E+00  0.11802745640E+01  0.00000000000E+00 0.  1.
         11    1    3    3    0    0 -0.32404817893E+02  0.22355728966E+02  0.17375058105E+02  0.43031889160E+02  0.51100000000E-03 0. -1.
        -11    1    3    3    0    0 -0.70474659813E+00  0.18237981496E+01 -0.33709804516E+01  0.38969753559E+01  0.51100000000E-03 0.  1.
        -12    1    3    3    0    0  0.32495207449E+02 -0.23980965565E+02 -0.14992099304E+02  0.43078860920E+02  0.00000000000E+00 0.  1.
</event>
<event>
 7    1  0.1756449E-015  0.9000769E+02  0.7816164E-02  0.1186339E+00
        -11   -1    0    0    0    0  0.00000000000E+00  0.00000000000E+00  0.45593999997E+02  0.45594000000E+02  0.51100000000E-03 0.  1.
         11   -1    0    0    0    0 -0.00000000000E+00 -0.00000000000E+00 -0.45593999997E+02  0.45594000000E+02  0.51100000000E-03 0. -1.
    9900012    2    1    2    0    0  0.54851904061E+00 -0.10318374458E+01  0.16604837682E+00  0.90007689144E+02  0.89999949841E+02 0.  0.
        -12    1    1    2    0    0 -0.54851904061E+00  0.10318374458E+01 -0.16604837682E+00  0.11803108556E+01  0.00000000000E+00 0.  1.
         11    1    3    3    0    0  0.70542259059E+01  0.12624814711E+02 -0.30397262195E+02  0.33662168660E+02  0.51100000000E-03 0. -1.
        -11    1    3    3    0    0  0.13617094807E+02  0.22017295752E+01 -0.30045476999E+01  0.14117371967E+02  0.51100000000E-03 0.  1.
        -12    1    3    3    0    0 -0.20122801672E+02 -0.15858381732E+02  0.33567858272E+02  0.42228148518E+02  0.00000000000E+00 0.  1.
</event>
<event>
 7    1  0.1756449E-015  0.9000775E+02  0.7816164E-02  0.1186339E+00
        -11   -1    0    0    0    0  0.00000000000E+00  0.00000000000E+00  0.45593999997E+02  0.45594000000E+02  0.51100000000E-03 0.  1.
         11   -1    0    0    0    0 -0.00000000000E+00 -0.00000000000E+00 -0.45593999997E+02  0.45594000000E+02  0.51100000000E-03 0. -1.
    9900012    2    1    2    0    0 -0.68161430969E-01 -0.25263590828E+00 -0.11508753184E+01  0.90007752195E+02  0.90000013724E+02 0.  0.
        -12    1    1    2    0    0  0.68161430969E-01  0.25263590828E+00  0.11508753184E+01  0.11802478050E+01  0.00000000000E+00 0.  1.
         11    1    3    3    0    0 -0.13872616851E+02  0.29419425631E+02 -0.23224630399E+02  0.39966680625E+02  0.51100000000E-03 0. -1.
        -11    1    3    3    0    0 -0.90915050993E+01 -0.51296491077E+01  0.11807954126E+01  0.10505381621E+02  0.51100000000E-03 0.  1.
        -12    1    3    3    0    0  0.22895960519E+02 -0.24542412432E+02  0.20892959668E+02  0.39535689949E+02  0.00000000000E+00 0.  1.
</event>
<event>
 7    1  0.1756449E-015  0.9000780E+02  0.7816164E-02  0.1186339E+00
        -11   -1    0    0    0    0  0.00000000000E+00  0.00000000000E+00  0.45593999997E+02  0.45594000000E+02  0.51100000000E-03 0.  1.
         11   -1    0    0    0    0 -0.00000000000E+00 -0.00000000000E+00 -0.45593999997E+02  0.45594000000E+02  0.51100000000E-03 0. -1.
    9900012    2    1    2    0    0 -0.10599594547E+01 -0.45136679269E+00  0.25618810918E+00  0.90007797316E+02  0.90000059441E+02 0.  0.
        -12    1    1    2    0    0  0.10599594547E+01  0.45136679269E+00 -0.25618810918E+00  0.11802026836E+01  0.00000000000E+00 0.  1.
         11    1    3    3    0    0  0.23981044523E+01  0.86403727326E+01  0.32398380408E+01  0.95343325259E+01  0.51100000000E-03 0. -1.
        -11    1    3    3    0    0  0.36567548755E+02 -0.87377456518E+00  0.94205085650E+01  0.37771617464E+02  0.51100000000E-03 0.  1.
         12    1    3    3    0    0 -0.40025612662E+02 -0.82179649601E+01 -0.12404158497E+02  0.42701847326E+02  0.00000000000E+00 0. -1.
</event>
<event>
 7    1  0.1756449E-015  0.9000774E+02  0.7816164E-02  0.1186339E+00
        -11   -1    0    0    0    0  0.00000000000E+00  0.00000000000E+00  0.45593999997E+02  0.45594000000E+02  0.51100000000E-03 0. -1.
         11   -1    0    0    0    0 -0.00000000000E+00 -0.00000000000E+00 -0.45593999997E+02  0.45594000000E+02  0.51100000000E-03 0.  1.
    9900012    2    1    2    0    0  0.19827699243E-01  0.11020567143E+01 -0.42202056701E+00  0.90007735835E+02  0.89999997148E+02 0.  0.
        -12    1    1    2    0    0 -0.19827699243E-01 -0.11020567143E+01  0.42202056701E+00  0.11802641645E+01  0.00000000000E+00 0.  1.
         11    1    3    3    0    0  0.53519792194E+01  0.21490821837E+02 -0.29435146412E+02  0.36836489373E+02  0.51100000000E-03 0. -1.
        -11    1    3    3    0    0  0.75491807837E+00  0.98543747461E+01 -0.12427626450E+01  0.99610773611E+01  0.51100000000E-03 0.  1.
        -12    1    3    3    0    0 -0.60870695986E+01 -0.30243139869E+02  0.30255888490E+02  0.43210169101E+02  0.00000000000E+00 0.  1.
</event>
<event>
 7    1  0.1756449E-015  0.9000763E+02  0.7816164E-02  0.1186339E+00
        -11   -1    0    0    0    0  0.00000000000E+00  0.00000000000E+00  0.45593999997E+02  0.45594000000E+02  0.51100000000E-03 0.  1.
         11   -1    0    0    0    0 -0.00000000000E+00 -0.00000000000E+00 -0.45593999997E+02  0.45594000000E+02  0.51100000000E-03 0. -1.
    9900012    2    1    2    0    0 -0.31868635534E-01 -0.36749485898E+00 -0.11212540787E+01  0.90007627690E+02  0.89999887575E+02 0.  0.
        -12    1    1    2    0    0  0.31868635534E-01  0.36749485898E+00  0.11212540787E+01  0.11803723100E+01  0.00000000000E+00 0.  1.
         11    1    3    3    0    0  0.35905294956E+02 -0.22196926441E+02 -0.12271491611E+02  0.43960018834E+02  0.51100000000E-03 0. -1.
        -11    1    3    3    0    0 -0.52306455178E+01  0.21355444810E+01 -0.35997619852E+01  0.66991409430E+01  0.51100000000E-03 0.  1.
        -12    1    3    3    0    0 -0.30706518073E+02  0.19693887101E+02  0.14749999517E+02  0.39348467913E+02  0.00000000000E+00 0.  1.
</event>
<event>
 7    1  0.1756449E-015  0.9000773E+02  0.7816164E-02  0.1186339E+00
        -11   -1    0    0    0    0  0.00000000000E+00  0.00000000000E+00  0.45593999997E+02  0.45594000000E+02  0.51100000000E-03 0. -1.
         11   -1    0    0    0    0 -0.00000000000E+00 -0.00000000000E+00 -0.45593999997E+02  0.45594000000E+02  0.51100000000E-03 0.  1.
    9900012    2    1    2    0    0  0.30213975792E+00  0.96917953812E+00  0.60202445751E+00  0.90007732718E+02  0.89999993989E+02 0.  0.
        -12    1    1    2    0    0 -0.30213975792E+00 -0.96917953812E+00 -0.60202445751E+00  0.11802672824E+01  0.00000000000E+00 0.  1.
         11    1    3    3    0    0 -0.14188417215E+02 -0.33935699567E+02  0.15871768693E+02  0.40060653138E+02  0.51100000000E-03 0. -1.
        -11    1    3    3    0    0  0.99561204540E+01 -0.19023269008E+01 -0.90419338948E+00  0.10176480142E+02  0.51100000000E-03 0.  1.
        -12    1    3    3    0    0  0.45344365184E+01  0.36807206006E+02 -0.14365550846E+02  0.39770599437E+02  0.00000000000E+00 0.  1.
</event>
<event>
 7    1  0.1756449E-015  0.9000786E+02  0.7816164E-02  0.1186339E+00
        -11   -1    0    0    0    0  0.00000000000E+00  0.00000000000E+00  0.45593999997E+02  0.45594000000E+02  0.51100000000E-03 0.  1.
         11   -1    0    0    0    0 -0.00000000000E+00 -0.00000000000E+00 -0.45593999997E+02  0.45594000000E+02  0.51100000000E-03 0. -1.
    9900012    2    1    2    0    0 -0.39221701069E+00  0.36229008351E-01 -0.11124710239E+01  0.90007856575E+02  0.90000119482E+02 0.  0.
        -12    1    1    2    0    0  0.39221701069E+00 -0.36229008351E-01  0.11124710239E+01  0.11801434249E+01  0.00000000000E+00 0.  1.
         11    1    3    3    0    0 -0.34223612791E+02  0.16399905958E+02  0.82320772591E+01  0.38832714097E+02  0.51100000000E-03 0. -1.
        -11    1    3    3    0    0  0.26118155639E+02  0.56032022724E+01 -0.78661298489E+01  0.27846542492E+02  0.51100000000E-03 0.  1.
        -12    1    3    3    0    0  0.77132401409E+01 -0.21966879222E+02 -0.14784184340E+01  0.23328599986E+02  0.00000000000E+00 0.  1.
</event>
<event>
 7    1  0.1756449E-015  0.9000761E+02  0.7816164E-02  0.1186339E+00
        -11   -1    0    0    0    0  0.00000000000E+00  0.00000000000E+00  0.45593999997E+02  0.45594000000E+02  0.51100000000E-03 0. -1.
         11   -1    0    0    0    0 -0.00000000000E+00 -0.00000000000E+00 -0.45593999997E+02  0.45594000000E+02  0.51100000000E-03 0.  1.
    9900012    2    1    2    0    0 -0.93418004243E+00  0.99503433104E-01 -0.71464999993E+00  0.90007611120E+02  0.89999870787E+02 0.  0.
        -12    1    1    2    0    0  0.93418004243E+00 -0.99503433104E-01  0.71464999993E+00  0.11803888797E+01  0.00000000000E+00 0.  1.
         11    1    3    3    0    0 -0.22886043563E+02  0.93159692617E+01  0.16985226286E+02  0.29984265632E+02  0.51100000000E-03 0. -1.
        -11    1    3    3    0    0 -0.58396204335E+01  0.11094893296E+02  0.98413249649E+01  0.15938930372E+02  0.51100000000E-03 0.  1.
        -12    1    3    3    0    0  0.27791483954E+02 -0.20311359125E+02 -0.27541201251E+02  0.44084415117E+02  0.00000000000E+00 0.  1.
</event>
<event>
 7    1  0.1756449E-015  0.9000777E+02  0.7816164E-02  0.1186339E+00
        -11   -1    0    0    0    0  0.00000000000E+00  0.00000000000E+00  0.45593999997E+02  0.45594000000E+02  0.51100000000E-03 0. -1.
         11   -1    0    0    0    0 -0.00000000000E+00 -0.00000000000E+00 -0.45593999997E+02  0.45594000000E+02  0.51100000000E-03 0.  1.
    9900012    2    1    2    0    0 -0.24789990431E+00  0.11052248416E+01 -0.33159692228E+00  0.90007774245E+02  0.90000036065E+02 0.  0.
        -12    1    1    2    0    0  0.24789990431E+00 -0.11052248416E+01  0.33159692228E+00  0.11802257546E+01  0.00000000000E+00 0.  1.
         11    1    3    3    0    0  0.18351147485E+02 -0.36066292637E+02  0.61215410249E+01  0.40926951308E+02  0.51100000000E-03 0. -1.
        -11    1    3    3    0    0  0.63237270554E+01  0.66958597788E+01 -0.23045166344E+01  0.94939380253E+01  0.51100000000E-03 0.  1.
        -12    1    3    3    0    0 -0.24922774444E+02  0.30475657700E+02 -0.41486213128E+01  0.39586884912E+02  0.00000000000E+00 0.  1.
</event>
<event>
 7    1  0.1756449E-015  0.9000771E+02  0.7816164E-02  0.1186339E+00
        -11   -1    0    0    0    0  0.00000000000E+00  0.00000000000E+00  0.45593999997E+02  0.45594000000E+02  0.51100000000E-03 0.  1.
         11   -1    0    0    0    0 -0.00000000000E+00 -0.00000000000E+00 -0.45593999997E+02  0.45594000000E+02  0.51100000000E-03 0. -1.
    9900012    2    1    2    0    0  0.10892747587E+00  0.56230056378E+00 -0.10320041044E+01  0.90007712073E+02  0.89999973072E+02 0.  0.
        -12    1    1    2    0    0 -0.10892747587E+00 -0.56230056378E+00  0.10320041044E+01  0.11802879270E+01  0.00000000000E+00 0.  1.
         11    1    3    3    0    0  0.33442791510E+02  0.22739714451E+02 -0.19888736214E+01  0.40490375842E+02  0.51100000000E-03 0. -1.
        -11    1    3    3    0    0 -0.18912633849E+01 -0.78036675739E+00  0.10179115387E+02  0.10382689429E+02  0.51100000000E-03 0.  1.
        -12    1    3    3    0    0 -0.31442600649E+02 -0.21397047130E+02 -0.92222458699E+01  0.39134646802E+02  0.00000000000E+00 0.  1.
</event>
<event>
 7    1  0.1756449E-015  0.9000767E+02  0.7816164E-02  0.1186339E+00
        -11   -1    0    0    0    0  0.00000000000E+00  0.00000000000E+00  0.45593999997E+02  0.45594000000E+02  0.51100000000E-03 0.  1.
         11   -1    0    0    0    0 -0.00000000000E+00 -0.00000000000E+00 -0.45593999997E+02  0.45594000000E+02  0.51100000000E-03 0. -1.
    9900012    2    1    2    0    0  0.19974133181E-01 -0.11213376507E+01 -0.36794912709E+00  0.90007667990E+02  0.89999928408E+02 0.  0.
        -12    1    1    2    0    0 -0.19974133181E-01  0.11213376507E+01  0.36794912709E+00  0.11803320097E+01  0.00000000000E+00 0.  1.
         11    1    3    3    0    0 -0.90104404435E+01 -0.40991972673E+01  0.40706262013E+01  0.10703338412E+02  0.51100000000E-03 0. -1.
        -11    1    3    3    0    0 -0.16961175285E+02  0.26075285328E+02  0.19840676026E+02  0.36895181222E+02  0.51100000000E-03 0.  1.
         12    1    3    3    0    0  0.25991589862E+02 -0.23097425711E+02 -0.24279251355E+02  0.42409148357E+02  0.00000000000E+00 0. -1.
</event>
<event>
 7    1  0.1756449E-015  0.9000775E+02  0.7816164E-02  0.1186339E+00
        -11   -1    0    0    0    0  0.00000000000E+00  0.00000000000E+00  0.45593999997E+02  0.45594000000E+02  0.51100000000E-03 0. -1.
         11   -1    0    0    0    0 -0.00000000000E+00 -0.00000000000E+00 -0.45593999997E+02  0.45594000000E+02  0.51100000000E-03 0.  1.
    9900012    2    1    2    0    0 -0.75145825777E+00 -0.43177736076E-01  0.90908766409E+00  0.90007748243E+02  0.90000009719E+02 0.  0.
        -12    1    1    2    0    0  0.75145825777E+00  0.43177736076E-01 -0.90908766409E+00  0.11802517575E+01  0.00000000000E+00 0.  1.
         11    1    3    3    0    0 -0.22171279262E+02 -0.37771598184E+01  0.28369356210E+02  0.36202940936E+02  0.51100000000E-03 0. -1.
        -11    1    3    3    0    0  0.17218482109E+02  0.11879722387E+02  0.37712421456E+01  0.21256203746E+02  0.51100000000E-03 0.  1.
        -12    1    3    3    0    0  0.42013388950E+01 -0.81457403044E+01 -0.31231510692E+02  0.32548603560E+02  0.00000000000E+00 0.  1.
</event>
<event>
 7    1  0.1756449E-015  0.9000771E+02  0.7816164E-02  0.1186339E+00
        -11   -1    0    0    0    0  0.00000000000E+00  0.00000000000E+00  0.45593999997E+02  0.45594000000E+02  0.51100000000E-03 0. -1.
         11   -1    0    0    0    0 -0.00000000000E+00 -0.00000000000E+00 -0.45593999997E+02  0.45594000000E+02  0.51100000000E-03 0.  1.
    9900012    2    1    2    0    0  0.34543038124E+00  0.96935999946E+00  0.57800696098E+00  0.90007714863E+02  0.89999975900E+02 0.  0.
        -12    1    1    2    0    0 -0.34543038124E+00 -0.96935999946E+00 -0.57800696098E+00  0.11802851366E+01  0.00000000000E+00 0.  1.
         11    1    3    3    0    0 -0.26152238461E+02 -0.11624773550E+02  0.15263726789E+02  0.32435417253E+02  0.51100000000E-03 0. -1.
        -11    1    3    3    0    0 -0.11134963306E+02  0.22543415148E+01  0.65784580345E+01  0.13128045318E+02  0.51100000000E-03 0.  1.
        -12    1    3    3    0    0  0.37632632148E+02  0.10339792035E+02 -0.21264177863E+02  0.44444252293E+02  0.00000000000E+00 0.  1.
</event>
<event>
 7    1  0.1756449E-015  0.9000795E+02  0.7816164E-02  0.1186339E+00
        -11   -1    0    0    0    0  0.00000000000E+00  0.00000000000E+00  0.45593999997E+02  0.45594000000E+02  0.51100000000E-03 0. -1.
         11   -1    0    0    0    0 -0.00000000000E+00 -0.00000000000E+00 -0.45593999997E+02  0.45594000000E+02  0.51100000000E-03 0.  1.
    9900012    2    1    2    0    0  0.30368577674E-01 -0.11278280842E+01 -0.34581585152E+00  0.90007954644E+02  0.90000218845E+02 0.  0.
        -12    1    1    2    0    0 -0.30368577674E-01  0.11278280842E+01  0.34581585152E+00  0.11800453556E+01  0.00000000000E+00 0.  1.
         11    1    3    3    0    0 -0.17259025665E+02  0.20112369672E+02  0.12772197809E+02  0.29419558424E+02  0.51100000000E-03 0.  1.
        -11    1    3    3    0    0  0.27681773614E+02 -0.28270434624E+02 -0.21947708979E+02  0.45245994231E+02  0.51100000000E-03 0. -1.
         12    1    3    3    0    0 -0.10392379371E+02  0.70302368677E+01  0.88296953178E+01  0.15342401989E+02  0.00000000000E+00 0. -1.
</event>
<event>
 7    1  0.1756449E-015  0.9000772E+02  0.7816164E-02  0.1186339E+00
        -11   -1    0    0    0    0  0.00000000000E+00  0.00000000000E+00  0.45593999997E+02  0.45594000000E+02  0.51100000000E-03 0.  1.
         11   -1    0    0    0    0 -0.00000000000E+00 -0.00000000000E+00 -0.45593999997E+02  0.45594000000E+02  0.51100000000E-03 0. -1.
    9900012    2    1    2    0    0  0.11621855634E+01 -0.18798519649E+00  0.83968550091E-01  0.90007718493E+02  0.89999979577E+02 0.  0.
        -12    1    1    2    0    0 -0.11621855634E+01  0.18798519649E+00 -0.83968550091E-01  0.11802815068E+01  0.00000000000E+00 0.  1.
         11    1    3    3    0    0  0.17553451550E+02 -0.20283738086E+02 -0.24013912214E+02  0.36003078648E+02  0.51100000000E-03 0. -1.
        -11    1    3    3    0    0  0.76636880809E+01  0.15724246638E+01 -0.70333216187E+01  0.10520087812E+02  0.51100000000E-03 0.  1.
        -12    1    3    3    0    0 -0.24054954067E+02  0.18523328226E+02  0.31131202382E+02  0.43484552033E+02  0.00000000000E+00 0.  1.
</event>
<event>
 7    1  0.1756449E-015  0.9000779E+02  0.7816164E-02  0.1186339E+00
        -11   -1    0    0    0    0  0.00000000000E+00  0.00000000000E+00  0.45593999997E+02  0.45594000000E+02  0.51100000000E-03 0.  1.
         11   -1    0    0    0    0 -0.00000000000E+00 -0.00000000000E+00 -0.45593999997E+02  0.45594000000E+02  0.51100000000E-03 0. -1.
    9900012    2    1    2    0    0  0.26932775747E+00 -0.10918980900E+01 -0.35794811035E+00  0.90007785727E+02  0.90000047699E+02 0.  0.
        -12    1    1    2    0    0 -0.26932775747E+00  0.10918980900E+01  0.35794811035E+00  0.11802142727E+01  0.00000000000E+00 0.  1.
         11    1    3    3    0    0 -0.86097281372E+01  0.39344145227E+00 -0.31349827255E+01  0.91711685037E+01  0.51100000000E-03 0. -1.
        -11    1    3    3    0    0  0.55038882278E+01  0.16346008176E+02  0.37712050171E+02  0.41469066752E+02  0.51100000000E-03 0.  1.
         12    1    3    3    0    0  0.33751676669E+01 -0.17831347718E+02 -0.34935015556E+02  0.39367550472E+02  0.00000000000E+00 0. -1.
</event>
<event>
 7    1  0.1756449E-015  0.9000775E+02  0.7816164E-02  0.1186339E+00
        -11   -1    0    0    0    0  0.00000000000E+00  0.00000000000E+00  0.45593999997E+02  0.45594000000E+02  0.51100000000E-03 0. -1.
         11   -1    0    0    0    0 -0.00000000000E+00 -0.00000000000E+00 -0.45593999997E+02  0.45594000000E+02  0.51100000000E-03 0.  1.
    9900012    2    1    2    0    0  0.10996456929E+01 -0.39824939513E+00  0.15864522902E+00  0.90007749374E+02  0.90000010866E+02 0.  0.
        -12    1    1    2    0    0 -0.10996456929E+01  0.39824939513E+00 -0.15864522902E+00  0.11802506256E+01  0.00000000000E+00 0.  1.
         11    1    3    3    0    0 -0.13394751277E+02  0.26691003709E+02  0.19422926694E+02  0.35624136796E+02  0.51100000000E-03 0. -1.
        -11    1    3    3    0    0  0.23329128126E+00  0.47731079780E+01  0.85195161858E+01  0.97682721550E+01  0.51100000000E-03 0.  1.
        -12    1    3    3    0    0  0.14261105689E+02 -0.31862361082E+02 -0.27783797651E+02  0.44615340424E+02  0.00000000000E+00 0.  1.
</event>
<event>
 7    1  0.1756449E-015  0.9000782E+02  0.7816164E-02  0.1186339E+00
        -11   -1    0    0    0    0  0.00000000000E+00  0.00000000000E+00  0.45593999997E+02  0.45594000000E+02  0.51100000000E-03 0.  1.
         11   -1    0    0    0    0 -0.00000000000E+00 -0.00000000000E+00 -0.45593999997E+02  0.45594000000E+02  0.51100000000E-03 0. -1.
    9900012    2    1    2    0    0  0.11621658174E+00 -0.39847681414E+00 -0.11047758917E+01  0.90007822117E+02  0.90000084569E+02 0.  0.
        -12    1    1    2    0    0 -0.11621658174E+00  0.39847681414E+00  0.11047758917E+01  0.11801778832E+01  0.00000000000E+00 0.  1.
         11    1    3    3    0    0  0.36116709457E+01  0.95444512774E+01 -0.12362878873E+02  0.16030642267E+02  0.51100000000E-03 0. -1.
        -11    1    3    3    0    0 -0.65615189112E+01  0.25076173400E+02 -0.15137948950E+02  0.30017086825E+02  0.51100000000E-03 0.  1.
        -12    1    3    3    0    0  0.30660645472E+01 -0.35019101491E+02  0.26396051932E+02  0.43960093024E+02  0.00000000000E+00 0.  1.
</event>
<event>
 7    1  0.1756449E-015  0.9000756E+02  0.7816164E-02  0.1186339E+00
        -11   -1    0    0    0    0  0.00000000000E+00  0.00000000000E+00  0.45593999997E+02  0.45594000000E+02  0.51100000000E-03 0.  1.
         11   -1    0    0    0    0 -0.00000000000E+00 -0.00000000000E+00 -0.45593999997E+02  0.45594000000E+02  0.51100000000E-03 0. -1.
    9900012    2    1    2    0    0  0.71313814918E+00  0.40614328220E+00  0.84848015513E+00  0.90007560692E+02  0.89999819693E+02 0.  0.
        -12    1    1    2    0    0 -0.71313814918E+00 -0.40614328220E+00 -0.84848015513E+00  0.11804393077E+01  0.00000000000E+00 0.  1.
         11    1    3    3    0    0  0.15032393149E+01 -0.26901102440E+02 -0.25770642474E+02  0.37283442099E+02  0.51100000000E-03 0. -1.
        -11    1    3    3    0    0 -0.82442434563E+01 -0.39015108101E+01 -0.24325058252E+01  0.94396197815E+01  0.51100000000E-03 0.  1.
        -12    1    3    3    0    0  0.74541422906E+01  0.31208756533E+02  0.29051628454E+02  0.43284498812E+02  0.00000000000E+00 0.  1.
</event>
<event>
 7    1  0.1756449E-015  0.9000766E+02  0.7816164E-02  0.1186339E+00
        -11   -1    0    0    0    0  0.00000000000E+00  0.00000000000E+00  0.45593999997E+02  0.45594000000E+02  0.51100000000E-03 0.  1.
         11   -1    0    0    0    0 -0.00000000000E+00 -0.00000000000E+00 -0.45593999997E+02  0.45594000000E+02  0.51100000000E-03 0. -1.
    9900012    2    1    2    0    0 -0.11616557488E+01 -0.20807029119E+00 -0.21354761237E-01  0.90007663882E+02  0.89999924246E+02 0.  0.
        -12    1    1    2    0    0  0.11616557488E+01  0.20807029119E+00  0.21354761237E-01  0.11803361176E+01  0.00000000000E+00 0.  1.
         11    1    3    3    0    0  0.24568983277E+02  0.99686488579E+01 -0.27868446359E+02  0.38466338558E+02  0.51100000000E-03 0. -1.
        -11    1    3    3    0    0 -0.53276545029E+01  0.74822213269E+00 -0.75372074674E+01  0.92603042893E+01  0.51100000000E-03 0.  1.
        -12    1    3    3    0    0 -0.20402984523E+02 -0.10924941282E+02  0.35384299065E+02  0.42281021035E+02  0.00000000000E+00 0.  1.
</event>
<event>
 7    1  0.1756449E-015  0.9000774E+02  0.7816164E-02  0.1186339E+00
        -11   -1    0    0    0    0  0.00000000000E+00  0.00000000000E+00  0.45593999997E+02  0.45594000000E+02  0.51100000000E-03 0.  1.
         11   -1    0    0    0    0 -0.00000000000E+00 -0.00000000000E+00 -0.45593999997E+02  0.45594000000E+02  0.51100000000E-03 0. -1.
    9900012    2    1    2    0    0 -0.40156236928E+00 -0.92712037884E+00 -0.61009249647E+00  0.90007738424E+02  0.89999999771E+02 0.  0.
        -12    1    1    2    0    0  0.40156236928E+00  0.92712037884E+00  0.61009249647E+00  0.11802615759E+01  0.00000000000E+00 0.  1.
         11    1    3    3    0    0  0.35496797466E+02 -0.77982447723E+01 -0.20271122921E+02  0.41614344601E+02  0.51100000000E-03 0. -1.
        -11    1    3    3    0    0 -0.26289830074E+01  0.23991885555E+01  0.13881996080E+02  0.14330996923E+02  0.51100000000E-03 0.  1.
        -12    1    3    3    0    0 -0.33269376828E+02  0.44719358379E+01  0.57790343448E+01  0.34062396900E+02  0.00000000000E+00 0.  1.
</event>
<event>
 7    1  0.1756449E-015  0.9000771E+02  0.7816164E-02  0.1186339E+00
        -11   -1    0    0    0    0  0.00000000000E+00  0.00000000000E+00  0.45593999997E+02  0.45594000000E+02  0.51100000000E-03 0.  1.
         11   -1    0    0    0    0 -0.00000000000E+00 -0.00000000000E+00 -0.45593999997E+02  0.45594000000E+02  0.51100000000E-03 0. -1.
    9900012    2    1    2    0    0 -0.11582686937E+01 -0.22609982925E+00 -0.19407517277E-01  0.90007710141E+02  0.89999971115E+02 0.  0.
        -12    1    1    2    0    0  0.11582686937E+01  0.22609982925E+00  0.19407517277E-01  0.11802898590E+01  0.00000000000E+00 0.  1.
         11    1    3    3    0    0  0.45124546916E+01 -0.53328847009E+00  0.18657561488E+01  0.49119945240E+01  0.51100000000E-03 0. -1.
        -11    1    3    3    0    0  0.56746026243E+01  0.27396459978E+02  0.30492004249E+02  0.41382719312E+02  0.51100000000E-03 0.  1.
         12    1    3    3    0    0 -0.11345326010E+02 -0.27089271337E+02 -0.32377167915E+02  0.43712996305E+02  0.00000000000E+00 0. -1.
</event>
<event>
 7    1  0.1756449E-015  0.9000764E+02  0.7816164E-02  0.1186339E+00
        -11   -1    0    0    0    0  0.00000000000E+00  0.00000000000E+00  0.45593999997E+02  0.45594000000E+02  0.51100000000E-03 0. -1.
         11   -1    0    0    0    0 -0.00000000000E+00 -0.00000000000E+00 -0.45593999997E+02  0.45594000000E+02  0.51100000000E-03 0.  1.
    9900012    2    1    2    0    0  0.31392033094E+00 -0.10579299122E+01  0.41890855245E+00  0.90007641559E+02  0.89999901628E+02 0.  0.
        -12    1    1    2    0    0 -0.31392033094E+00  0.10579299122E+01 -0.41890855245E+00  0.11803584407E+01  0.00000000000E+00 0.  1.
         11    1    3    3    0    0 -0.29853304718E+02 -0.18881489475E+02  0.15758649956E+02  0.38679005882E+02  0.51100000000E-03 0. -1.
        -11    1    3    3    0    0  0.13717646812E+01 -0.14000791423E+01  0.88682565605E+01  0.90822868613E+01  0.51100000000E-03 0.  1.
        -12    1    3    3    0    0  0.28795460367E+02  0.19223638705E+02 -0.24207997964E+02  0.42246348816E+02  0.00000000000E+00 0.  1.
</event>
<event>
 7    1  0.1756449E-015  0.9000794E+02  0.7816164E-02  0.1186339E+00
        -11   -1    0    0    0    0  0.00000000000E+00  0.00000000000E+00  0.45593999997E+02  0.45594000000E+02  0.51100000000E-03 0. -1.
         11   -1    0    0    0    0 -0.00000000000E+00 -0.00000000000E+00 -0.45593999997E+02  0.45594000000E+02  0.51100000000E-03 0.  1.
    9900012    2    1    2    0    0  0.84332545181E+00  0.82473026886E+00  0.34019028044E-01  0.90007942744E+02  0.90000206788E+02 0.  0.
        -12    1    1    2    0    0 -0.84332545181E+00 -0.82473026886E+00 -0.34019028044E-01  0.11800572564E+01  0.00000000000E+00 0.  1.
         11    1    3    3    0    0  0.65398813515E+01 -0.95245835776E+01  0.80742862013E+00  0.11581868660E+02  0.51100000000E-03 0. -1.
        -11    1    3    3    0    0 -0.12617518928E+02  0.54256812478E+01 -0.37914830814E+02  0.40325850231E+02  0.51100000000E-03 0.  1.
         12    1    3    3    0    0  0.69209630288E+01  0.49236325987E+01  0.37141421222E+02  0.38100223853E+02  0.00000000000E+00 0. -1.
</event>
<event>
 7    1  0.1756449E-015  0.9000799E+02  0.7816164E-02  0.1186339E+00
        -11   -1    0    0    0    0  0.00000000000E+00  0.00000000000E+00  0.45593999997E+02  0.45594000000E+02  0.51100000000E-03 0.  1.
         11   -1    0    0    0    0 -0.00000000000E+00 -0.00000000000E+00 -0.45593999997E+02  0.45594000000E+02  0.51100000000E-03 0. -1.
    9900012    2    1    2    0    0  0.99166837027E+00  0.16530270570E+00 -0.61781523281E+00  0.90007988643E+02  0.90000253293E+02 0.  0.
        -12    1    1    2    0    0 -0.99166837027E+00 -0.16530270570E+00  0.61781523281E+00  0.11800113571E+01  0.00000000000E+00 0.  1.
         11    1    3    3    0    0  0.72751126151E+01 -0.32719199769E+01  0.62313685811E+01  0.10122385023E+02  0.51100000000E-03 0. -1.
        -11    1    3    3    0    0  0.12603450753E+02  0.34883790081E+02  0.11549911002E+02  0.38847473865E+02  0.51100000000E-03 0.  1.
         12    1    3    3    0    0 -0.18886894998E+02 -0.31446567398E+02 -0.18399094816E+02  0.41038129755E+02  0.00000000000E+00 0. -1.
</event>
<event>
 7    1  0.1756449E-015  0.9000732E+02  0.7816164E-02  0.1186340E+00
        -11   -1    0    0    0    0  0.00000000000E+00  0.00000000000E+00  0.45593999997E+02  0.45594000000E+02  0.51100000000E-03 0. -1.
         11   -1    0    0    0    0 -0.00000000000E+00 -0.00000000000E+00 -0.45593999997E+02  0.45594000000E+02  0.51100000000E-03 0.  1.
    9900012    2    1    2    0    0  0.10848136447E+01  0.43667171047E+00 -0.16282567564E+00  0.90007315865E+02  0.89999571633E+02 0.  0.
        -12    1    1    2    0    0 -0.10848136447E+01 -0.43667171047E+00  0.16282567564E+00  0.11806841352E+01  0.00000000000E+00 0.  1.
         11    1    3    3    0    0 -0.10836772867E+02  0.22841928035E+02  0.28765057314E+02  0.38296446899E+02  0.51100000000E-03 0. -1.
        -11    1    3    3    0    0  0.47832847181E+01 -0.39124370576E+01  0.78143243348E+01  0.99624616182E+01  0.51100000000E-03 0.  1.
        -12    1    3    3    0    0  0.71383017938E+01 -0.18492819267E+02 -0.36742207325E+02  0.41748407347E+02  0.00000000000E+00 0.  1.
</event>
<event>
 7    1  0.1756449E-015  0.9000770E+02  0.7816164E-02  0.1186339E+00
        -11   -1    0    0    0    0  0.00000000000E+00  0.00000000000E+00  0.45593999997E+02  0.45594000000E+02  0.51100000000E-03 0. -1.
         11   -1    0    0    0    0 -0.00000000000E+00 -0.00000000000E+00 -0.45593999997E+02  0.45594000000E+02  0.51100000000E-03 0.  1.
    9900012    2    1    2    0    0  0.97261841069E+00 -0.59481128075E+00  0.30546607064E+00  0.90007704887E+02  0.89999965792E+02 0.  0.
        -12    1    1    2    0    0 -0.97261841069E+00  0.59481128075E+00 -0.30546607064E+00  0.11802951126E+01  0.00000000000E+00 0.  1.
         11    1    3    3    0    0  0.21447270736E+01 -0.38777103255E+00 -0.83771129163E+01  0.86559945510E+01  0.51100000000E-03 0. -1.
        -11    1    3    3    0    0 -0.24835342912E+02  0.79655160109E+01 -0.27144861453E+02  0.37644218765E+02  0.51100000000E-03 0.  1.
         12    1    3    3    0    0  0.23663234250E+02 -0.81725562591E+01  0.35827440440E+02  0.43707491571E+02  0.00000000000E+00 0. -1.
</event>
<event>
 7    1  0.1756449E-015  0.9000777E+02  0.7816164E-02  0.1186339E+00
        -11   -1    0    0    0    0  0.00000000000E+00  0.00000000000E+00  0.45593999997E+02  0.45594000000E+02  0.51100000000E-03 0.  1.
         11   -1    0    0    0    0 -0.00000000000E+00 -0.00000000000E+00 -0.45593999997E+02  0.45594000000E+02  0.51100000000E-03 0. -1.
    9900012    2    1    2    0    0 -0.41324407329E+00  0.10250255327E+01  0.41410950527E+00  0.90007773459E+02  0.90000035268E+02 0.  0.
        -12    1    1    2    0    0  0.41324407329E+00 -0.10250255327E+01 -0.41410950527E+00  0.11802265415E+01  0.00000000000E+00 0.  1.
         11    1    3    3    0    0  0.41613341520E+01 -0.16696383419E+02 -0.35230308888E+02  0.39207914836E+02  0.51100000000E-03 0. -1.
        -11    1    3    3    0    0  0.84410862669E+00  0.85232385401E+01 -0.42076522317E+01  0.95426648348E+01  0.51100000000E-03 0.  1.
        -12    1    3    3    0    0 -0.54186868519E+01  0.91981704112E+01  0.39852070625E+02  0.41257193788E+02  0.00000000000E+00 0.  1.
</event>
<event>
 7    1  0.1756449E-015  0.9000776E+02  0.7816164E-02  0.1186339E+00
        -11   -1    0    0    0    0  0.00000000000E+00  0.00000000000E+00  0.45593999997E+02  0.45594000000E+02  0.51100000000E-03 0.  1.
         11   -1    0    0    0    0 -0.00000000000E+00 -0.00000000000E+00 -0.45593999997E+02  0.45594000000E+02  0.51100000000E-03 0. -1.
    9900012    2    1    2    0    0 -0.33315720124E+00 -0.96802799566E+00 -0.58727570225E+00  0.90007760757E+02  0.90000022399E+02 0.  0.
        -12    1    1    2    0    0  0.33315720124E+00  0.96802799566E+00  0.58727570225E+00  0.11802392434E+01  0.00000000000E+00 0.  1.
         11    1    3    3    0    0 -0.53110829469E+01  0.92903059614E+01  0.25660673850E+01  0.11004639431E+02  0.51100000000E-03 0. -1.
        -11    1    3    3    0    0  0.39868096958E+02 -0.38820422660E+01 -0.13138547209E+02  0.42156337961E+02  0.51100000000E-03 0.  1.
         12    1    3    3    0    0 -0.34890171213E+02 -0.63762916911E+01  0.99852041218E+01  0.36846783365E+02  0.00000000000E+00 0. -1.
</event>
<event>
 7    1  0.1756449E-015  0.9000765E+02  0.7816164E-02  0.1186339E+00
        -11   -1    0    0    0    0  0.00000000000E+00  0.00000000000E+00  0.45593999997E+02  0.45594000000E+02  0.51100000000E-03 0.  1.
         11   -1    0    0    0    0 -0.00000000000E+00 -0.00000000000E+00 -0.45593999997E+02  0.45594000000E+02  0.51100000000E-03 0. -1.
    9900012    2    1    2    0    0  0.85786054910E+00  0.77205999857E+00 -0.24745917832E+00  0.90007645219E+02  0.89999905336E+02 0.  0.
        -12    1    1    2    0    0 -0.85786054910E+00 -0.77205999857E+00  0.24745917832E+00  0.11803547806E+01  0.00000000000E+00 0.  1.
         11    1    3    3    0    0 -0.79013135738E+01 -0.14231884155E+01 -0.54698605115E+01  0.97147102754E+01  0.51100000000E-03 0. -1.
        -11    1    3    3    0    0 -0.26323769725E+02 -0.10743388216E+02  0.25116988473E+02  0.37937110500E+02  0.51100000000E-03 0.  1.
         12    1    3    3    0    0  0.35082943847E+02  0.12938636630E+02 -0.19894587140E+02  0.42355824444E+02  0.00000000000E+00 0. -1.
</event>
<event>
 7    1  0.1756449E-015  0.9000785E+02  0.7816164E-02  0.1186339E+00
        -11   -1    0    0    0    0  0.00000000000E+00  0.00000000000E+00  0.45593999997E+02  0.45594000000E+02  0.51100000000E-03 0.  1.
         11   -1    0    0    0    0 -0.00000000000E+00 -0.00000000000E+00 -0.45593999997E+02  0.45594000000E+02  0.51100000000E-03 0. -1.
    9900012    2    1    2    0    0  0.11630462143E+01 -0.16894115888E+00  0.10745641335E+00  0.90007845564E+02  0.90000108326E+02 0.  0.
        -12    1    1    2    0    0 -0.11630462143E+01  0.16894115888E+00 -0.10745641335E+00  0.11801544359E+01  0.00000000000E+00 0.  1.
         11    1    3    3    0    0  0.90320363851E+00 -0.92838409786E+01  0.34180472528E+01  0.99342099541E+01  0.51100000000E-03 0. -1.
        -11    1    3    3    0    0  0.10386275360E+02 -0.74773163662E+01  0.34916636604E+02  0.37188122941E+02  0.51100000000E-03 0.  1.
         12    1    3    3    0    0 -0.10126432784E+02  0.16592216186E+02 -0.38227227443E+02  0.42885512669E+02  0.00000000000E+00 0. -1.
</event>
<event>
 7    1  0.1756449E-015  0.9000768E+02  0.7816164E-02  0.1186339E+00
        -11   -1    0    0    0    0  0.00000000000E+00  0.00000000000E+00  0.45593999997E+02  0.45594000000E+02  0.51100000000E-03 0.  1.
         11   -1    0    0    0    0 -0.00000000000E+00 -0.00000000000E+00 -0.45593999997E+02  0.45594000000E+02  0.51100000000E-03 0. -1.
    9900012    2    1    2    0    0 -0.10315493517E+01 -0.33485858533E+00 -0.46574939331E+00  0.90007683587E+02  0.89999944210E+02 0.  0.
        -12    1    1    2    0    0  0.10315493517E+01  0.33485858533E+00  0.46574939331E+00  0.11803164129E+01  0.00000000000E+00 0.  1.
         11    1    3    3    0    0  0.70704575645E+00 -0.81524510977E+01  0.13692192048E+02  0.15951128360E+02  0.51100000000E-03 0. -1.
        -11    1    3    3    0    0 -0.14576303488E+02 -0.29674643224E+02 -0.64838847097E+01  0.33691153661E+02  0.51100000000E-03 0.  1.
         12    1    3    3    0    0  0.12837708379E+02  0.37492235736E+02 -0.76740567317E+01  0.40365401567E+02  0.00000000000E+00 0. -1.
</event>
<event>
 7    1  0.1756449E-015  0.9000773E+02  0.7816164E-02  0.1186339E+00
        -11   -1    0    0    0    0  0.00000000000E+00  0.00000000000E+00  0.45593999997E+02  0.45594000000E+02  0.51100000000E-03 0.  1.
         11   -1    0    0    0    0 -0.00000000000E+00 -0.00000000000E+00 -0.45593999997E+02  0.45594000000E+02  0.51100000000E-03 0. -1.
    9900012    2    1    2    0    0 -0.17548008609E-01  0.10308185833E+01 -0.57458131921E+00  0.90007729448E+02  0.89999990676E+02 0.  0.
        -12    1    1    2    0    0  0.17548008609E-01 -0.10308185833E+01  0.57458131921E+00  0.11802705523E+01  0.00000000000E+00 0.  1.
         11    1    3    3    0    0  0.13152458688E+02  0.44133731549E+01 -0.13054524268E+02  0.19049557377E+02  0.51100000000E-03 0. -1.
        -11    1    3    3    0    0 -0.28308612194E+01 -0.35336254844E+02  0.11815912431E+02  0.37366836479E+02  0.51100000000E-03 0.  1.
         12    1    3    3    0    0 -0.10339145477E+02  0.31953700272E+02  0.66403051826E+00  0.33591335591E+02  0.00000000000E+00 0. -1.
</event>
<event>
 7    1  0.1756449E-015  0.9000793E+02  0.7816164E-02  0.1186339E+00
        -11   -1    0    0    0    0  0.00000000000E+00  0.00000000000E+00  0.45593999997E+02  0.45594000000E+02  0.51100000000E-03 0. -1.
         11   -1    0    0    0    0 -0.00000000000E+00 -0.00000000000E+00 -0.45593999997E+02  0.45594000000E+02  0.51100000000E-03 0.  1.
    9900012    2    1    2    0    0 -0.33327664711E+00  0.10294485945E+01 -0.47088996140E+00  0.90007925812E+02  0.90000189633E+02 0.  0.
        -12    1    1    2    0    0  0.33327664711E+00 -0.10294485945E+01  0.47088996140E+00  0.11800741875E+01  0.00000000000E+00 0.  1.
         11    1    3    3    0    0  0.16236101263E+02  0.25072829370E+02 -0.74580552271E+01  0.30787665466E+02  0.51100000000E-03 0. -1.
        -11    1    3    3    0    0  0.14782730450E+02 -0.38842867602E+01  0.14644600496E+02  0.21167926851E+02  0.51100000000E-03 0.  1.
        -12    1    3    3    0    0 -0.31352108360E+02 -0.20159094016E+02 -0.76574352303E+01  0.38052333495E+02  0.00000000000E+00 0.  1.
</event>
<event>
 7    1  0.1756449E-015  0.9000776E+02  0.7816164E-02  0.1186339E+00
        -11   -1    0    0    0    0  0.00000000000E+00  0.00000000000E+00  0.45593999997E+02  0.45594000000E+02  0.51100000000E-03 0.  1.
         11   -1    0    0    0    0 -0.00000000000E+00 -0.00000000000E+00 -0.45593999997E+02  0.45594000000E+02  0.51100000000E-03 0. -1.
    9900012    2    1    2    0    0  0.76986562158E+00 -0.86975940973E+00  0.20924195208E+00  0.90007764133E+02  0.90000025820E+02 0.  0.
        -12    1    1    2    0    0 -0.76986562158E+00  0.86975940973E+00 -0.20924195208E+00  0.11802358665E+01  0.00000000000E+00 0.  1.
         11    1    3    3    0    0  0.82770376005E+01  0.11811686118E+01  0.56986669548E+01  0.10118266455E+02  0.51100000000E-03 0. -1.
        -11    1    3    3    0    0 -0.16901222816E+02  0.13193406825E+02  0.31898496484E+02  0.38434768043E+02  0.51100000000E-03 0.  1.
         12    1    3    3    0    0  0.93940508371E+01 -0.15244334846E+02 -0.37387921487E+02  0.41454729635E+02  0.00000000000E+00 0. -1.
</event>
<event>
 7    1  0.1756449E-015  0.9000766E+02  0.7816164E-02  0.1186339E+00
        -11   -1    0    0    0    0  0.00000000000E+00  0.00000000000E+00  0.45593999997E+02  0.45594000000E+02  0.51100000000E-03 0. -1.
         11   -1    0    0    0    0 -0.00000000000E+00 -0.00000000000E+00 -0.45593999997E+02  0.45594000000E+02  0.51100000000E-03 0.  1.
    9900012    2    1    2    0    0  0.88093052215E+00 -0.48019263367E+00  0.62175425821E+00  0.90007660257E+02  0.89999920573E+02 0.  0.
        -12    1    1    2    0    0 -0.88093052215E+00  0.48019263367E+00 -0.62175425821E+00  0.11803397426E+01  0.00000000000E+00 0.  1.
         11    1    3    3    0    0 -0.53110492189E+00  0.27476236473E+01 -0.80607282276E+01  0.85326928906E+01  0.51100000000E-03 0. -1.
        -11    1    3    3    0    0 -0.11871034753E+02 -0.22942935450E+02 -0.27788278141E+02  0.37940587179E+02  0.51100000000E-03 0.  1.
         12    1    3    3    0    0  0.13283070197E+02  0.19715119169E+02  0.36470760626E+02  0.43534380188E+02  0.00000000000E+00 0. -1.
</event>
<event>
 7    1  0.1756449E-015  0.9000774E+02  0.7816164E-02  0.1186339E+00
        -11   -1    0    0    0    0  0.00000000000E+00  0.00000000000E+00  0.45593999997E+02  0.45594000000E+02  0.51100000000E-03 0.  1.
         11   -1    0    0    0    0 -0.00000000000E+00 -0.00000000000E+00 -0.45593999997E+02  0.45594000000E+02  0.51100000000E-03 0. -1.
    9900012    2    1    2    0    0  0.37206942073E+00 -0.13078716030E+00 -0.11124163499E+01  0.90007741100E+02  0.90000002483E+02 0.  0.
        -12    1    1    2    0    0 -0.37206942073E+00  0.13078716030E+00  0.11124163499E+01  0.11802588998E+01  0.00000000000E+00 0.  1.
         11    1    3    3    0    0  0.70016792136E+00 -0.35038470251E+02 -0.11223818614E+02  0.36798895869E+02  0.51100000000E-03 0. -1.
        -11    1    3    3    0    0  0.44955963687E+01 -0.79205127325E+01  0.24846298915E+01  0.94402486522E+01  0.51100000000E-03 0.  1.
        -12    1    3    3    0    0 -0.48236948693E+01  0.42828195823E+02  0.76267723724E+01  0.43768596579E+02  0.00000000000E+00 0.  1.
</event>
<event>
 7    1  0.1756449E-015  0.9000778E+02  0.7816164E-02  0.1186339E+00
        -11   -1    0    0    0    0  0.00000000000E+00  0.00000000000E+00  0.45593999997E+02  0.45594000000E+02  0.51100000000E-03 0.  1.
         11   -1    0    0    0    0 -0.00000000000E+00 -0.00000000000E+00 -0.45593999997E+02  0.45594000000E+02  0.51100000000E-03 0. -1.
    9900012    2    1    2    0    0  0.30699344894E+00 -0.41605266065E+00  0.10609260779E+01  0.90007784368E+02  0.90000046322E+02 0.  0.
        -12    1    1    2    0    0 -0.30699344894E+00  0.41605266065E+00 -0.10609260779E+01  0.11802156315E+01  0.00000000000E+00 0.  1.
         11    1    3    3    0    0 -0.66769813376E+01 -0.33426808131E+01  0.62072124737E+01  0.97100505538E+01  0.51100000000E-03 0. -1.
        -11    1    3    3    0    0  0.35344057202E+00  0.28124658353E+02  0.26951793297E+02  0.38955365354E+02  0.51100000000E-03 0.  1.
         12    1    3    3    0    0  0.66305342146E+01 -0.25198030200E+02 -0.32098079693E+02  0.41342368460E+02  0.00000000000E+00 0. -1.
</event>
<event>
 7    1  0.1756449E-015  0.9000772E+02  0.7816164E-02  0.1186339E+00
        -11   -1    0    0    0    0  0.00000000000E+00  0.00000000000E+00  0.45593999997E+02  0.45594000000E+02  0.51100000000E-03 0. -1.
         11   -1    0    0    0    0 -0.00000000000E+00 -0.00000000000E+00 -0.45593999997E+02  0.45594000000E+02  0.51100000000E-03 0.  1.
    9900012    2    1    2    0    0 -0.67991715546E+00 -0.24066165210E+00  0.93426730224E+00  0.90007720050E+02  0.89999981154E+02 0.  0.
        -12    1    1    2    0    0  0.67991715546E+00  0.24066165210E+00 -0.93426730224E+00  0.11802799503E+01  0.00000000000E+00 0.  1.
         11    1    3    3    0    0 -0.34954691457E+02  0.33323663641E+01  0.12876290542E+01  0.35136777161E+02  0.51100000000E-03 0. -1.
        -11    1    3    3    0    0 -0.85025028535E+01 -0.35403125258E+00 -0.75463148242E+01  0.11373863046E+02  0.51100000000E-03 0.  1.
        -12    1    3    3    0    0  0.42777277155E+02 -0.32189967636E+01  0.71929530722E+01  0.43497079843E+02  0.00000000000E+00 0.  1.
</event>
<event>
 7    1  0.1756449E-015  0.9000776E+02  0.7816164E-02  0.1186339E+00
        -11   -1    0    0    0    0  0.00000000000E+00  0.00000000000E+00  0.45593999997E+02  0.45594000000E+02  0.51100000000E-03 0.  1.
         11   -1    0    0    0    0 -0.00000000000E+00 -0.00000000000E+00 -0.45593999997E+02  0.45594000000E+02  0.51100000000E-03 0. -1.
    9900012    2    1    2    0    0 -0.16606580058E+00 -0.11475923059E+01 -0.22002928107E+00  0.90007763229E+02  0.90000024904E+02 0.  0.
        -12    1    1    2    0    0  0.16606580058E+00  0.11475923059E+01  0.22002928107E+00  0.11802367709E+01  0.00000000000E+00 0.  1.
         11    1    3    3    0    0  0.29214975691E+02  0.26915189159E+02  0.14939439506E+02  0.42439710945E+02  0.51100000000E-03 0. -1.
        -11    1    3    3    0    0  0.23810309964E+00 -0.10353029397E+02 -0.15478149935E+01  0.10470799506E+02  0.51100000000E-03 0.  1.
        -12    1    3    3    0    0 -0.29619144592E+02 -0.17709752068E+02 -0.13611653794E+02  0.37097252778E+02  0.00000000000E+00 0.  1.
</event>
<event>
 7    1  0.1756449E-015  0.9000745E+02  0.7816164E-02  0.1186340E+00
        -11   -1    0    0    0    0  0.00000000000E+00  0.00000000000E+00  0.45593999997E+02  0.45594000000E+02  0.51100000000E-03 0. -1.
         11   -1    0    0    0    0 -0.00000000000E+00 -0.00000000000E+00 -0.45593999997E+02  0.45594000000E+02  0.51100000000E-03 0.  1.
    9900012    2    1    2    0    0  0.26163311536E+00  0.64408639007E-01  0.11493928057E+01  0.90007447510E+02  0.89999705017E+02 0.  0.
        -12    1    1    2    0    0 -0.26163311536E+00 -0.64408639007E-01 -0.11493928057E+01  0.11805524900E+01  0.00000000000E+00 0.  1.
         11    1    3    3    0    0  0.16632723682E+01  0.39383821008E+01 -0.93062108438E+01  0.10241234744E+02  0.51100000000E-03 0. -1.
        -11    1    3    3    0    0 -0.15905051239E+02  0.17287085282E+02 -0.26095190780E+02  0.35110866616E+02  0.51100000000E-03 0.  1.
         12    1    3    3    0    0  0.14503411986E+02 -0.21161058743E+02  0.36550794429E+02  0.44655346150E+02  0.00000000000E+00 0. -1.
</event>
<event>
 7    1  0.1756449E-015  0.9000775E+02  0.7816164E-02  0.1186339E+00
        -11   -1    0    0    0    0  0.00000000000E+00  0.00000000000E+00  0.45593999997E+02  0.45594000000E+02  0.51100000000E-03 0. -1.
         11   -1    0    0    0    0 -0.00000000000E+00 -0.00000000000E+00 -0.45593999997E+02  0.45594000000E+02  0.51100000000E-03 0.  1.
    9900012    2    1    2    0    0 -0.61100658810E+00 -0.82186077941E+00  0.58669611124E+00  0.90007747265E+02  0.90000008729E+02 0.  0.
        -12    1    1    2    0    0  0.61100658810E+00  0.82186077941E+00 -0.58669611124E+00  0.11802527350E+01  0.00000000000E+00 0.  1.
         11    1    3    3    0    0 -0.10589380901E+02  0.14992150722E+02  0.41965842837E+01  0.18828459604E+02  0.51100000000E-03 0. -1.
        -11    1    3    3    0    0  0.10208525435E+02 -0.49127851989E+00 -0.34885119746E+02  0.36351436370E+02  0.51100000000E-03 0.  1.
         12    1    3    3    0    0 -0.23015112265E+00 -0.15322732982E+02  0.31275231574E+02  0.34827851292E+02  0.00000000000E+00 0. -1.
</event>
<event>
 7    1  0.1756449E-015  0.9000768E+02  0.7816164E-02  0.1186339E+00
        -11   -1    0    0    0    0  0.00000000000E+00  0.00000000000E+00  0.45593999997E+02  0.45594000000E+02  0.51100000000E-03 0.  1.
         11   -1    0    0    0    0 -0.00000000000E+00 -0.00000000000E+00 -0.45593999997E+02  0.45594000000E+02  0.51100000000E-03 0. -1.
    9900012    2    1    2    0    0 -0.41135949641E+00  0.10887000803E+01  0.19667498588E+00  0.90007675659E+02  0.89999936178E+02 0.  0.
        -12    1    1    2    0    0  0.41135949641E+00 -0.10887000803E+01 -0.19667498588E+00  0.11803243411E+01  0.00000000000E+00 0.  1.
         11    1    3    3    0    0  0.12381950363E+02 -0.40615898621E+01 -0.44817971872E+00  0.13038791060E+02  0.51100000000E-03 0. -1.
        -11    1    3    3    0    0  0.20986550874E+02  0.28209997860E+02  0.61689990794E+01  0.35697280663E+02  0.51100000000E-03 0.  1.
         12    1    3    3    0    0 -0.33779860733E+02 -0.23059707917E+02 -0.55241443748E+01  0.41271603936E+02  0.00000000000E+00 0. -1.
</event>
<event>
 7    1  0.1756449E-015  0.9000797E+02  0.7816164E-02  0.1186339E+00
        -11   -1    0    0    0    0  0.00000000000E+00  0.00000000000E+00  0.45593999997E+02  0.45594000000E+02  0.51100000000E-03 0.  1.
         11   -1    0    0    0    0 -0.00000000000E+00 -0.00000000000E+00 -0.45593999997E+02  0.45594000000E+02  0.51100000000E-03 0. -1.
    9900012    2    1    2    0    0 -0.10110167148E+01  0.13034574053E+00 -0.59441673249E+00  0.90007967771E+02  0.90000232145E+02 0.  0.
        -12    1    1    2    0    0  0.10110167148E+01 -0.13034574053E+00  0.59441673249E+00  0.11800322290E+01  0.00000000000E+00 0.  1.
         11    1    3    3    0    0 -0.17075473165E+02  0.24941133966E+01  0.75871936784E+01  0.18850938799E+02  0.51100000000E-03 0. -1.
        -11    1    3    3    0    0 -0.13867124518E+02 -0.21951160060E+02  0.13565025842E+02  0.29294376538E+02  0.51100000000E-03 0.  1.
         12    1    3    3    0    0  0.29931580968E+02  0.19587392404E+02 -0.21746636253E+02  0.41862652434E+02  0.00000000000E+00 0. -1.
</event>
<event>
 7    1  0.1756449E-015  0.9000777E+02  0.7816164E-02  0.1186339E+00
        -11   -1    0    0    0    0  0.00000000000E+00  0.00000000000E+00  0.45593999997E+02  0.45594000000E+02  0.51100000000E-03 0. -1.
         11   -1    0    0    0    0 -0.00000000000E+00 -0.00000000000E+00 -0.45593999997E+02  0.45594000000E+02  0.51100000000E-03 0.  1.
    9900012    2    1    2    0    0  0.11502525733E+01  0.22362101864E+00  0.14090023799E+00  0.90007771116E+02  0.90000032894E+02 0.  0.
        -12    1    1    2    0    0 -0.11502525733E+01 -0.22362101864E+00 -0.14090023799E+00  0.11802288843E+01  0.00000000000E+00 0.  1.
         11    1    3    3    0    0 -0.29617442491E+02  0.29336057907E+01 -0.18501411450E+02  0.35044274405E+02  0.51100000000E-03 0. -1.
        -11    1    3    3    0    0 -0.85419262534E+01  0.26520376601E+01 -0.34109547694E+01  0.95724824664E+01  0.51100000000E-03 0.  1.
        -12    1    3    3    0    0  0.39309621318E+02 -0.53620224322E+01  0.22053266457E+02  0.45391014245E+02  0.00000000000E+00 0.  1.
</event>
<event>
 7    1  0.1756449E-015  0.9000770E+02  0.7816164E-02  0.1186339E+00
        -11   -1    0    0    0    0  0.00000000000E+00  0.00000000000E+00  0.45593999997E+02  0.45594000000E+02  0.51100000000E-03 0.  1.
         11   -1    0    0    0    0 -0.00000000000E+00 -0.00000000000E+00 -0.45593999997E+02  0.45594000000E+02  0.51100000000E-03 0. -1.
    9900012    2    1    2    0    0  0.99804468522E+00 -0.28374637337E+00 -0.56259329649E+00  0.90007696473E+02  0.89999957267E+02 0.  0.
        -12    1    1    2    0    0 -0.99804468522E+00  0.28374637337E+00  0.56259329649E+00  0.11803035268E+01  0.00000000000E+00 0.  1.
         11    1    3    3    0    0  0.40950359997E+01  0.95450429944E+01 -0.14018493438E+00  0.10387339297E+02  0.51100000000E-03 0. -1.
        -11    1    3    3    0    0  0.25664221558E+02  0.20279975705E+02  0.13965484388E+02  0.35566338541E+02  0.51100000000E-03 0.  1.
         12    1    3    3    0    0 -0.28761212872E+02 -0.30108765073E+02 -0.14387892750E+02  0.44054018635E+02  0.00000000000E+00 0. -1.
</event>
<event>
 7    1  0.1756449E-015  0.9000770E+02  0.7816164E-02  0.1186339E+00
        -11   -1    0    0    0    0  0.00000000000E+00  0.00000000000E+00  0.45593999997E+02  0.45594000000E+02  0.51100000000E-03 0.  1.
         11   -1    0    0    0    0 -0.00000000000E+00 -0.00000000000E+00 -0.45593999997E+02  0.45594000000E+02  0.51100000000E-03 0. -1.
    9900012    2    1    2    0    0  0.11355862086E+01 -0.32064482180E+00 -0.27341748994E-01  0.90007696348E+02  0.89999957140E+02 0.  0.
        -12    1    1    2    0    0 -0.11355862086E+01  0.32064482180E+00  0.27341748994E-01  0.11803036516E+01  0.00000000000E+00 0.  1.
         11    1    3    3    0    0 -0.18945778759E+01 -0.70096210226E+01  0.54006874659E+01  0.90493998461E+01  0.51100000000E-03 0. -1.
        -11    1    3    3    0    0 -0.24168227332E+02  0.24171272905E+02  0.20197344411E+02  0.39702473069E+02  0.51100000000E-03 0.  1.
         12    1    3    3    0    0  0.27198391417E+02 -0.17482296704E+02 -0.25625373626E+02  0.41255823434E+02  0.00000000000E+00 0. -1.
</event>
<event>
 7    1  0.1756449E-015  0.9000776E+02  0.7816164E-02  0.1186339E+00
        -11   -1    0    0    0    0  0.00000000000E+00  0.00000000000E+00  0.45593999997E+02  0.45594000000E+02  0.51100000000E-03 0.  1.
         11   -1    0    0    0    0 -0.00000000000E+00 -0.00000000000E+00 -0.45593999997E+02  0.45594000000E+02  0.51100000000E-03 0. -1.
    9900012    2    1    2    0    0  0.10091766061E+01 -0.41657678926E+00 -0.44833148032E+00  0.90007756483E+02  0.90000018068E+02 0.  0.
        -12    1    1    2    0    0 -0.10091766061E+01  0.41657678926E+00  0.44833148032E+00  0.11802435172E+01  0.00000000000E+00 0.  1.
         11    1    3    3    0    0 -0.10005965845E+02 -0.13536930337E+01  0.39282354770E+01  0.10834337614E+02  0.51100000000E-03 0. -1.
        -11    1    3    3    0    0 -0.13105616239E+02 -0.22707454717E+02  0.23630342857E+02  0.35295591517E+02  0.51100000000E-03 0.  1.
         12    1    3    3    0    0  0.24120758690E+02  0.23644570961E+02 -0.28006909815E+02  0.43877827351E+02  0.00000000000E+00 0. -1.
</event>
<event>
 7    1  0.1756449E-015  0.9000785E+02  0.7816164E-02  0.1186339E+00
        -11   -1    0    0    0    0  0.00000000000E+00  0.00000000000E+00  0.45593999997E+02  0.45594000000E+02  0.51100000000E-03 0. -1.
         11   -1    0    0    0    0 -0.00000000000E+00 -0.00000000000E+00 -0.45593999997E+02  0.45594000000E+02  0.51100000000E-03 0.  1.
    9900012    2    1    2    0    0 -0.34518291181E+00 -0.10960172791E+01  0.26898711731E+00  0.90007847812E+02  0.90000110603E+02 0.  0.
        -12    1    1    2    0    0  0.34518291181E+00  0.10960172791E+01 -0.26898711731E+00  0.11801521885E+01  0.00000000000E+00 0.  1.
         11    1    3    3    0    0  0.14473036778E+02  0.22395725655E+02 -0.28068314126E+02  0.38715211214E+02  0.51100000000E-03 0. -1.
        -11    1    3    3    0    0 -0.83625808937E+01 -0.12728299723E+01 -0.56534435342E+01  0.10174196745E+02  0.51100000000E-03 0.  1.
        -12    1    3    3    0    0 -0.64556387958E+01 -0.22218912962E+02  0.33990744777E+02  0.41118439853E+02  0.00000000000E+00 0.  1.
</event>
<event>
 7    1  0.1756449E-015  0.9000773E+02  0.7816164E-02  0.1186339E+00
        -11   -1    0    0    0    0  0.00000000000E+00  0.00000000000E+00  0.45593999997E+02  0.45594000000E+02  0.51100000000E-03 0.  1.
         11   -1    0    0    0    0 -0.00000000000E+00 -0.00000000000E+00 -0.45593999997E+02  0.45594000000E+02  0.51100000000E-03 0. -1.
    9900012    2    1    2    0    0  0.43596330185E+00  0.10106068628E+01 -0.42619585795E+00  0.90007731750E+02  0.89999993009E+02 0.  0.
        -12    1    1    2    0    0 -0.43596330185E+00 -0.10106068628E+01  0.42619585795E+00  0.11802682496E+01  0.00000000000E+00 0.  1.
         11    1    3    3    0    0 -0.34548757736E+01 -0.54001654349E+01  0.73536421110E+01  0.97557165751E+01  0.51100000000E-03 0. -1.
        -11    1    3    3    0    0  0.21186877021E+02 -0.27774974509E+02  0.12251364414E+02  0.37019304385E+02  0.51100000000E-03 0.  1.
         12    1    3    3    0    0 -0.17296037946E+02  0.34185746807E+02 -0.20031202383E+02  0.43232710790E+02  0.00000000000E+00 0. -1.
</event>
<event>
 7    1  0.1756449E-015  0.9000787E+02  0.7816164E-02  0.1186339E+00
        -11   -1    0    0    0    0  0.00000000000E+00  0.00000000000E+00  0.45593999997E+02  0.45594000000E+02  0.51100000000E-03 0.  1.
         11   -1    0    0    0    0 -0.00000000000E+00 -0.00000000000E+00 -0.45593999997E+02  0.45594000000E+02  0.51100000000E-03 0. -1.
    9900012    2    1    2    0    0  0.42552331227E-01 -0.65448894639E+00 -0.98109551108E+00  0.90007866582E+02  0.90000129621E+02 0.  0.
        -12    1    1    2    0    0 -0.42552331227E-01  0.65448894639E+00  0.98109551108E+00  0.11801334178E+01  0.00000000000E+00 0.  1.
         11    1    3    3    0    0  0.89575932819E+00 -0.38553149218E+01  0.70107405457E+01  0.80508584126E+01  0.51100000000E-03 0. -1.
        -11    1    3    3    0    0  0.11766337776E-01  0.15669696842E+02  0.34378704145E+02  0.37781408609E+02  0.51100000000E-03 0.  1.
         12    1    3    3    0    0 -0.86497333474E+00 -0.12468870867E+02 -0.42370540201E+02  0.44175599560E+02  0.00000000000E+00 0. -1.
</event>
<event>
 7    1  0.1756449E-015  0.9000769E+02  0.7816164E-02  0.1186339E+00
        -11   -1    0    0    0    0  0.00000000000E+00  0.00000000000E+00  0.45593999997E+02  0.45594000000E+02  0.51100000000E-03 0. -1.
         11   -1    0    0    0    0 -0.00000000000E+00 -0.00000000000E+00 -0.45593999997E+02  0.45594000000E+02  0.51100000000E-03 0.  1.
    9900012    2    1    2    0    0 -0.10156459093E+01 -0.14242507289E-01  0.60115276681E+00  0.90007693213E+02  0.89999953964E+02 0.  0.
        -12    1    1    2    0    0  0.10156459093E+01  0.14242507289E-01 -0.60115276681E+00  0.11803067869E+01  0.00000000000E+00 0.  1.
         11    1    3    3    0    0 -0.41448452436E+01 -0.10087817330E+01  0.36669069014E+02  0.36916365007E+02  0.51100000000E-03 0. -1.
        -11    1    3    3    0    0  0.65723597116E+01  0.52692928847E+00  0.71545602292E+01  0.97294038351E+01  0.51100000000E-03 0.  1.
        -12    1    3    3    0    0 -0.34431603772E+01  0.46760993724E+00 -0.43222476476E+02  0.43361924371E+02  0.00000000000E+00 0.  1.
</event>
<event>
 7    1  0.1756449E-015  0.9000772E+02  0.7816164E-02  0.1186339E+00
        -11   -1    0    0    0    0  0.00000000000E+00  0.00000000000E+00  0.45593999997E+02  0.45594000000E+02  0.51100000000E-03 0. -1.
         11   -1    0    0    0    0 -0.00000000000E+00 -0.00000000000E+00 -0.45593999997E+02  0.45594000000E+02  0.51100000000E-03 0.  1.
    9900012    2    1    2    0    0  0.59342999122E+00  0.73234219303E+00  0.71033235210E+00  0.90007721943E+02  0.89999983072E+02 0.  0.
        -12    1    1    2    0    0 -0.59342999122E+00 -0.73234219303E+00 -0.71033235210E+00  0.11802780573E+01  0.00000000000E+00 0.  1.
         11    1    3    3    0    0  0.87826635002E+00  0.42995352030E+01 -0.77861050315E+01  0.89376051919E+01  0.51100000000E-03 0. -1.
        -11    1    3    3    0    0 -0.17307752632E+02  0.25318903096E+02 -0.20377685492E+02  0.36821939404E+02  0.51100000000E-03 0.  1.
         12    1    3    3    0    0  0.17022916273E+02 -0.28886096106E+02  0.28874122876E+02  0.44248177347E+02  0.00000000000E+00 0. -1.
</event>
<event>
 7    1  0.1756449E-015  0.9000772E+02  0.7816164E-02  0.1186339E+00
        -11   -1    0    0    0    0  0.00000000000E+00  0.00000000000E+00  0.45593999997E+02  0.45594000000E+02  0.51100000000E-03 0.  1.
         11   -1    0    0    0    0 -0.00000000000E+00 -0.00000000000E+00 -0.45593999997E+02  0.45594000000E+02  0.51100000000E-03 0. -1.
    9900012    2    1    2    0    0  0.91286347999E+00  0.74050551261E+00  0.10669621005E+00  0.90007723664E+02  0.89999984817E+02 0.  0.
        -12    1    1    2    0    0 -0.91286347999E+00 -0.74050551261E+00 -0.10669621005E+00  0.11802763357E+01  0.00000000000E+00 0.  1.
         11    1    3    3    0    0  0.18546764536E+02  0.30538578804E+02 -0.99838473713E+01  0.37098038745E+02  0.51100000000E-03 0. -1.
        -11    1    3    3    0    0  0.34101344303E+01 -0.17774687539E+01 -0.11243875299E+02  0.11883313679E+02  0.51100000000E-03 0.  1.
        -12    1    3    3    0    0 -0.21044035486E+02 -0.28020604538E+02  0.21334418880E+02  0.41026371240E+02  0.00000000000E+00 0.  1.
</event>
<event>
 7    1  0.1756449E-015  0.9000770E+02  0.7816164E-02  0.1186339E+00
        -11   -1    0    0    0    0  0.00000000000E+00  0.00000000000E+00  0.45593999997E+02  0.45594000000E+02  0.51100000000E-03 0. -1.
         11   -1    0    0    0    0 -0.00000000000E+00 -0.00000000000E+00 -0.45593999997E+02  0.45594000000E+02  0.51100000000E-03 0.  1.
    9900012    2    1    2    0    0  0.64046379145E+00 -0.60415961792E+00  0.78607415490E+00  0.90007696950E+02  0.89999957750E+02 0.  0.
        -12    1    1    2    0    0 -0.64046379145E+00  0.60415961792E+00 -0.78607415490E+00  0.11803030497E+01  0.00000000000E+00 0.  1.
         11    1    3    3    0    0 -0.29236568245E+01  0.31858054531E+02  0.21344345651E+02  0.38458607609E+02  0.51100000000E-03 0. -1.
        -11    1    3    3    0    0  0.90983595820E+01  0.39273316847E+01 -0.12620354339E+01  0.99898355814E+01  0.51100000000E-03 0.  1.
        -12    1    3    3    0    0 -0.55342389660E+01 -0.36389545833E+02 -0.19296236063E+02  0.41559253760E+02  0.00000000000E+00 0.  1.
</event>
<event>
 7    1  0.1756449E-015  0.9000792E+02  0.7816164E-02  0.1186339E+00
        -11   -1    0    0    0    0  0.00000000000E+00  0.00000000000E+00  0.45593999997E+02  0.45594000000E+02  0.51100000000E-03 0. -1.
         11   -1    0    0    0    0 -0.00000000000E+00 -0.00000000000E+00 -0.45593999997E+02  0.45594000000E+02  0.51100000000E-03 0.  1.
    9900012    2    1    2    0    0 -0.33930820877E-01 -0.38241554146E+00  0.11158837141E+01  0.90007919744E+02  0.90000183485E+02 0.  0.
        -12    1    1    2    0    0  0.33930820877E-01  0.38241554146E+00 -0.11158837141E+01  0.11800802559E+01  0.00000000000E+00 0.  1.
         11    1    3    3    0    0 -0.39968991551E+01 -0.64201078054E+01 -0.74013681907E+01  0.10581740804E+02  0.51100000000E-03 0. -1.
        -11    1    3    3    0    0 -0.29544512143E+02 -0.18405578932E+02 -0.63176738017E+01  0.35377344956E+02  0.51100000000E-03 0.  1.
         12    1    3    3    0    0  0.33507480477E+02  0.24443271196E+02  0.14834925706E+02  0.44048833984E+02  0.00000000000E+00 0. -1.
</event>
<event>
 7    1  0.1756449E-015  0.9000806E+02  0.7816164E-02  0.1186338E+00
        -11   -1    0    0    0    0  0.00000000000E+00  0.00000000000E+00  0.45593999997E+02  0.45594000000E+02  0.51100000000E-03 0. -1.
         11   -1    0    0    0    0 -0.00000000000E+00 -0.00000000000E+00 -0.45593999997E+02  0.45594000000E+02  0.51100000000E-03 0.  1.
    9900012    2    1    2    0    0  0.11007131008E+01  0.38721140884E+00  0.17537174378E+00  0.90008060487E+02  0.90000326085E+02 0.  0.
        -12    1    1    2    0    0 -0.11007131008E+01 -0.38721140884E+00 -0.17537174378E+00  0.11799395128E+01  0.00000000000E+00 0.  1.
         11    1    3    3    0    0 -0.51915253456E+01  0.24211778915E+01 -0.86031800017E+01  0.10335799156E+02  0.51100000000E-03 0. -1.
        -11    1    3    3    0    0 -0.21892272834E+02 -0.26370774868E+02 -0.12856558838E+02  0.36605743844E+02  0.51100000000E-03 0.  1.
         12    1    3    3    0    0  0.28184511280E+02  0.24336808385E+02  0.21635110583E+02  0.43066517487E+02  0.00000000000E+00 0. -1.
</event>
<event>
 7    1  0.1756449E-015  0.9000797E+02  0.7816164E-02  0.1186339E+00
        -11   -1    0    0    0    0  0.00000000000E+00  0.00000000000E+00  0.45593999997E+02  0.45594000000E+02  0.51100000000E-03 0. -1.
         11   -1    0    0    0    0 -0.00000000000E+00 -0.00000000000E+00 -0.45593999997E+02  0.45594000000E+02  0.51100000000E-03 0.  1.
    9900012    2    1    2    0    0  0.11007728517E+01 -0.38675831949E+00  0.17661956344E+00  0.90007967230E+02  0.90000231597E+02 0.  0.
        -12    1    1    2    0    0 -0.11007728517E+01  0.38675831949E+00 -0.17661956344E+00  0.11800327703E+01  0.00000000000E+00 0.  1.
         11    1    3    3    0    0 -0.34221503535E+02  0.12836989558E+02 -0.10717917399E+02  0.38089018873E+02  0.51100000000E-03 0. -1.
        -11    1    3    3    0    0 -0.38122836146E+01  0.23644343868E+01  0.86383298575E+01  0.97336940221E+01  0.51100000000E-03 0.  1.
        -12    1    3    3    0    0  0.39134560001E+02 -0.15588182264E+02  0.22562071044E+01  0.42185254335E+02  0.00000000000E+00 0.  1.
</event>
<event>
 7    1  0.1756449E-015  0.9000769E+02  0.7816164E-02  0.1186339E+00
        -11   -1    0    0    0    0  0.00000000000E+00  0.00000000000E+00  0.45593999997E+02  0.45594000000E+02  0.51100000000E-03 0.  1.
         11   -1    0    0    0    0 -0.00000000000E+00 -0.00000000000E+00 -0.45593999997E+02  0.45594000000E+02  0.51100000000E-03 0. -1.
    9900012    2    1    2    0    0 -0.10088376578E+01  0.60531181313E+00  0.94754926123E-01  0.90007688894E+02  0.89999949587E+02 0.  0.
        -12    1    1    2    0    0  0.10088376578E+01 -0.60531181313E+00 -0.94754926123E-01  0.11803111060E+01  0.00000000000E+00 0.  1.
         11    1    3    3    0    0 -0.53047461642E+01  0.10809405106E+02 -0.33775939467E+02  0.35858020829E+02  0.51100000000E-03 0. -1.
        -11    1    3    3    0    0 -0.64790023720E+01  0.15516901446E+01 -0.73690156777E+01  0.99341635964E+01  0.51100000000E-03 0.  1.
        -12    1    3    3    0    0  0.10774910878E+02 -0.11755783438E+02  0.41239710071E+02  0.44215504469E+02  0.00000000000E+00 0.  1.
</event>
<event>
 7    1  0.1756449E-015  0.9000778E+02  0.7816164E-02  0.1186339E+00
        -11   -1    0    0    0    0  0.00000000000E+00  0.00000000000E+00  0.45593999997E+02  0.45594000000E+02  0.51100000000E-03 0.  1.
         11   -1    0    0    0    0 -0.00000000000E+00 -0.00000000000E+00 -0.45593999997E+02  0.45594000000E+02  0.51100000000E-03 0. -1.
    9900012    2    1    2    0    0  0.11622066331E+01 -0.81790226611E-01  0.18842480856E+00  0.90007780610E+02  0.90000042514E+02 0.  0.
        -12    1    1    2    0    0 -0.11622066331E+01  0.81790226611E-01 -0.18842480856E+00  0.11802193897E+01  0.00000000000E+00 0.  1.
         11    1    3    3    0    0 -0.97672260167E+01  0.38101822344E+02 -0.39195574638E+01  0.39528603579E+02  0.51100000000E-03 0. -1.
        -11    1    3    3    0    0  0.89442991013E+00 -0.63139038516E+01 -0.11846014325E+02  0.13453380332E+02  0.51100000000E-03 0.  1.
        -12    1    3    3    0    0  0.10035002740E+02 -0.31869708719E+02  0.15953996597E+02  0.37025796699E+02  0.00000000000E+00 0.  1.
</event>
<event>
 7    1  0.1756449E-015  0.9000776E+02  0.7816164E-02  0.1186339E+00
        -11   -1    0    0    0    0  0.00000000000E+00  0.00000000000E+00  0.45593999997E+02  0.45594000000E+02  0.51100000000E-03 0. -1.
         11   -1    0    0    0    0 -0.00000000000E+00 -0.00000000000E+00 -0.45593999997E+02  0.45594000000E+02  0.51100000000E-03 0.  1.
    9900012    2    1    2    0    0  0.85905526528E+00 -0.60259996495E+00  0.54024917472E+00  0.90007757721E+02  0.90000019323E+02 0.  0.
        -12    1    1    2    0    0 -0.85905526528E+00  0.60259996495E+00 -0.54024917472E+00  0.11802422791E+01  0.00000000000E+00 0.  1.
         11    1    3    3    0    0  0.11072505708E+02 -0.15796632274E+01 -0.13876058661E+02  0.17822478021E+02  0.51100000000E-03 0. -1.
        -11    1    3    3    0    0 -0.19484214562E+01 -0.66889146393E+01 -0.27712248010E+02  0.28574579878E+02  0.51100000000E-03 0.  1.
         12    1    3    3    0    0 -0.82650289862E+01  0.76659779017E+01  0.42128555846E+02  0.43610699822E+02  0.00000000000E+00 0. -1.
</event>
<event>
 7    1  0.1756449E-015  0.9000769E+02  0.7816164E-02  0.1186339E+00
        -11   -1    0    0    0    0  0.00000000000E+00  0.00000000000E+00  0.45593999997E+02  0.45594000000E+02  0.51100000000E-03 0. -1.
         11   -1    0    0    0    0 -0.00000000000E+00 -0.00000000000E+00 -0.45593999997E+02  0.45594000000E+02  0.51100000000E-03 0.  1.
    9900012    2    1    2    0    0  0.33575852618E+00  0.46581764435E+00  0.10312185091E+01  0.90007690092E+02  0.89999950801E+02 0.  0.
        -12    1    1    2    0    0 -0.33575852618E+00 -0.46581764435E+00 -0.10312185091E+01  0.11803099081E+01  0.00000000000E+00 0.  1.
         11    1    3    3    0    0 -0.27531808059E+02  0.81592986871E+01  0.28437484030E+02  0.40413674768E+02  0.51100000000E-03 0. -1.
        -11    1    3    3    0    0 -0.53682063871E+01 -0.58287190959E+01 -0.38195359922E+01  0.87966164842E+01  0.51100000000E-03 0.  1.
        -12    1    3    3    0    0  0.33235772972E+02 -0.18647619468E+01 -0.23586729529E+02  0.40797398839E+02  0.00000000000E+00 0.  1.
</event>
<event>
 7    1  0.1756449E-015  0.9000782E+02  0.7816164E-02  0.1186339E+00
        -11   -1    0    0    0    0  0.00000000000E+00  0.00000000000E+00  0.45593999997E+02  0.45594000000E+02  0.51100000000E-03 0. -1.
         11   -1    0    0    0    0 -0.00000000000E+00 -0.00000000000E+00 -0.45593999997E+02  0.45594000000E+02  0.51100000000E-03 0.  1.
    9900012    2    1    2    0    0 -0.78006909810E+00  0.44856273045E+00  0.76362277313E+00  0.90007815243E+02  0.90000077604E+02 0.  0.
        -12    1    1    2    0    0  0.78006909810E+00 -0.44856273045E+00 -0.76362277313E+00  0.11801847570E+01  0.00000000000E+00 0.  1.
         11    1    3    3    0    0 -0.82280291538E+00 -0.12969106400E+01  0.95311425440E+01  0.96541006987E+01  0.51100000000E-03 0. -1.
        -11    1    3    3    0    0  0.29904955778E+02  0.11629941928E+02 -0.28754116780E+02  0.43085509877E+02  0.51100000000E-03 0.  1.
         12    1    3    3    0    0 -0.29862221961E+02 -0.98844685580E+01  0.19986597009E+02  0.37268204667E+02  0.00000000000E+00 0. -1.
</event>
<event>
 7    1  0.1756449E-015  0.9000745E+02  0.7816164E-02  0.1186340E+00
        -11   -1    0    0    0    0  0.00000000000E+00  0.00000000000E+00  0.45593999997E+02  0.45594000000E+02  0.51100000000E-03 0.  1.
         11   -1    0    0    0    0 -0.00000000000E+00 -0.00000000000E+00 -0.45593999997E+02  0.45594000000E+02  0.51100000000E-03 0. -1.
    9900012    2    1    2    0    0  0.31043180965E+00  0.90660335259E+00 -0.68948625836E+00  0.90007454004E+02  0.89999711597E+02 0.  0.
        -12    1    1    2    0    0 -0.31043180965E+00 -0.90660335259E+00  0.68948625836E+00  0.11805459956E+01  0.00000000000E+00 0.  1.
         11    1    3    3    0    0  0.12226716616E+02  0.29447117277E+01  0.14980047566E+01  0.12665225813E+02  0.51100000000E-03 0. -1.
        -11    1    3    3    0    0  0.23447681867E+02 -0.25328016985E+02  0.31697926252E+01  0.34660493575E+02  0.51100000000E-03 0.  1.
         12    1    3    3    0    0 -0.35363966673E+02  0.23289908609E+02 -0.53572836401E+01  0.42681734617E+02  0.00000000000E+00 0. -1.
</event>
<event>
 7    1  0.1756449E-015  0.9000775E+02  0.7816164E-02  0.1186339E+00
        -11   -1    0    0    0    0  0.00000000000E+00  0.00000000000E+00  0.45593999997E+02  0.45594000000E+02  0.51100000000E-03 0.  1.
         11   -1    0    0    0    0 -0.00000000000E+00 -0.00000000000E+00 -0.45593999997E+02  0.45594000000E+02  0.51100000000E-03 0. -1.
    9900012    2    1    2    0    0  0.23772136527E+00  0.55189367375E-01 -0.11547410582E+01  0.90007752473E+02  0.90000014006E+02 0.  0.
        -12    1    1    2    0    0 -0.23772136527E+00 -0.55189367375E-01  0.11547410582E+01  0.11802475271E+01  0.00000000000E+00 0.  1.
         11    1    3    3    0    0  0.24253896744E+01  0.31132070254E+02 -0.13788639770E+02  0.34135244255E+02  0.51100000000E-03 0. -1.
        -11    1    3    3    0    0 -0.82402748158E+01  0.43677749695E+01 -0.97696655474E+01  0.13506515183E+02  0.51100000000E-03 0.  1.
        -12    1    3    3    0    0  0.60526065068E+01 -0.35444655856E+02  0.22403564259E+02  0.42365993035E+02  0.00000000000E+00 0.  1.
</event>
<event>
 7    1  0.1756449E-015  0.9000769E+02  0.7816164E-02  0.1186339E+00
        -11   -1    0    0    0    0  0.00000000000E+00  0.00000000000E+00  0.45593999997E+02  0.45594000000E+02  0.51100000000E-03 0.  1.
         11   -1    0    0    0    0 -0.00000000000E+00 -0.00000000000E+00 -0.45593999997E+02  0.45594000000E+02  0.51100000000E-03 0. -1.
    9900012    2    1    2    0    0  0.10163783309E+01 -0.11171856510E+00 -0.58959666781E+00  0.90007690642E+02  0.89999951359E+02 0.  0.
        -12    1    1    2    0    0 -0.10163783309E+01  0.11171856510E+00  0.58959666781E+00  0.11803093577E+01  0.00000000000E+00 0.  1.
         11    1    3    3    0    0 -0.61199776365E+01  0.35014514264E+02  0.60093182055E+00  0.35550407238E+02  0.51100000000E-03 0. -1.
        -11    1    3    3    0    0 -0.90168657315E+00  0.90956865038E+01 -0.25530467240E+01  0.94901316897E+01  0.51100000000E-03 0.  1.
        -12    1    3    3    0    0  0.80380425406E+01 -0.44221919333E+02  0.13625182357E+01  0.44967151715E+02  0.00000000000E+00 0.  1.
</event>
<event>
 7    1  0.1756449E-015  0.9000765E+02  0.7816164E-02  0.1186339E+00
        -11   -1    0    0    0    0  0.00000000000E+00  0.00000000000E+00  0.45593999997E+02  0.45594000000E+02  0.51100000000E-03 0. -1.
         11   -1    0    0    0    0 -0.00000000000E+00 -0.00000000000E+00 -0.45593999997E+02  0.45594000000E+02  0.51100000000E-03 0.  1.
    9900012    2    1    2    0    0  0.18295791573E+00  0.88138329941E+00 -0.76349533726E+00  0.90007646134E+02  0.89999906263E+02 0.  0.
        -12    1    1    2    0    0 -0.18295791573E+00 -0.88138329941E+00  0.76349533726E+00  0.11803538662E+01  0.00000000000E+00 0.  1.
         11    1    3    3    0    0 -0.13373804478E+02 -0.47483083879E+01  0.11916678389E+02  0.18531386965E+02  0.51100000000E-03 0. -1.
        -11    1    3    3    0    0 -0.98346495661E+01  0.23248115757E+02 -0.28598352032E+02  0.38145261273E+02  0.51100000000E-03 0.  1.
         12    1    3    3    0    0  0.23391411959E+02 -0.17618424070E+02  0.15918178306E+02  0.33330997896E+02  0.00000000000E+00 0. -1.
</event>
<event>
 7    1  0.1756449E-015  0.9000661E+02  0.7816164E-02  0.1186341E+00
        -11   -1    0    0    0    0  0.00000000000E+00  0.00000000000E+00  0.45593999997E+02  0.45594000000E+02  0.51100000000E-03 0.  1.
         11   -1    0    0    0    0 -0.00000000000E+00 -0.00000000000E+00 -0.45593999997E+02  0.45594000000E+02  0.51100000000E-03 0. -1.
    9900012    2    1    2    0    0 -0.37405828970E+00 -0.10597744001E+01  0.36420404887E+00  0.90006608459E+02  0.89998854884E+02 0.  0.
        -12    1    1    2    0    0  0.37405828970E+00  0.10597744001E+01 -0.36420404887E+00  0.11813915407E+01  0.00000000000E+00 0.  1.
         11    1    3    3    0    0 -0.41820825799E+01  0.69717912725E+01  0.42736352357E+01  0.91847507664E+01  0.51100000000E-03 0. -1.
        -11    1    3    3    0    0  0.19821108782E+02 -0.33937322192E+02  0.18076870427E+02  0.43259582010E+02  0.51100000000E-03 0.  1.
         12    1    3    3    0    0 -0.16013084492E+02  0.25905756520E+02 -0.21986301614E+02  0.37562275683E+02  0.00000000000E+00 0. -1.
</event>
<event>
 7    1  0.1756449E-015  0.9000780E+02  0.7816164E-02  0.1186339E+00
        -11   -1    0    0    0    0  0.00000000000E+00  0.00000000000E+00  0.45593999997E+02  0.45594000000E+02  0.51100000000E-03 0.  1.
         11   -1    0    0    0    0 -0.00000000000E+00 -0.00000000000E+00 -0.45593999997E+02  0.45594000000E+02  0.51100000000E-03 0. -1.
    9900012    2    1    2    0    0 -0.88346087904E+00 -0.70655925670E+00  0.33636732415E+00  0.90007799981E+02  0.90000062141E+02 0.  0.
        -12    1    1    2    0    0  0.88346087904E+00  0.70655925670E+00 -0.33636732415E+00  0.11802000190E+01  0.00000000000E+00 0.  1.
         11    1    3    3    0    0 -0.30868223125E+02 -0.23429034669E+02 -0.13919390001E+02  0.41176647298E+02  0.51100000000E-03 0. -1.
        -11    1    3    3    0    0  0.51301113385E+01 -0.36359673834E+01 -0.47868318537E+01  0.79026616158E+01  0.51100000000E-03 0.  1.
        -12    1    3    3    0    0  0.24854650908E+02  0.26358442796E+02  0.19042589179E+02  0.40928491067E+02  0.00000000000E+00 0.  1.
</event>
<event>
 7    1  0.1756449E-015  0.9000765E+02  0.7816164E-02  0.1186339E+00
        -11   -1    0    0    0    0  0.00000000000E+00  0.00000000000E+00  0.45593999997E+02  0.45594000000E+02  0.51100000000E-03 0. -1.
         11   -1    0    0    0    0 -0.00000000000E+00 -0.00000000000E+00 -0.45593999997E+02  0.45594000000E+02  0.51100000000E-03 0.  1.
    9900012    2    1    2    0    0  0.18014224330E+00  0.34644345543E+00  0.11138895299E+01  0.90007650823E+02  0.89999911013E+02 0.  0.
        -12    1    1    2    0    0 -0.18014224330E+00 -0.34644345543E+00 -0.11138895299E+01  0.11803491773E+01  0.00000000000E+00 0.  1.
         11    1    3    3    0    0 -0.40380032719E+01 -0.40612512768E+02  0.93351042171E+01  0.41866762888E+02  0.51100000000E-03 0. -1.
        -11    1    3    3    0    0  0.56692959862E+01  0.20181835891E+01 -0.68932596532E+01  0.91504650639E+01  0.51100000000E-03 0.  1.
        -12    1    3    3    0    0 -0.14511504710E+01  0.38940772634E+02 -0.13279550341E+01  0.38990422870E+02  0.00000000000E+00 0.  1.
</event>
<event>
 7    1  0.1756449E-015  0.9000780E+02  0.7816164E-02  0.1186339E+00
        -11   -1    0    0    0    0  0.00000000000E+00  0.00000000000E+00  0.45593999997E+02  0.45594000000E+02  0.51100000000E-03 0.  1.
         11   -1    0    0    0    0 -0.00000000000E+00 -0.00000000000E+00 -0.45593999997E+02  0.45594000000E+02  0.51100000000E-03 0. -1.
    9900012    2    1    2    0    0 -0.41950883208E+00 -0.10920127772E+01 -0.15615841116E+00  0.90007802976E+02  0.90000065175E+02 0.  0.
        -12    1    1    2    0    0  0.41950883208E+00  0.10920127772E+01  0.15615841116E+00  0.11801970239E+01  0.00000000000E+00 0.  1.
         11    1    3    3    0    0  0.15322291991E+01  0.61251219235E+01 -0.40139126252E+02  0.40632675293E+02  0.51100000000E-03 0. -1.
        -11    1    3    3    0    0  0.72131358383E+01  0.21692126618E+01  0.25427798738E+00  0.75365422940E+01  0.51100000000E-03 0.  1.
        -12    1    3    3    0    0 -0.91648738695E+01 -0.93863473625E+01  0.39728689854E+02  0.41838585389E+02  0.00000000000E+00 0.  1.
</event>
<event>
 7    1  0.1756449E-015  0.9000775E+02  0.7816164E-02  0.1186339E+00
        -11   -1    0    0    0    0  0.00000000000E+00  0.00000000000E+00  0.45593999997E+02  0.45594000000E+02  0.51100000000E-03 0. -1.
         11   -1    0    0    0    0 -0.00000000000E+00 -0.00000000000E+00 -0.45593999997E+02  0.45594000000E+02  0.51100000000E-03 0.  1.
    9900012    2    1    2    0    0 -0.76033572855E+00  0.76879985022E+00  0.47310179857E+00  0.90007750475E+02  0.90000011981E+02 0.  0.
        -12    1    1    2    0    0  0.76033572855E+00 -0.76879985022E+00 -0.47310179857E+00  0.11802495251E+01  0.00000000000E+00 0.  1.
         11    1    3    3    0    0 -0.18739450225E+01 -0.90245991283E+01 -0.38078207904E+01  0.99726906503E+01  0.51100000000E-03 0. -1.
        -11    1    3    3    0    0  0.33351360408E+02 -0.33167621626E+01 -0.18652522861E+02  0.38356626046E+02  0.51100000000E-03 0.  1.
         12    1    3    3    0    0 -0.32237751114E+02  0.13110161141E+02  0.22933445450E+02  0.41678433778E+02  0.00000000000E+00 0. -1.
</event>
<event>
 7    1  0.1756449E-015  0.9000774E+02  0.7816164E-02  0.1186339E+00
        -11   -1    0    0    0    0  0.00000000000E+00  0.00000000000E+00  0.45593999997E+02  0.45594000000E+02  0.51100000000E-03 0.  1.
         11   -1    0    0    0    0 -0.00000000000E+00 -0.00000000000E+00 -0.45593999997E+02  0.45594000000E+02  0.51100000000E-03 0. -1.
    9900012    2    1    2    0    0  0.52021614079E+00  0.82367241329E+00  0.66629747989E+00  0.90007740109E+02  0.90000001479E+02 0.  0.
        -12    1    1    2    0    0 -0.52021614079E+00 -0.82367241329E+00 -0.66629747989E+00  0.11802598906E+01  0.00000000000E+00 0.  1.
         11    1    3    3    0    0  0.36498859157E+00  0.25982990887E+01 -0.90357458175E+01  0.94089891894E+01  0.51100000000E-03 0. -1.
        -11    1    3    3    0    0  0.22377182752E+02  0.26789222020E+02 -0.13704099565E+02  0.37499374254E+02  0.51100000000E-03 0.  1.
         12    1    3    3    0    0 -0.22221955202E+02 -0.28563848695E+02  0.23406142862E+02  0.43099376666E+02  0.00000000000E+00 0. -1.
</event>
<event>
 7    1  0.1756449E-015  0.9000744E+02  0.7816164E-02  0.1186340E+00
        -11   -1    0    0    0    0  0.00000000000E+00  0.00000000000E+00  0.45593999997E+02  0.45594000000E+02  0.51100000000E-03 0.  1.
         11   -1    0    0    0    0 -0.00000000000E+00 -0.00000000000E+00 -0.45593999997E+02  0.45594000000E+02  0.51100000000E-03 0. -1.
    9900012    2    1    2    0    0  0.86881677352E+00  0.79773501037E+00  0.49979559320E-01  0.90007440095E+02  0.89999697504E+02 0.  0.
        -12    1    1    2    0    0 -0.86881677352E+00 -0.79773501037E+00 -0.49979559320E-01  0.11805599049E+01  0.00000000000E+00 0.  1.
         11    1    3    3    0    0  0.10126938875E+01  0.40303841245E+01  0.61082623122E+01  0.73878558348E+01  0.51100000000E-03 0. -1.
        -11    1    3    3    0    0 -0.22735239085E+02 -0.20748358482E+02  0.25549791243E+02  0.40002216298E+02  0.51100000000E-03 0.  1.
         12    1    3    3    0    0  0.22591361971E+02  0.17515709368E+02 -0.31608073995E+02  0.42617367962E+02  0.00000000000E+00 0. -1.
</event>
<event>
 7    1  0.1756449E-015  0.9000773E+02  0.7816164E-02  0.1186339E+00
        -11   -1    0    0    0    0  0.00000000000E+00  0.00000000000E+00  0.45593999997E+02  0.45594000000E+02  0.51100000000E-03 0. -1.
         11   -1    0    0    0    0 -0.00000000000E+00 -0.00000000000E+00 -0.45593999997E+02  0.45594000000E+02  0.51100000000E-03 0.  1.
    9900012    2    1    2    0    0  0.11564097124E+01 -0.15769317012E+00 -0.17576798941E+00  0.90007726750E+02  0.89999987943E+02 0.  0.
        -12    1    1    2    0    0 -0.11564097124E+01  0.15769317012E+00  0.17576798941E+00  0.11802732502E+01  0.00000000000E+00 0.  1.
         11    1    3    3    0    0  0.25446563537E+02  0.13793228822E+02  0.18868860306E+02  0.34551622924E+02  0.51100000000E-03 0. -1.
        -11    1    3    3    0    0 -0.78503129404E+00  0.94425411710E+01  0.82052187033E+01  0.12534092393E+02  0.51100000000E-03 0.  1.
        -12    1    3    3    0    0 -0.23505122530E+02 -0.23393463163E+02 -0.27249846999E+02  0.42922011432E+02  0.00000000000E+00 0.  1.
</event>
<event>
 7    1  0.1756449E-015  0.9000771E+02  0.7816164E-02  0.1186339E+00
        -11   -1    0    0    0    0  0.00000000000E+00  0.00000000000E+00  0.45593999997E+02  0.45594000000E+02  0.51100000000E-03 0.  1.
         11   -1    0    0    0    0 -0.00000000000E+00 -0.00000000000E+00 -0.45593999997E+02  0.45594000000E+02  0.51100000000E-03 0. -1.
    9900012    2    1    2    0    0  0.10828549412E+01  0.87110074447E-01 -0.46142446924E+00  0.90007713793E+02  0.89999974815E+02 0.  0.
        -12    1    1    2    0    0 -0.10828549412E+01 -0.87110074447E-01  0.46142446924E+00  0.11802862066E+01  0.00000000000E+00 0.  1.
         11    1    3    3    0    0  0.24302848571E+02 -0.25467761615E+02 -0.16772733500E+02  0.38994357536E+02  0.51100000000E-03 0. -1.
        -11    1    3    3    0    0 -0.12922534148E+02 -0.52443139798E+01 -0.14109522251E+01  0.14017328718E+02  0.51100000000E-03 0.  1.
        -12    1    3    3    0    0 -0.10297459481E+02  0.30799185670E+02  0.17722261256E+02  0.36996027539E+02  0.00000000000E+00 0.  1.
</event>
<event>
 7    1  0.1756449E-015  0.9000801E+02  0.7816164E-02  0.1186339E+00
        -11   -1    0    0    0    0  0.00000000000E+00  0.00000000000E+00  0.45593999997E+02  0.45594000000E+02  0.51100000000E-03 0.  1.
         11   -1    0    0    0    0 -0.00000000000E+00 -0.00000000000E+00 -0.45593999997E+02  0.45594000000E+02  0.51100000000E-03 0. -1.
    9900012    2    1    2    0    0  0.88444450853E+00 -0.12847006084E+00 -0.77048004712E+00  0.90008005869E+02  0.90000270746E+02 0.  0.
        -12    1    1    2    0    0 -0.88444450853E+00  0.12847006084E+00  0.77048004712E+00  0.11799941306E+01  0.00000000000E+00 0.  1.
         11    1    3    3    0    0  0.68354570104E+01 -0.67086076299E+01 -0.47489081782E+01  0.10690230027E+02  0.51100000000E-03 0. -1.
        -11    1    3    3    0    0 -0.35792038639E+02 -0.16710657852E+02  0.10577596769E+02  0.40892562520E+02  0.51100000000E-03 0.  1.
         12    1    3    3    0    0  0.29841026137E+02  0.23290795421E+02 -0.65991686381E+01  0.38425213323E+02  0.00000000000E+00 0. -1.
</event>
<event>
 7    1  0.1756449E-015  0.9000772E+02  0.7816164E-02  0.1186339E+00
        -11   -1    0    0    0    0  0.00000000000E+00  0.00000000000E+00  0.45593999997E+02  0.45594000000E+02  0.51100000000E-03 0. -1.
         11   -1    0    0    0    0 -0.00000000000E+00 -0.00000000000E+00 -0.45593999997E+02  0.45594000000E+02  0.51100000000E-03 0.  1.
    9900012    2    1    2    0    0  0.10199069112E+01  0.46514963460E+00 -0.36944667436E+00  0.90007718197E+02  0.89999979277E+02 0.  0.
        -12    1    1    2    0    0 -0.10199069112E+01 -0.46514963460E+00  0.36944667436E+00  0.11802818033E+01  0.00000000000E+00 0.  1.
         11    1    3    3    0    0 -0.45652124116E+01 -0.29942299228E+01 -0.78922734825E+01  0.95965909664E+01  0.51100000000E-03 0. -1.
        -11    1    3    3    0    0 -0.15575360965E+02  0.21623882119E+02 -0.25708615648E+02  0.37028597947E+02  0.51100000000E-03 0.  1.
         12    1    3    3    0    0  0.21160480287E+02 -0.18164502562E+02  0.33231442457E+02  0.43382529284E+02  0.00000000000E+00 0. -1.
</event>
<event>
 7    1  0.1756449E-015  0.9000782E+02  0.7816164E-02  0.1186339E+00
        -11   -1    0    0    0    0  0.00000000000E+00  0.00000000000E+00  0.45593999997E+02  0.45594000000E+02  0.51100000000E-03 0. -1.
         11   -1    0    0    0    0 -0.00000000000E+00 -0.00000000000E+00 -0.45593999997E+02  0.45594000000E+02  0.51100000000E-03 0.  1.
    9900012    2    1    2    0    0 -0.45572611650E+00 -0.10308580796E+01  0.34996018118E+00  0.90007819166E+02  0.90000081579E+02 0.  0.
        -12    1    1    2    0    0  0.45572611650E+00  0.10308580796E+01 -0.34996018118E+00  0.11801808344E+01  0.00000000000E+00 0.  1.
         11    1    3    3    0    0 -0.17083882304E+02  0.22045542491E+02  0.26680888773E+02  0.38597082847E+02  0.51100000000E-03 0. -1.
        -11    1    3    3    0    0 -0.81600146640E+01 -0.10273280820E+02 -0.10500380197E+00  0.13120105342E+02  0.51100000000E-03 0.  1.
        -12    1    3    3    0    0  0.24788170851E+02 -0.12803119751E+02 -0.26225924790E+02  0.38290630977E+02  0.00000000000E+00 0.  1.
</event>
<event>
 7    1  0.1756449E-015  0.9000773E+02  0.7816164E-02  0.1186339E+00
        -11   -1    0    0    0    0  0.00000000000E+00  0.00000000000E+00  0.45593999997E+02  0.45594000000E+02  0.51100000000E-03 0.  1.
         11   -1    0    0    0    0 -0.00000000000E+00 -0.00000000000E+00 -0.45593999997E+02  0.45594000000E+02  0.51100000000E-03 0. -1.
    9900012    2    1    2    0    0  0.37316693353E+00 -0.62272109176E+00 -0.93059439000E+00  0.90007728405E+02  0.89999989620E+02 0.  0.
        -12    1    1    2    0    0 -0.37316693353E+00  0.62272109176E+00  0.93059439000E+00  0.11802715946E+01  0.00000000000E+00 0.  1.
         11    1    3    3    0    0  0.85064960452E+01 -0.68275551740E+01  0.42666511411E+01  0.11712399278E+02  0.51100000000E-03 0. -1.
        -11    1    3    3    0    0 -0.57104660693E+01  0.39587086171E+02  0.10463127893E+02  0.41342760670E+02  0.51100000000E-03 0.  1.
         12    1    3    3    0    0 -0.24228630424E+01 -0.33382252089E+02 -0.15660373424E+02  0.36952568458E+02  0.00000000000E+00 0. -1.
</event>
<event>
 7    1  0.1756449E-015  0.9000791E+02  0.7816164E-02  0.1186339E+00
        -11   -1    0    0    0    0  0.00000000000E+00  0.00000000000E+00  0.45593999997E+02  0.45594000000E+02  0.51100000000E-03 0.  1.
         11   -1    0    0    0    0 -0.00000000000E+00 -0.00000000000E+00 -0.45593999997E+02  0.45594000000E+02  0.51100000000E-03 0. -1.
    9900012    2    1    2    0    0 -0.16001730326E+00 -0.11086586323E+01  0.37132381930E+00  0.90007910648E+02  0.90000174268E+02 0.  0.
        -12    1    1    2    0    0  0.16001730326E+00  0.11086586323E+01 -0.37132381930E+00  0.11800893522E+01  0.00000000000E+00 0.  1.
         11    1    3    3    0    0  0.94522687710E+01  0.13034212456E+02  0.93348560130E+01  0.18611169128E+02  0.51100000000E-03 0. -1.
        -11    1    3    3    0    0 -0.35111010926E+02  0.82635310903E+01 -0.10018526256E+02  0.37435810435E+02  0.51100000000E-03 0.  1.
         12    1    3    3    0    0  0.25498724852E+02 -0.22406402178E+02  0.10549940620E+01  0.33960931085E+02  0.00000000000E+00 0. -1.
</event>
<event>
 7    1  0.1756449E-015  0.9000771E+02  0.7816164E-02  0.1186339E+00
        -11   -1    0    0    0    0  0.00000000000E+00  0.00000000000E+00  0.45593999997E+02  0.45594000000E+02  0.51100000000E-03 0.  1.
         11   -1    0    0    0    0 -0.00000000000E+00 -0.00000000000E+00 -0.45593999997E+02  0.45594000000E+02  0.51100000000E-03 0. -1.
    9900012    2    1    2    0    0  0.56401602723E+00  0.69430711878E+00 -0.77001223891E+00  0.90007705417E+02  0.89999966329E+02 0.  0.
        -12    1    1    2    0    0 -0.56401602723E+00 -0.69430711878E+00  0.77001223891E+00  0.11802945828E+01  0.00000000000E+00 0.  1.
         11    1    3    3    0    0 -0.26834949081E+02 -0.41653368017E+01 -0.56874938259E+01  0.27745488086E+02  0.51100000000E-03 0. -1.
        -11    1    3    3    0    0 -0.14859810585E+02  0.12137539361E+02  0.15307204689E+01  0.19247777477E+02  0.51100000000E-03 0.  1.
        -12    1    3    3    0    0  0.42258775693E+02 -0.72778954405E+01  0.33867611181E+01  0.43014439855E+02  0.00000000000E+00 0.  1.
</event>
<event>
 7    1  0.1756449E-015  0.9000806E+02  0.7816164E-02  0.1186338E+00
        -11   -1    0    0    0    0  0.00000000000E+00  0.00000000000E+00  0.45593999997E+02  0.45594000000E+02  0.51100000000E-03 0. -1.
         11   -1    0    0    0    0 -0.00000000000E+00 -0.00000000000E+00 -0.45593999997E+02  0.45594000000E+02  0.51100000000E-03 0.  1.
    9900012    2    1    2    0    0  0.14726945417E+00  0.11427532747E+01  0.25431251682E+00  0.90008064326E+02  0.90000329974E+02 0.  0.
        -12    1    1    2    0    0 -0.14726945417E+00 -0.11427532747E+01 -0.25431251682E+00  0.11799356742E+01  0.00000000000E+00 0.  1.
         11    1    3    3    0    0 -0.87794328424E+00 -0.11729192990E+02  0.54471175232E+01  0.12962092508E+02  0.51100000000E-03 0. -1.
        -11    1    3    3    0    0 -0.31216999629E+02  0.12769990840E+02 -0.22410375524E+02  0.40494427558E+02  0.51100000000E-03 0.  1.
         12    1    3    3    0    0  0.32242212367E+02  0.10195542446E+00  0.17217570518E+02  0.36551544260E+02  0.00000000000E+00 0. -1.
</event>
<event>
 7    1  0.1756449E-015  0.9000724E+02  0.7816164E-02  0.1186340E+00
        -11   -1    0    0    0    0  0.00000000000E+00  0.00000000000E+00  0.45593999997E+02  0.45594000000E+02  0.51100000000E-03 0.  1.
         11   -1    0    0    0    0 -0.00000000000E+00 -0.00000000000E+00 -0.45593999997E+02  0.45594000000E+02  0.51100000000E-03 0. -1.
    9900012    2    1    2    0    0  0.46684904840E+00  0.51109517803E+00 -0.95656568474E+00  0.90007244215E+02  0.89999499037E+02 0.  0.
        -12    1    1    2    0    0 -0.46684904840E+00 -0.51109517803E+00  0.95656568474E+00  0.11807557852E+01  0.00000000000E+00 0.  1.
         11    1    3    3    0    0 -0.15110380175E+02  0.38811834904E+02  0.57270823936E+00  0.41653452590E+02  0.51100000000E-03 0. -1.
        -11    1    3    3    0    0  0.78092881045E+00 -0.40138959220E+01 -0.93458159065E+01  0.10201249213E+02  0.51100000000E-03 0.  1.
        -12    1    3    3    0    0  0.14796300413E+02 -0.34286843804E+02  0.78165419824E+01  0.38152542412E+02  0.00000000000E+00 0.  1.
</event>
<event>
 7    1  0.1756449E-015  0.9000762E+02  0.7816164E-02  0.1186339E+00
        -11   -1    0    0    0    0  0.00000000000E+00  0.00000000000E+00  0.45593999997E+02  0.45594000000E+02  0.51100000000E-03 0.  1.
         11   -1    0    0    0    0 -0.00000000000E+00 -0.00000000000E+00 -0.45593999997E+02  0.45594000000E+02  0.51100000000E-03 0. -1.
    9900012    2    1    2    0    0 -0.48805218231E+00  0.45265957560E+00  0.97478839722E+00  0.90007615299E+02  0.89999875020E+02 0.  0.
        -12    1    1    2    0    0  0.48805218231E+00 -0.45265957560E+00 -0.97478839722E+00  0.11803847014E+01  0.00000000000E+00 0.  1.
         11    1    3    3    0    0  0.82521279606E+01 -0.12052801393E+02 -0.30955553530E+02  0.34228846488E+02  0.51100000000E-03 0. -1.
        -11    1    3    3    0    0  0.15186159911E+02  0.11449699060E+00  0.16970089557E+01  0.15281112592E+02  0.51100000000E-03 0.  1.
        -12    1    3    3    0    0 -0.23926340053E+02  0.12390963978E+02  0.30233332971E+02  0.40497656219E+02  0.00000000000E+00 0.  1.
</event>
<event>
 7    1  0.1756449E-015  0.9000764E+02  0.7816164E-02  0.1186339E+00
        -11   -1    0    0    0    0  0.00000000000E+00  0.00000000000E+00  0.45593999997E+02  0.45594000000E+02  0.51100000000E-03 0. -1.
         11   -1    0    0    0    0 -0.00000000000E+00 -0.00000000000E+00 -0.45593999997E+02  0.45594000000E+02  0.51100000000E-03 0.  1.
    9900012    2    1    2    0    0 -0.16195685911E+00 -0.43154203878E+00  0.10866422783E+01  0.90007639887E+02  0.89999899933E+02 0.  0.
        -12    1    1    2    0    0  0.16195685911E+00  0.43154203878E+00 -0.10866422783E+01  0.11803601130E+01  0.00000000000E+00 0.  1.
         11    1    3    3    0    0  0.30134389042E+02  0.11451823563E+02  0.28131870707E+02  0.42785836624E+02  0.51100000000E-03 0. -1.
        -11    1    3    3    0    0 -0.90040708688E+01  0.27093411262E+01  0.57097150872E+00  0.94201820722E+01  0.51100000000E-03 0.  1.
        -12    1    3    3    0    0 -0.21292275033E+02 -0.14592706728E+02 -0.27616199937E+02  0.37801621191E+02  0.00000000000E+00 0.  1.
</event>
<event>
 7    1  0.1756449E-015  0.9000758E+02  0.7816164E-02  0.1186339E+00
        -11   -1    0    0    0    0  0.00000000000E+00  0.00000000000E+00  0.45593999997E+02  0.45594000000E+02  0.51100000000E-03 0.  1.
         11   -1    0    0    0    0 -0.00000000000E+00 -0.00000000000E+00 -0.45593999997E+02  0.45594000000E+02  0.51100000000E-03 0. -1.
    9900012    2    1    2    0    0 -0.10571021552E+01  0.14599274474E+00  0.50458007612E+00  0.90007584861E+02  0.89999844181E+02 0.  0.
        -12    1    1    2    0    0  0.10571021552E+01 -0.14599274474E+00 -0.50458007612E+00  0.11804151393E+01  0.00000000000E+00 0.  1.
         11    1    3    3    0    0  0.21792055773E-01  0.85622605767E+01 -0.19393285083E+01  0.87791671815E+01  0.51100000000E-03 0. -1.
        -11    1    3    3    0    0  0.21858211007E+02  0.45922262726E+01  0.33640694118E+02  0.40380270325E+02  0.51100000000E-03 0.  1.
         12    1    3    3    0    0 -0.22937105218E+02 -0.13008494105E+02 -0.31196785533E+02  0.40848147354E+02  0.00000000000E+00 0. -1.
</event>
<event>
 7    1  0.1756449E-015  0.9000773E+02  0.7816164E-02  0.1186339E+00
        -11   -1    0    0    0    0  0.00000000000E+00  0.00000000000E+00  0.45593999997E+02  0.45594000000E+02  0.51100000000E-03 0.  1.
         11   -1    0    0    0    0 -0.00000000000E+00 -0.00000000000E+00 -0.45593999997E+02  0.45594000000E+02  0.51100000000E-03 0. -1.
    9900012    2    1    2    0    0 -0.65016083664E+00  0.13927897161E-01 -0.98494947612E+00  0.90007733687E+02  0.89999994971E+02 0.  0.
        -12    1    1    2    0    0  0.65016083664E+00 -0.13927897161E-01  0.98494947612E+00  0.11802663133E+01  0.00000000000E+00 0.  1.
         11    1    3    3    0    0  0.64712675850E+01  0.57080196721E+01  0.78695647000E+00  0.86647615940E+01  0.51100000000E-03 0. -1.
        -11    1    3    3    0    0  0.21503872772E+01  0.20325125672E+02  0.31841273811E+02  0.37836511695E+02  0.51100000000E-03 0.  1.
         12    1    3    3    0    0 -0.92718156988E+01 -0.26019217447E+02 -0.33613179758E+02  0.43506460398E+02  0.00000000000E+00 0. -1.
</event>
<event>
 7    1  0.1756449E-015  0.9000754E+02  0.7816164E-02  0.1186339E+00
        -11   -1    0    0    0    0  0.00000000000E+00  0.00000000000E+00  0.45593999997E+02  0.45594000000E+02  0.51100000000E-03 0.  1.
         11   -1    0    0    0    0 -0.00000000000E+00 -0.00000000000E+00 -0.45593999997E+02  0.45594000000E+02  0.51100000000E-03 0. -1.
    9900012    2    1    2    0    0  0.76404689158E+00  0.88513451548E+00  0.16206114769E+00  0.90007536287E+02  0.89999794965E+02 0.  0.
        -12    1    1    2    0    0 -0.76404689158E+00 -0.88513451548E+00 -0.16206114769E+00  0.11804637134E+01  0.00000000000E+00 0.  1.
         11    1    3    3    0    0  0.55322083577E+01 -0.34742668046E-01 -0.12242657618E+02  0.13434626983E+02  0.51100000000E-03 0. -1.
        -11    1    3    3    0    0  0.13361694243E+02  0.26657012592E+02 -0.16288565886E+02  0.33977177226E+02  0.51100000000E-03 0.  1.
         12    1    3    3    0    0 -0.18129855709E+02 -0.25737135408E+02  0.28693284652E+02  0.42595732077E+02  0.00000000000E+00 0. -1.
</event>
<event>
 7    1  0.1756449E-015  0.9000822E+02  0.7816164E-02  0.1186338E+00
        -11   -1    0    0    0    0  0.00000000000E+00  0.00000000000E+00  0.45593999997E+02  0.45594000000E+02  0.51100000000E-03 0.  1.
         11   -1    0    0    0    0 -0.00000000000E+00 -0.00000000000E+00 -0.45593999997E+02  0.45594000000E+02  0.51100000000E-03 0. -1.
    9900012    2    1    2    0    0  0.20217355235E+00  0.11418356409E+01 -0.21730003068E+00  0.90008219478E+02  0.90000487174E+02 0.  0.
        -12    1    1    2    0    0 -0.20217355235E+00 -0.11418356409E+01  0.21730003068E+00  0.11797805218E+01  0.00000000000E+00 0.  1.
         11    1    3    3    0    0  0.22885046524E+02  0.25726109163E+02 -0.36014585312E+01  0.34619771099E+02  0.51100000000E-03 0. -1.
        -11    1    3    3    0    0  0.16378022811E+01  0.10554052983E+02 -0.50756677871E+01  0.11825093422E+02  0.51100000000E-03 0.  1.
        -12    1    3    3    0    0 -0.24320675253E+02 -0.35138326506E+02  0.84598262876E+01  0.43563354958E+02  0.00000000000E+00 0.  1.
</event>
<event>
 7    1  0.1756449E-015  0.9000771E+02  0.7816164E-02  0.1186339E+00
        -11   -1    0    0    0    0  0.00000000000E+00  0.00000000000E+00  0.45593999997E+02  0.45594000000E+02  0.51100000000E-03 0.  1.
         11   -1    0    0    0    0 -0.00000000000E+00 -0.00000000000E+00 -0.45593999997E+02  0.45594000000E+02  0.51100000000E-03 0. -1.
    9900012    2    1    2    0    0 -0.82315630518E+00  0.80172563989E+00 -0.26968282277E+00  0.90007712268E+02  0.89999973270E+02 0.  0.
        -12    1    1    2    0    0  0.82315630518E+00 -0.80172563989E+00  0.26968282277E+00  0.11802877316E+01  0.00000000000E+00 0.  1.
         11    1    3    3    0    0  0.34524537228E+01 -0.26797032135E+02 -0.32642718687E+02  0.42373900593E+02  0.51100000000E-03 0. -1.
        -11    1    3    3    0    0 -0.74039745179E+01  0.45060210432E+00  0.49407813132E+01  0.89125305702E+01  0.51100000000E-03 0.  1.
        -12    1    3    3    0    0  0.31283644900E+01  0.27148155670E+02  0.27432254551E+02  0.38721281105E+02  0.00000000000E+00 0.  1.
</event>
<event>
 7    1  0.1756449E-015  0.9000766E+02  0.7816164E-02  0.1186339E+00
        -11   -1    0    0    0    0  0.00000000000E+00  0.00000000000E+00  0.45593999997E+02  0.45594000000E+02  0.51100000000E-03 0. -1.
         11   -1    0    0    0    0 -0.00000000000E+00 -0.00000000000E+00 -0.45593999997E+02  0.45594000000E+02  0.51100000000E-03 0.  1.
    9900012    2    1    2    0    0  0.68389768125E+00  0.94086834743E+00  0.20060781945E+00  0.90007664123E+02  0.89999924489E+02 0.  0.
        -12    1    1    2    0    0 -0.68389768125E+00 -0.94086834743E+00 -0.20060781945E+00  0.11803358771E+01  0.00000000000E+00 0.  1.
         11    1    3    3    0    0  0.10525413146E+01 -0.38534046488E+00 -0.90390631893E+01  0.91082926003E+01  0.51100000000E-03 0. -1.
        -11    1    3    3    0    0  0.32393491791E+02  0.14595319255E+02 -0.14441585804E+02  0.38352588639E+02  0.51100000000E-03 0.  1.
         12    1    3    3    0    0 -0.32762135424E+02 -0.13269110442E+02  0.23681256813E+02  0.42546782883E+02  0.00000000000E+00 0. -1.
</event>
<event>
 7    1  0.1756449E-015  0.9000791E+02  0.7816164E-02  0.1186339E+00
        -11   -1    0    0    0    0  0.00000000000E+00  0.00000000000E+00  0.45593999997E+02  0.45594000000E+02  0.51100000000E-03 0.  1.
         11   -1    0    0    0    0 -0.00000000000E+00 -0.00000000000E+00 -0.45593999997E+02  0.45594000000E+02  0.51100000000E-03 0. -1.
    9900012    2    1    2    0    0 -0.10092376296E+01 -0.54347063399E+00 -0.28054057681E+00  0.90007905115E+02  0.90000168662E+02 0.  0.
        -12    1    1    2    0    0  0.10092376296E+01  0.54347063399E+00  0.28054057681E+00  0.11800948852E+01  0.00000000000E+00 0.  1.
         11    1    3    3    0    0  0.25808461573E+02 -0.27171969584E+02  0.51275902514E+01  0.37824394269E+02  0.51100000000E-03 0. -1.
        -11    1    3    3    0    0  0.74489390935E+01  0.55874972107E+01  0.51072633445E+01  0.10620308745E+02  0.51100000000E-03 0.  1.
        -12    1    3    3    0    0 -0.34266638296E+02  0.21041001739E+02 -0.10515394173E+02  0.41563202101E+02  0.00000000000E+00 0.  1.
</event>
<event>
 7    1  0.1756449E-015  0.9000779E+02  0.7816164E-02  0.1186339E+00
        -11   -1    0    0    0    0  0.00000000000E+00  0.00000000000E+00  0.45593999997E+02  0.45594000000E+02  0.51100000000E-03 0.  1.
         11   -1    0    0    0    0 -0.00000000000E+00 -0.00000000000E+00 -0.45593999997E+02  0.45594000000E+02  0.51100000000E-03 0. -1.
    9900012    2    1    2    0    0  0.52560852207E+00 -0.34312456239E+00 -0.99945265547E+00  0.90007786293E+02  0.90000048272E+02 0.  0.
        -12    1    1    2    0    0 -0.52560852207E+00  0.34312456239E+00  0.99945265547E+00  0.11802137071E+01  0.00000000000E+00 0.  1.
         11    1    3    3    0    0  0.99926311557E+01  0.24262795887E+01  0.49837009867E+01  0.11427019990E+02  0.51100000000E-03 0. -1.
        -11    1    3    3    0    0  0.96307219949E+01  0.65121545659E+01  0.32561324347E+02  0.34574539863E+02  0.51100000000E-03 0.  1.
         12    1    3    3    0    0 -0.19097744629E+02 -0.92815587170E+01 -0.38544477989E+02  0.44006226441E+02  0.00000000000E+00 0. -1.
</event>
<event>
 7    1  0.1756449E-015  0.9000788E+02  0.7816164E-02  0.1186339E+00
        -11   -1    0    0    0    0  0.00000000000E+00  0.00000000000E+00  0.45593999997E+02  0.45594000000E+02  0.51100000000E-03 0. -1.
         11   -1    0    0    0    0 -0.00000000000E+00 -0.00000000000E+00 -0.45593999997E+02  0.45594000000E+02  0.51100000000E-03 0.  1.
    9900012    2    1    2    0    0 -0.11486396789E+00  0.82704823265E+00  0.83395384773E+00  0.90007880713E+02  0.90000143939E+02 0.  0.
        -12    1    1    2    0    0  0.11486396789E+00 -0.82704823265E+00 -0.83395384773E+00  0.11801192865E+01  0.00000000000E+00 0.  1.
         11    1    3    3    0    0 -0.99473082396E+01 -0.16571777927E+01 -0.50534304741E+01  0.11279731347E+02  0.51100000000E-03 0. -1.
        -11    1    3    3    0    0 -0.14835114373E+02  0.68738933814E+01 -0.30466500784E+02  0.34576562857E+02  0.51100000000E-03 0.  1.
         12    1    3    3    0    0  0.24667558645E+02 -0.43896673561E+01  0.36353885106E+02  0.44151586509E+02  0.00000000000E+00 0. -1.
</event>
<event>
 7    1  0.1756449E-015  0.9000774E+02  0.7816164E-02  0.1186339E+00
        -11   -1    0    0    0    0  0.00000000000E+00  0.00000000000E+00  0.45593999997E+02  0.45594000000E+02  0.51100000000E-03 0.  1.
         11   -1    0    0    0    0 -0.00000000000E+00 -0.00000000000E+00 -0.45593999997E+02  0.45594000000E+02  0.51100000000E-03 0. -1.
    9900012    2    1    2    0    0 -0.70146098788E+00 -0.44096549654E+00  0.84055135198E+00  0.90007735342E+02  0.89999996649E+02 0.  0.
        -12    1    1    2    0    0  0.70146098788E+00  0.44096549654E+00 -0.84055135198E+00  0.11802646576E+01  0.00000000000E+00 0.  1.
         11    1    3    3    0    0 -0.99860815188E+01  0.22725971391E+02 -0.25822078552E+02  0.35818589319E+02  0.51100000000E-03 0. -1.
        -11    1    3    3    0    0  0.17297001301E+01  0.10225617928E+02 -0.65230067211E+00  0.10391372430E+02  0.51100000000E-03 0.  1.
        -12    1    3    3    0    0  0.75549204008E+01 -0.33392554815E+02  0.27314930577E+02  0.43797773594E+02  0.00000000000E+00 0.  1.
</event>
<event>
 7    1  0.1756449E-015  0.9000778E+02  0.7816164E-02  0.1186339E+00
        -11   -1    0    0    0    0  0.00000000000E+00  0.00000000000E+00  0.45593999997E+02  0.45594000000E+02  0.51100000000E-03 0. -1.
         11   -1    0    0    0    0 -0.00000000000E+00 -0.00000000000E+00 -0.45593999997E+02  0.45594000000E+02  0.51100000000E-03 0.  1.
    9900012    2    1    2    0    0 -0.30226431330E+00  0.10215095414E+01  0.50800959683E+00  0.90007780017E+02  0.90000041913E+02 0.  0.
        -12    1    1    2    0    0  0.30226431330E+00 -0.10215095414E+01 -0.50800959683E+00  0.11802199832E+01  0.00000000000E+00 0.  1.
         11    1    3    3    0    0  0.81169311990E+01 -0.33564496172E+01  0.31613364261E+02  0.32810899504E+02  0.51100000000E-03 0. -1.
        -11    1    3    3    0    0  0.85243593434E+01 -0.39816928371E+01  0.89021380404E+01  0.12952476289E+02  0.51100000000E-03 0.  1.
        -12    1    3    3    0    0 -0.16943554856E+02  0.83596519957E+01 -0.40007492704E+02  0.44244404224E+02  0.00000000000E+00 0.  1.
</event>
<event>
 7    1  0.1756449E-015  0.9000777E+02  0.7816164E-02  0.1186339E+00
        -11   -1    0    0    0    0  0.00000000000E+00  0.00000000000E+00  0.45593999997E+02  0.45594000000E+02  0.51100000000E-03 0.  1.
         11   -1    0    0    0    0 -0.00000000000E+00 -0.00000000000E+00 -0.45593999997E+02  0.45594000000E+02  0.51100000000E-03 0. -1.
    9900012    2    1    2    0    0 -0.20040116868E+00  0.11615564146E+01  0.59738452588E-01  0.90007770101E+02  0.90000031866E+02 0.  0.
        -12    1    1    2    0    0  0.20040116868E+00 -0.11615564146E+01 -0.59738452588E-01  0.11802298994E+01  0.00000000000E+00 0.  1.
         11    1    3    3    0    0 -0.80018499501E+01  0.28536381772E+02 -0.21722815178E+02  0.36745549211E+02  0.51100000000E-03 0. -1.
        -11    1    3    3    0    0 -0.52633905789E+00  0.97231013014E+01  0.64078537384E+00  0.97583983254E+01  0.51100000000E-03 0.  1.
        -12    1    3    3    0    0  0.83277878393E+01 -0.37097926659E+02  0.21141768257E+02  0.43503822564E+02  0.00000000000E+00 0.  1.
</event>
<event>
 7    1  0.1756449E-015  0.9000776E+02  0.7816164E-02  0.1186339E+00
        -11   -1    0    0    0    0  0.00000000000E+00  0.00000000000E+00  0.45593999997E+02  0.45594000000E+02  0.51100000000E-03 0. -1.
         11   -1    0    0    0    0 -0.00000000000E+00 -0.00000000000E+00 -0.45593999997E+02  0.45594000000E+02  0.51100000000E-03 0.  1.
    9900012    2    1    2    0    0 -0.22580869161E+00 -0.29624239094E+00  0.11199178864E+01  0.90007760536E+02  0.90000022175E+02 0.  0.
        -12    1    1    2    0    0  0.22580869161E+00  0.29624239094E+00 -0.11199178864E+01  0.11802394637E+01  0.00000000000E+00 0.  1.
         11    1    3    3    0    0 -0.26889558657E+01 -0.33711903422E+02  0.19250880266E+02  0.38914255836E+02  0.51100000000E-03 0. -1.
        -11    1    3    3    0    0  0.21713897441E+01 -0.68569971502E+01 -0.48961835659E+01  0.87009170270E+01  0.51100000000E-03 0.  1.
        -12    1    3    3    0    0  0.29175743003E+00  0.40272658181E+02 -0.13234778813E+02  0.42392587673E+02  0.00000000000E+00 0.  1.
</event>
<event>
 7    1  0.1756449E-015  0.9000774E+02  0.7816164E-02  0.1186339E+00
        -11   -1    0    0    0    0  0.00000000000E+00  0.00000000000E+00  0.45593999997E+02  0.45594000000E+02  0.51100000000E-03 0.  1.
         11   -1    0    0    0    0 -0.00000000000E+00 -0.00000000000E+00 -0.45593999997E+02  0.45594000000E+02  0.51100000000E-03 0. -1.
    9900012    2    1    2    0    0 -0.98986560056E+00  0.63975410112E+00 -0.62479822768E-01  0.90007736070E+02  0.89999997386E+02 0.  0.
        -12    1    1    2    0    0  0.98986560056E+00 -0.63975410112E+00  0.62479822768E-01  0.11802639304E+01  0.00000000000E+00 0.  1.
         11    1    3    3    0    0  0.41274435576E+01  0.42741191492E+01  0.37071324733E+01  0.70033360806E+01  0.51100000000E-03 0. -1.
        -11    1    3    3    0    0  0.28969343748E+02  0.14049507660E+02 -0.23472162084E+02  0.39844120467E+02  0.51100000000E-03 0.  1.
         12    1    3    3    0    0 -0.34086652906E+02 -0.17683872708E+02  0.19702549788E+02  0.43160279522E+02  0.00000000000E+00 0. -1.
</event>
<event>
 7    1  0.1756449E-015  0.9000742E+02  0.7816164E-02  0.1186340E+00
        -11   -1    0    0    0    0  0.00000000000E+00  0.00000000000E+00  0.45593999997E+02  0.45594000000E+02  0.51100000000E-03 0.  1.
         11   -1    0    0    0    0 -0.00000000000E+00 -0.00000000000E+00 -0.45593999997E+02  0.45594000000E+02  0.51100000000E-03 0. -1.
    9900012    2    1    2    0    0  0.36239149055E+00 -0.10072900665E+01 -0.49779405596E+00  0.90007423957E+02  0.89999681153E+02 0.  0.
        -12    1    1    2    0    0 -0.36239149055E+00  0.10072900665E+01  0.49779405596E+00  0.11805760427E+01  0.00000000000E+00 0.  1.
         11    1    3    3    0    0 -0.14965430239E+01  0.91390913904E+01 -0.43812778931E+01  0.10244912333E+02  0.51100000000E-03 0. -1.
        -11    1    3    3    0    0  0.17357981839E+02  0.12917886297E+02  0.33033889990E+02  0.39489355629E+02  0.51100000000E-03 0.  1.
         12    1    3    3    0    0 -0.15499047324E+02 -0.23064267754E+02 -0.29150406153E+02  0.40273155996E+02  0.00000000000E+00 0. -1.
</event>
<event>
 7    1  0.1756449E-015  0.9000828E+02  0.7816164E-02  0.1186338E+00
        -11   -1    0    0    0    0  0.00000000000E+00  0.00000000000E+00  0.45593999997E+02  0.45594000000E+02  0.51100000000E-03 0. -1.
         11   -1    0    0    0    0 -0.00000000000E+00 -0.00000000000E+00 -0.45593999997E+02  0.45594000000E+02  0.51100000000E-03 0.  1.
    9900012    2    1    2    0    0 -0.41332266696E+00 -0.10208841399E+01  0.42274186364E+00  0.90008275143E+02  0.90000543574E+02 0.  0.
        -12    1    1    2    0    0  0.41332266696E+00  0.10208841399E+01 -0.42274186364E+00  0.11797248566E+01  0.00000000000E+00 0.  1.
         11    1    3    3    0    0  0.30369350825E+02 -0.18906084955E+02  0.86207640853E+01  0.36797487571E+02  0.51100000000E-03 0. -1.
        -11    1    3    3    0    0  0.92286641391E-01 -0.61185222513E+01  0.86766558313E+01  0.10617400249E+02  0.51100000000E-03 0.  1.
        -12    1    3    3    0    0 -0.30874960134E+02  0.24003723066E+02 -0.16874678053E+02  0.42593387324E+02  0.00000000000E+00 0.  1.
</event>
<event>
 7    1  0.1756449E-015  0.9000772E+02  0.7816164E-02  0.1186339E+00
        -11   -1    0    0    0    0  0.00000000000E+00  0.00000000000E+00  0.45593999997E+02  0.45594000000E+02  0.51100000000E-03 0. -1.
         11   -1    0    0    0    0 -0.00000000000E+00 -0.00000000000E+00 -0.45593999997E+02  0.45594000000E+02  0.51100000000E-03 0.  1.
    9900012    2    1    2    0    0  0.20504451738E+00 -0.13245481874E+00  0.11547609976E+01  0.90007720163E+02  0.89999981269E+02 0.  0.
        -12    1    1    2    0    0 -0.20504451738E+00  0.13245481874E+00 -0.11547609976E+01  0.11802798375E+01  0.00000000000E+00 0.  1.
         11    1    3    3    0    0  0.10243388042E+02  0.10269649376E+02  0.34629951757E+02  0.37544989757E+02  0.51100000000E-03 0. -1.
        -11    1    3    3    0    0 -0.20839394468E+01 -0.74801035120E+01  0.73952122287E+01  0.10723055364E+02  0.51100000000E-03 0.  1.
        -12    1    3    3    0    0 -0.79544040779E+01 -0.29220006822E+01 -0.40870402988E+02  0.41739675042E+02  0.00000000000E+00 0.  1.
</event>
<event>
 7    1  0.1756449E-015  0.9000773E+02  0.7816164E-02  0.1186339E+00
        -11   -1    0    0    0    0  0.00000000000E+00  0.00000000000E+00  0.45593999997E+02  0.45594000000E+02  0.51100000000E-03 0. -1.
         11   -1    0    0    0    0 -0.00000000000E+00 -0.00000000000E+00 -0.45593999997E+02  0.45594000000E+02  0.51100000000E-03 0.  1.
    9900012    2    1    2    0    0  0.68779299967E+00  0.73077283126E+00  0.62125029299E+00  0.90007728816E+02  0.89999990036E+02 0.  0.
        -12    1    1    2    0    0 -0.68779299967E+00 -0.73077283126E+00 -0.62125029299E+00  0.11802711840E+01  0.00000000000E+00 0.  1.
         11    1    3    3    0    0 -0.61480617824E+01 -0.72686389172E+01  0.33960281574E+02  0.35269427274E+02  0.51100000000E-03 0. -1.
        -11    1    3    3    0    0  0.49595100244E+01  0.16415448334E+02  0.29838796595E+01  0.17405953630E+02  0.51100000000E-03 0.  1.
        -12    1    3    3    0    0  0.18763447577E+01 -0.84160365859E+01 -0.36322910940E+02  0.37332347912E+02  0.00000000000E+00 0.  1.
</event>
<event>
 7    1  0.1756449E-015  0.9000781E+02  0.7816164E-02  0.1186339E+00
        -11   -1    0    0    0    0  0.00000000000E+00  0.00000000000E+00  0.45593999997E+02  0.45594000000E+02  0.51100000000E-03 0.  1.
         11   -1    0    0    0    0 -0.00000000000E+00 -0.00000000000E+00 -0.45593999997E+02  0.45594000000E+02  0.51100000000E-03 0. -1.
    9900012    2    1    2    0    0 -0.11566254792E+01  0.15224274844E+00 -0.17856195936E+00  0.90007811571E+02  0.90000073884E+02 0.  0.
        -12    1    1    2    0    0  0.11566254792E+01 -0.15224274844E+00  0.17856195936E+00  0.11801884285E+01  0.00000000000E+00 0.  1.
         11    1    3    3    0    0  0.33631651924E+02  0.66639459250E+01 -0.18687732399E+02  0.39047759589E+02  0.51100000000E-03 0. -1.
        -11    1    3    3    0    0  0.17482329959E+01 -0.10374575416E+02  0.62049343395E+01  0.12214308990E+02  0.51100000000E-03 0.  1.
        -12    1    3    3    0    0 -0.36536510399E+02  0.38628722398E+01  0.12304236100E+02  0.38745742993E+02  0.00000000000E+00 0.  1.
</event>
<event>
 7    1  0.1756449E-015  0.9000774E+02  0.7816164E-02  0.1186339E+00
        -11   -1    0    0    0    0  0.00000000000E+00  0.00000000000E+00  0.45593999997E+02  0.45594000000E+02  0.51100000000E-03 0.  1.
         11   -1    0    0    0    0 -0.00000000000E+00 -0.00000000000E+00 -0.45593999997E+02  0.45594000000E+02  0.51100000000E-03 0. -1.
    9900012    2    1    2    0    0 -0.55526095860E+00  0.59284819449E+00  0.85629308651E+00  0.90007736655E+02  0.89999997979E+02 0.  0.
        -12    1    1    2    0    0  0.55526095860E+00 -0.59284819449E+00 -0.85629308651E+00  0.11802633451E+01  0.00000000000E+00 0.  1.
         11    1    3    3    0    0 -0.10535285478E+02  0.23048638971E+02 -0.30042562998E+02  0.39303785954E+02  0.51100000000E-03 0. -1.
        -11    1    3    3    0    0 -0.51608712571E+01  0.59868314104E+01  0.48843816972E+01  0.92916052054E+01  0.51100000000E-03 0.  1.
        -12    1    3    3    0    0  0.15140895777E+02 -0.28442622187E+02  0.26014474387E+02  0.41412345496E+02  0.00000000000E+00 0.  1.
</event>
<event>
 7    1  0.1756449E-015  0.9000770E+02  0.7816164E-02  0.1186339E+00
        -11   -1    0    0    0    0  0.00000000000E+00  0.00000000000E+00  0.45593999997E+02  0.45594000000E+02  0.51100000000E-03 0. -1.
         11   -1    0    0    0    0 -0.00000000000E+00 -0.00000000000E+00 -0.45593999997E+02  0.45594000000E+02  0.51100000000E-03 0.  1.
    9900012    2    1    2    0    0 -0.10865708613E+01 -0.42659241601E+00  0.17461022556E+00  0.90007700861E+02  0.89999961713E+02 0.  0.
        -12    1    1    2    0    0  0.10865708613E+01  0.42659241601E+00 -0.17461022556E+00  0.11802991387E+01  0.00000000000E+00 0.  1.
         11    1    3    3    0    0 -0.68745700238E+01  0.22263767754E+01 -0.44173346959E+01  0.84693159484E+01  0.51100000000E-03 0. -1.
        -11    1    3    3    0    0 -0.68626121480E+01  0.98585322949E+01 -0.35606631226E+02  0.37578162436E+02  0.51100000000E-03 0.  1.
         12    1    3    3    0    0  0.12650611311E+02 -0.12511501486E+02  0.40198576147E+02  0.43960222477E+02  0.00000000000E+00 0. -1.
</event>
<event>
 7    1  0.1756449E-015  0.9000777E+02  0.7816164E-02  0.1186339E+00
        -11   -1    0    0    0    0  0.00000000000E+00  0.00000000000E+00  0.45593999997E+02  0.45594000000E+02  0.51100000000E-03 0. -1.
         11   -1    0    0    0    0 -0.00000000000E+00 -0.00000000000E+00 -0.45593999997E+02  0.45594000000E+02  0.51100000000E-03 0.  1.
    9900012    2    1    2    0    0  0.19039137421E-01  0.79041121291E+00  0.87625319321E+00  0.90007774584E+02  0.90000036408E+02 0.  0.
        -12    1    1    2    0    0 -0.19039137421E-01 -0.79041121291E+00 -0.87625319321E+00  0.11802254161E+01  0.00000000000E+00 0.  1.
         11    1    3    3    0    0  0.54884561703E+01 -0.22110606697E+01 -0.55978572338E+01  0.81454248686E+01  0.51100000000E-03 0. -1.
        -11    1    3    3    0    0 -0.16482436712E+01 -0.25116019944E+02 -0.27710342804E+02  0.37435200862E+02  0.51100000000E-03 0.  1.
         12    1    3    3    0    0 -0.38211733617E+01  0.28117491827E+02  0.34184453231E+02  0.44427148853E+02  0.00000000000E+00 0. -1.
</event>
<event>
 7    1  0.1756449E-015  0.9000779E+02  0.7816164E-02  0.1186339E+00
        -11   -1    0    0    0    0  0.00000000000E+00  0.00000000000E+00  0.45593999997E+02  0.45594000000E+02  0.51100000000E-03 0. -1.
         11   -1    0    0    0    0 -0.00000000000E+00 -0.00000000000E+00 -0.45593999997E+02  0.45594000000E+02  0.51100000000E-03 0.  1.
    9900012    2    1    2    0    0  0.43012421972E+00 -0.39412989744E-01  0.10983334713E+01  0.90007789577E+02  0.90000051599E+02 0.  0.
        -12    1    1    2    0    0 -0.43012421972E+00  0.39412989744E-01 -0.10983334713E+01  0.11802104229E+01  0.00000000000E+00 0.  1.
         11    1    3    3    0    0 -0.79322957508E+01 -0.22607620030E+02  0.82087080343E+01  0.25326047603E+02  0.51100000000E-03 0. -1.
        -11    1    3    3    0    0  0.21372489872E+02 -0.12647203185E+02 -0.10551088052E+02  0.26982596819E+02  0.51100000000E-03 0.  1.
         12    1    3    3    0    0 -0.13010069902E+02  0.35215410225E+02  0.34407134893E+01  0.37699145156E+02  0.00000000000E+00 0. -1.
</event>
<event>
 7    1  0.1756449E-015  0.9000789E+02  0.7816164E-02  0.1186339E+00
        -11   -1    0    0    0    0  0.00000000000E+00  0.00000000000E+00  0.45593999997E+02  0.45594000000E+02  0.51100000000E-03 0.  1.
         11   -1    0    0    0    0 -0.00000000000E+00 -0.00000000000E+00 -0.45593999997E+02  0.45594000000E+02  0.51100000000E-03 0. -1.
    9900012    2    1    2    0    0  0.89785747822E+00  0.60585321838E+00 -0.46846440266E+00  0.90007887688E+02  0.90000151005E+02 0.  0.
        -12    1    1    2    0    0 -0.89785747822E+00 -0.60585321838E+00  0.46846440266E+00  0.11801123124E+01  0.00000000000E+00 0.  1.
         11    1    3    3    0    0  0.37049169733E+01  0.76943795282E+01 -0.32384469112E+01  0.91333140076E+01  0.51100000000E-03 0. -1.
        -11    1    3    3    0    0 -0.20860067235E+02 -0.32574654468E+02 -0.18710092081E+02  0.42968803389E+02  0.51100000000E-03 0.  1.
         12    1    3    3    0    0  0.18053007740E+02  0.25486128158E+02  0.21480074590E+02  0.37905770291E+02  0.00000000000E+00 0. -1.
</event>
<event>
 7    1  0.1756449E-015  0.9000784E+02  0.7816164E-02  0.1186339E+00
        -11   -1    0    0    0    0  0.00000000000E+00  0.00000000000E+00  0.45593999997E+02  0.45594000000E+02  0.51100000000E-03 0.  1.
         11   -1    0    0    0    0 -0.00000000000E+00 -0.00000000000E+00 -0.45593999997E+02  0.45594000000E+02  0.51100000000E-03 0. -1.
    9900012    2    1    2    0    0  0.63438203384E+00  0.18516781601E+00 -0.97778028723E+00  0.90007838157E+02  0.90000100821E+02 0.  0.
        -12    1    1    2    0    0 -0.63438203384E+00 -0.18516781601E+00  0.97778028723E+00  0.11801618427E+01  0.00000000000E+00 0.  1.
         11    1    3    3    0    0 -0.62576890405E+01 -0.99529696984E+01 -0.76479636649E+00  0.11781561513E+02  0.51100000000E-03 0. -1.
        -11    1    3    3    0    0 -0.35137856314E+02  0.86219509013E+00  0.10880009852E+01  0.35165267995E+02  0.51100000000E-03 0.  1.
         12    1    3    3    0    0  0.42029927389E+02  0.92759424243E+01 -0.13009849060E+01  0.43061008649E+02  0.00000000000E+00 0. -1.
</event>
<event>
 7    1  0.1756449E-015  0.9000745E+02  0.7816164E-02  0.1186340E+00
        -11   -1    0    0    0    0  0.00000000000E+00  0.00000000000E+00  0.45593999997E+02  0.45594000000E+02  0.51100000000E-03 0. -1.
         11   -1    0    0    0    0 -0.00000000000E+00 -0.00000000000E+00 -0.45593999997E+02  0.45594000000E+02  0.51100000000E-03 0.  1.
    9900012    2    1    2    0    0  0.84372421344E+00 -0.80810031635E+00 -0.16969322894E+00  0.90007452474E+02  0.89999710046E+02 0.  0.
        -12    1    1    2    0    0 -0.84372421344E+00  0.80810031635E+00  0.16969322894E+00  0.11805475262E+01  0.00000000000E+00 0.  1.
         11    1    3    3    0    0  0.81417747071E+01 -0.14629848982E+01 -0.58801599955E+01  0.10149142921E+02  0.51100000000E-03 0. -1.
        -11    1    3    3    0    0 -0.75806574443E+01  0.20651114788E+02 -0.31024709367E+02  0.38032453259E+02  0.51100000000E-03 0.  1.
         12    1    3    3    0    0  0.28260695055E+00 -0.19996230207E+02  0.36735176134E+02  0.41825856294E+02  0.00000000000E+00 0. -1.
</event>
<event>
 7    1  0.1756449E-015  0.9000777E+02  0.7816164E-02  0.1186339E+00
        -11   -1    0    0    0    0  0.00000000000E+00  0.00000000000E+00  0.45593999997E+02  0.45594000000E+02  0.51100000000E-03 0. -1.
         11   -1    0    0    0    0 -0.00000000000E+00 -0.00000000000E+00 -0.45593999997E+02  0.45594000000E+02  0.51100000000E-03 0.  1.
    9900012    2    1    2    0    0 -0.93181513529E+00  0.29714868593E+00  0.66057715992E+00  0.90007771644E+02  0.90000033430E+02 0.  0.
        -12    1    1    2    0    0  0.93181513529E+00 -0.29714868593E+00 -0.66057715992E+00  0.11802283559E+01  0.00000000000E+00 0.  1.
         11    1    3    3    0    0  0.77351400079E+00  0.16650967953E+02 -0.13241736832E+02  0.21288415917E+02  0.51100000000E-03 0. -1.
        -11    1    3    3    0    0 -0.16289655438E+02 -0.16160663810E+02 -0.20866562289E+02  0.31015050396E+02  0.51100000000E-03 0.  1.
         12    1    3    3    0    0  0.14584326302E+02 -0.19315545722E+00  0.34768876281E+02  0.37704305331E+02  0.00000000000E+00 0. -1.
</event>
<event>
 7    1  0.1756449E-015  0.9000779E+02  0.7816164E-02  0.1186339E+00
        -11   -1    0    0    0    0  0.00000000000E+00  0.00000000000E+00  0.45593999997E+02  0.45594000000E+02  0.51100000000E-03 0. -1.
         11   -1    0    0    0    0 -0.00000000000E+00 -0.00000000000E+00 -0.45593999997E+02  0.45594000000E+02  0.51100000000E-03 0.  1.
    9900012    2    1    2    0    0  0.10926597415E+01  0.38377294034E+00 -0.22740236328E+00  0.90007788656E+02  0.90000050667E+02 0.  0.
        -12    1    1    2    0    0 -0.10926597415E+01 -0.38377294034E+00  0.22740236328E+00  0.11802113435E+01  0.00000000000E+00 0.  1.
         11    1    3    3    0    0  0.53684261070E+00 -0.15638834589E+01  0.94278078153E+01  0.95717026659E+01  0.51100000000E-03 0. -1.
        -11    1    3    3    0    0  0.29792923272E+02 -0.24607011976E+02 -0.13072231066E+02  0.40792236281E+02  0.51100000000E-03 0.  1.
         12    1    3    3    0    0 -0.29237106141E+02  0.26554668375E+02  0.34170208877E+01  0.39643849710E+02  0.00000000000E+00 0. -1.
</event>
<event>
 7    1  0.1756449E-015  0.9000771E+02  0.7816164E-02  0.1186339E+00
        -11   -1    0    0    0    0  0.00000000000E+00  0.00000000000E+00  0.45593999997E+02  0.45594000000E+02  0.51100000000E-03 0.  1.
         11   -1    0    0    0    0 -0.00000000000E+00 -0.00000000000E+00 -0.45593999997E+02  0.45594000000E+02  0.51100000000E-03 0. -1.
    9900012    2    1    2    0    0 -0.87717104903E+00 -0.62175442885E+00 -0.48690721665E+00  0.90007709249E+02  0.89999970211E+02 0.  0.
        -12    1    1    2    0    0  0.87717104903E+00  0.62175442885E+00  0.48690721665E+00  0.11802907509E+01  0.00000000000E+00 0.  1.
         11    1    3    3    0    0 -0.11952847579E+01 -0.13888396570E+02 -0.38878319116E+02  0.41301815487E+02  0.51100000000E-03 0. -1.
        -11    1    3    3    0    0 -0.58851166154E+01 -0.59062619289E+01  0.50501019032E+01  0.97479257816E+01  0.51100000000E-03 0.  1.
        -12    1    3    3    0    0  0.62032303243E+01  0.19172904070E+02  0.33341309996E+02  0.38957967981E+02  0.00000000000E+00 0.  1.
</event>
<event>
 7    1  0.1756449E-015  0.9000759E+02  0.7816164E-02  0.1186339E+00
        -11   -1    0    0    0    0  0.00000000000E+00  0.00000000000E+00  0.45593999997E+02  0.45594000000E+02  0.51100000000E-03 0.  1.
         11   -1    0    0    0    0 -0.00000000000E+00 -0.00000000000E+00 -0.45593999997E+02  0.45594000000E+02  0.51100000000E-03 0. -1.
    9900012    2    1    2    0    0  0.10773411894E+01 -0.18614942560E+00 -0.44503398880E+00  0.90007588674E+02  0.89999848044E+02 0.  0.
        -12    1    1    2    0    0 -0.10773411894E+01  0.18614942560E+00  0.44503398880E+00  0.11804113259E+01  0.00000000000E+00 0.  1.
         11    1    3    3    0    0 -0.34599572260E+02 -0.87822869278E+01  0.11159963050E+02  0.37400584752E+02  0.51100000000E-03 0. -1.
        -11    1    3    3    0    0 -0.72552670202E+01  0.35648089181E+01 -0.16923841946E+01  0.82589906575E+01  0.51100000000E-03 0.  1.
        -12    1    3    3    0    0  0.42932180469E+02  0.50313285841E+01 -0.99126128438E+01  0.44348013265E+02  0.00000000000E+00 0.  1.
</event>
<event>
 7    1  0.1756449E-015  0.9000780E+02  0.7816164E-02  0.1186339E+00
        -11   -1    0    0    0    0  0.00000000000E+00  0.00000000000E+00  0.45593999997E+02  0.45594000000E+02  0.51100000000E-03 0.  1.
         11   -1    0    0    0    0 -0.00000000000E+00 -0.00000000000E+00 -0.45593999997E+02  0.45594000000E+02  0.51100000000E-03 0. -1.
    9900012    2    1    2    0    0 -0.99689511968E+00  0.16468653637E+00  0.60987633781E+00  0.90007800575E+02  0.90000062743E+02 0.  0.
        -12    1    1    2    0    0  0.99689511968E+00 -0.16468653637E+00 -0.60987633781E+00  0.11801994248E+01  0.00000000000E+00 0.  1.
         11    1    3    3    0    0 -0.68687771244E+01 -0.34236942269E+02 -0.12999664454E+02  0.37260429296E+02  0.51100000000E-03 0. -1.
        -11    1    3    3    0    0  0.29759184440E+01 -0.22514780178E+01 -0.88904436064E+01  0.96418479365E+01  0.51100000000E-03 0.  1.
        -12    1    3    3    0    0  0.28959635607E+01  0.36653106823E+02  0.22499984398E+02  0.43105523343E+02  0.00000000000E+00 0.  1.
</event>
<event>
 7    1  0.1756449E-015  0.9000750E+02  0.7816164E-02  0.1186340E+00
        -11   -1    0    0    0    0  0.00000000000E+00  0.00000000000E+00  0.45593999997E+02  0.45594000000E+02  0.51100000000E-03 0. -1.
         11   -1    0    0    0    0 -0.00000000000E+00 -0.00000000000E+00 -0.45593999997E+02  0.45594000000E+02  0.51100000000E-03 0.  1.
    9900012    2    1    2    0    0 -0.67811078799E+00 -0.71308023562E+00  0.65212555855E+00  0.90007497816E+02  0.89999755986E+02 0.  0.
        -12    1    1    2    0    0  0.67811078799E+00  0.71308023562E+00 -0.65212555855E+00  0.11805021844E+01  0.00000000000E+00 0.  1.
         11    1    3    3    0    0  0.10944219218E+00  0.90635543298E+01 -0.45621077815E+01  0.10147552530E+02  0.51100000000E-03 0. -1.
        -11    1    3    3    0    0  0.27611089454E+02  0.13496296101E+02 -0.18762760909E+02  0.36007825073E+02  0.51100000000E-03 0.  1.
         12    1    3    3    0    0 -0.28398642434E+02 -0.23272930666E+02  0.23976994249E+02  0.43852120212E+02  0.00000000000E+00 0. -1.
</event>
<event>
 7    1  0.1756449E-015  0.9000775E+02  0.7816164E-02  0.1186339E+00
        -11   -1    0    0    0    0  0.00000000000E+00  0.00000000000E+00  0.45593999997E+02  0.45594000000E+02  0.51100000000E-03 0.  1.
         11   -1    0    0    0    0 -0.00000000000E+00 -0.00000000000E+00 -0.45593999997E+02  0.45594000000E+02  0.51100000000E-03 0. -1.
    9900012    2    1    2    0    0  0.13474905504E+00  0.10642213908E+01 -0.49220444651E+00  0.90007750156E+02  0.90000011658E+02 0.  0.
        -12    1    1    2    0    0 -0.13474905504E+00 -0.10642213908E+01  0.49220444651E+00  0.11802498437E+01  0.00000000000E+00 0.  1.
         11    1    3    3    0    0  0.20345548503E+02  0.47717921474E+01 -0.32876501007E+02  0.38956073504E+02  0.51100000000E-03 0. -1.
        -11    1    3    3    0    0  0.42419305268E+01 -0.71125632677E+01 -0.21912046462E+01  0.85664408534E+01  0.51100000000E-03 0.  1.
        -12    1    3    3    0    0 -0.24452729974E+02  0.34049925111E+01  0.34575501206E+02  0.42485235799E+02  0.00000000000E+00 0.  1.
</event>
<event>
 7    1  0.1756449E-015  0.9000765E+02  0.7816164E-02  0.1186339E+00
        -11   -1    0    0    0    0  0.00000000000E+00  0.00000000000E+00  0.45593999997E+02  0.45594000000E+02  0.51100000000E-03 0. -1.
         11   -1    0    0    0    0 -0.00000000000E+00 -0.00000000000E+00 -0.45593999997E+02  0.45594000000E+02  0.51100000000E-03 0.  1.
    9900012    2    1    2    0    0 -0.71484038095E+00 -0.89045995605E+00 -0.29884292638E+00  0.90007651408E+02  0.89999911607E+02 0.  0.
        -12    1    1    2    0    0  0.71484038095E+00  0.89045995605E+00  0.29884292638E+00  0.11803485918E+01  0.00000000000E+00 0.  1.
         11    1    3    3    0    0  0.31205507978E+01 -0.12037113270E+02  0.31377828542E+02  0.33752008199E+02  0.51100000000E-03 0. -1.
        -11    1    3    3    0    0  0.15297367914E+01 -0.10900495929E+02  0.58024323542E+01  0.12443035307E+02  0.51100000000E-03 0.  1.
        -12    1    3    3    0    0 -0.53651279701E+01  0.22047149243E+02 -0.37479103823E+02  0.43812607903E+02  0.00000000000E+00 0.  1.
</event>
<event>
 7    1  0.1756449E-015  0.9000773E+02  0.7816164E-02  0.1186339E+00
        -11   -1    0    0    0    0  0.00000000000E+00  0.00000000000E+00  0.45593999997E+02  0.45594000000E+02  0.51100000000E-03 0.  1.
         11   -1    0    0    0    0 -0.00000000000E+00 -0.00000000000E+00 -0.45593999997E+02  0.45594000000E+02  0.51100000000E-03 0. -1.
    9900012    2    1    2    0    0  0.41391230721E+00  0.51725520607E+00 -0.97681545171E+00  0.90007726823E+02  0.89999988017E+02 0.  0.
        -12    1    1    2    0    0 -0.41391230721E+00 -0.51725520607E+00  0.97681545171E+00  0.11802731773E+01  0.00000000000E+00 0.  1.
         11    1    3    3    0    0 -0.30030406630E+02 -0.19566994832E+02 -0.13963390824E+02  0.38466464520E+02  0.51100000000E-03 0. -1.
        -11    1    3    3    0    0 -0.38226687584E+01  0.14262502636E+02  0.67188525240E+01  0.16222661846E+02  0.51100000000E-03 0.  1.
        -12    1    3    3    0    0  0.34266987695E+02  0.58217474019E+01  0.62677228485E+01  0.35318600457E+02  0.00000000000E+00 0.  1.
</event>
<event>
 7    1  0.1756449E-015  0.9000767E+02  0.7816164E-02  0.1186339E+00
        -11   -1    0    0    0    0  0.00000000000E+00  0.00000000000E+00  0.45593999997E+02  0.45594000000E+02  0.51100000000E-03 0. -1.
         11   -1    0    0    0    0 -0.00000000000E+00 -0.00000000000E+00 -0.45593999997E+02  0.45594000000E+02  0.51100000000E-03 0.  1.
    9900012    2    1    2    0    0 -0.52183843445E+00  0.34689134378E+00  0.10002607383E+01  0.90007673562E+02  0.89999934053E+02 0.  0.
        -12    1    1    2    0    0  0.52183843445E+00 -0.34689134378E+00 -0.10002607383E+01  0.11803264382E+01  0.00000000000E+00 0.  1.
         11    1    3    3    0    0  0.89860660318E+01  0.37157964133E+02  0.11298028462E+02  0.39863631654E+02  0.51100000000E-03 0. -1.
        -11    1    3    3    0    0  0.69323111818E+01  0.17432785538E+01 -0.10814946762E+01  0.72294944106E+01  0.51100000000E-03 0.  1.
        -12    1    3    3    0    0 -0.16440215648E+02 -0.38554351343E+02 -0.92162730471E+01  0.42914547498E+02  0.00000000000E+00 0.  1.
</event>
<event>
 7    1  0.1756449E-015  0.9000777E+02  0.7816164E-02  0.1186339E+00
        -11   -1    0    0    0    0  0.00000000000E+00  0.00000000000E+00  0.45593999997E+02  0.45594000000E+02  0.51100000000E-03 0. -1.
         11   -1    0    0    0    0 -0.00000000000E+00 -0.00000000000E+00 -0.45593999997E+02  0.45594000000E+02  0.51100000000E-03 0.  1.
    9900012    2    1    2    0    0  0.31096722304E+00  0.47220817288E+00  0.10359812447E+01  0.90007771924E+02  0.90000033713E+02 0.  0.
        -12    1    1    2    0    0 -0.31096722304E+00 -0.47220817288E+00 -0.10359812447E+01  0.11802280761E+01  0.00000000000E+00 0.  1.
         11    1    3    3    0    0  0.23882371714E+01 -0.71798002288E+01 -0.49099235239E+01  0.90200087241E+01  0.51100000000E-03 0. -1.
        -11    1    3    3    0    0 -0.39067784708E+02 -0.32986061779E+01  0.13901943543E+02  0.41598517272E+02  0.51100000000E-03 0.  1.
         12    1    3    3    0    0  0.36990514759E+02  0.10950614580E+02 -0.79560387740E+01  0.39389245928E+02  0.00000000000E+00 0. -1.
</event>
<event>
 7    1  0.1756449E-015  0.9000764E+02  0.7816164E-02  0.1186339E+00
        -11   -1    0    0    0    0  0.00000000000E+00  0.00000000000E+00  0.45593999997E+02  0.45594000000E+02  0.51100000000E-03 0.  1.
         11   -1    0    0    0    0 -0.00000000000E+00 -0.00000000000E+00 -0.45593999997E+02  0.45594000000E+02  0.51100000000E-03 0. -1.
    9900012    2    1    2    0    0 -0.59119842009E+00  0.43234590295E+00 -0.92563859409E+00  0.90007641852E+02  0.89999901924E+02 0.  0.
        -12    1    1    2    0    0  0.59119842009E+00 -0.43234590295E+00  0.92563859409E+00  0.11803581484E+01  0.00000000000E+00 0.  1.
         11    1    3    3    0    0  0.26024275855E+02 -0.13490936084E+02 -0.20583053073E+02  0.35818017314E+02  0.51100000000E-03 0. -1.
        -11    1    3    3    0    0  0.38158466475E+01 -0.45139986536E+00 -0.91275638559E+01  0.99033766807E+01  0.51100000000E-03 0.  1.
        -12    1    3    3    0    0 -0.30431320923E+02  0.14374681853E+02  0.28784978335E+02  0.44286247857E+02  0.00000000000E+00 0.  1.
</event>
<event>
 7    1  0.1756449E-015  0.9000821E+02  0.7816164E-02  0.1186338E+00
        -11   -1    0    0    0    0  0.00000000000E+00  0.00000000000E+00  0.45593999997E+02  0.45594000000E+02  0.51100000000E-03 0.  1.
         11   -1    0    0    0    0 -0.00000000000E+00 -0.00000000000E+00 -0.45593999997E+02  0.45594000000E+02  0.51100000000E-03 0. -1.
    9900012    2    1    2    0    0 -0.45373996380E+00  0.10161442989E+01 -0.39176647327E+00  0.90008207577E+02  0.90000475116E+02 0.  0.
        -12    1    1    2    0    0  0.45373996380E+00 -0.10161442989E+01  0.39176647327E+00  0.11797924226E+01  0.00000000000E+00 0.  1.
         11    1    3    3    0    0  0.10353417803E+02 -0.53631095248E+01 -0.34107714163E+02  0.36045698352E+02  0.51100000000E-03 0. -1.
        -11    1    3    3    0    0  0.74273210111E+01 -0.51672098341E+01 -0.44756256707E+01  0.10094373694E+02  0.51100000000E-03 0.  1.
        -12    1    3    3    0    0 -0.18234478778E+02  0.11546463658E+02  0.38191573360E+02  0.43868135532E+02  0.00000000000E+00 0.  1.
</event>
<event>
 7    1  0.1756449E-015  0.9000771E+02  0.7816164E-02  0.1186339E+00
        -11   -1    0    0    0    0  0.00000000000E+00  0.00000000000E+00  0.45593999997E+02  0.45594000000E+02  0.51100000000E-03 0.  1.
         11   -1    0    0    0    0 -0.00000000000E+00 -0.00000000000E+00 -0.45593999997E+02  0.45594000000E+02  0.51100000000E-03 0. -1.
    9900012    2    1    2    0    0 -0.99068865264E+00 -0.60914435131E+00 -0.20142004525E+00  0.90007707290E+02  0.89999968226E+02 0.  0.
        -12    1    1    2    0    0  0.99068865264E+00  0.60914435131E+00  0.20142004525E+00  0.11802927102E+01  0.00000000000E+00 0.  1.
         11    1    3    3    0    0  0.33796003449E+02  0.14522210718E+02 -0.44734531362E+01  0.37055043334E+02  0.51100000000E-03 0. -1.
        -11    1    3    3    0    0  0.67396335451E+01 -0.35877454484E+01  0.61602839233E+01  0.98103861291E+01  0.51100000000E-03 0.  1.
        -12    1    3    3    0    0 -0.41526325647E+02 -0.11543609621E+02 -0.18882508323E+01  0.43142277826E+02  0.00000000000E+00 0.  1.
</event>
<event>
 7    1  0.1756449E-015  0.9000790E+02  0.7816164E-02  0.1186339E+00
        -11   -1    0    0    0    0  0.00000000000E+00  0.00000000000E+00  0.45593999997E+02  0.45594000000E+02  0.51100000000E-03 0. -1.
         11   -1    0    0    0    0 -0.00000000000E+00 -0.00000000000E+00 -0.45593999997E+02  0.45594000000E+02  0.51100000000E-03 0.  1.
    9900012    2    1    2    0    0 -0.92844825669E+00  0.25540976792E+00  0.68218689837E+00  0.90007902852E+02  0.90000166369E+02 0.  0.
        -12    1    1    2    0    0  0.92844825669E+00 -0.25540976792E+00 -0.68218689837E+00  0.11800971482E+01  0.00000000000E+00 0.  1.
         11    1    3    3    0    0 -0.10298786142E+02 -0.99770770380E+01 -0.48904982680E+01  0.15150050686E+02  0.51100000000E-03 0. -1.
        -11    1    3    3    0    0 -0.11705179937E+02  0.26288378886E+02  0.27995957364E+02  0.40148022751E+02  0.51100000000E-03 0.  1.
         12    1    3    3    0    0  0.21075517822E+02 -0.16055892080E+02 -0.22423272197E+02  0.34709829415E+02  0.00000000000E+00 0. -1.
</event>
<event>
 7    1  0.1756449E-015  0.9000778E+02  0.7816164E-02  0.1186339E+00
        -11   -1    0    0    0    0  0.00000000000E+00  0.00000000000E+00  0.45593999997E+02  0.45594000000E+02  0.51100000000E-03 0.  1.
         11   -1    0    0    0    0 -0.00000000000E+00 -0.00000000000E+00 -0.45593999997E+02  0.45594000000E+02  0.51100000000E-03 0. -1.
    9900012    2    1    2    0    0  0.63019010749E+00  0.92197579680E+00 -0.38176661984E+00  0.90007777693E+02  0.90000039559E+02 0.  0.
        -12    1    1    2    0    0 -0.63019010749E+00 -0.92197579680E+00  0.38176661984E+00  0.11802223068E+01  0.00000000000E+00 0.  1.
         11    1    3    3    0    0 -0.34150656633E+02  0.22643581933E+01 -0.37840350374E+01  0.34434192134E+02  0.51100000000E-03 0. -1.
        -11    1    3    3    0    0 -0.84173967255E+01  0.35555433957E+00 -0.71757891638E+01  0.11066658796E+02  0.51100000000E-03 0.  1.
        -12    1    3    3    0    0  0.43198243466E+02 -0.16979367361E+01  0.10578057581E+02  0.44506926763E+02  0.00000000000E+00 0.  1.
</event>
<event>
 7    1  0.1756449E-015  0.9000747E+02  0.7816164E-02  0.1186340E+00
        -11   -1    0    0    0    0  0.00000000000E+00  0.00000000000E+00  0.45593999997E+02  0.45594000000E+02  0.51100000000E-03 0.  1.
         11   -1    0    0    0    0 -0.00000000000E+00 -0.00000000000E+00 -0.45593999997E+02  0.45594000000E+02  0.51100000000E-03 0. -1.
    9900012    2    1    2    0    0 -0.10674932394E+01  0.26942854192E+00  0.42604095813E+00  0.90007472807E+02  0.89999730648E+02 0.  0.
        -12    1    1    2    0    0  0.10674932394E+01 -0.26942854192E+00 -0.42604095813E+00  0.11805271929E+01  0.00000000000E+00 0.  1.
         11    1    3    3    0    0 -0.21521153488E+01  0.66740838323E+01  0.51018097634E+01  0.86719927697E+01  0.51100000000E-03 0. -1.
        -11    1    3    3    0    0  0.11456832539E+02  0.30602602941E+02  0.17392225152E+02  0.37017128665E+02  0.51100000000E-03 0.  1.
         12    1    3    3    0    0 -0.10372210430E+02 -0.37007258232E+02 -0.22067993958E+02  0.44318351372E+02  0.00000000000E+00 0. -1.
</event>
<event>
 7    1  0.1756449E-015  0.9000780E+02  0.7816164E-02  0.1186339E+00
        -11   -1    0    0    0    0  0.00000000000E+00  0.00000000000E+00  0.45593999997E+02  0.45594000000E+02  0.51100000000E-03 0.  1.
         11   -1    0    0    0    0 -0.00000000000E+00 -0.00000000000E+00 -0.45593999997E+02  0.45594000000E+02  0.51100000000E-03 0. -1.
    9900012    2    1    2    0    0  0.49217868139E+00  0.41501630101E+00 -0.98914364561E+00  0.90007795130E+02  0.90000057225E+02 0.  0.
        -12    1    1    2    0    0 -0.49217868139E+00 -0.41501630101E+00  0.98914364561E+00  0.11802048704E+01  0.00000000000E+00 0.  1.
         11    1    3    3    0    0 -0.96764014958E+00 -0.55469236953E+01  0.80347069979E+01  0.98112795671E+01  0.51100000000E-03 0. -1.
        -11    1    3    3    0    0  0.20967785596E+02 -0.31263732832E+02 -0.50590769716E+01  0.37982407552E+02  0.51100000000E-03 0.  1.
         12    1    3    3    0    0 -0.19507966766E+02  0.37225672828E+02 -0.39647736719E+01  0.42214108010E+02  0.00000000000E+00 0. -1.
</event>
<event>
 7    1  0.1756449E-015  0.9000653E+02  0.7816164E-02  0.1186341E+00
        -11   -1    0    0    0    0  0.00000000000E+00  0.00000000000E+00  0.45593999997E+02  0.45594000000E+02  0.51100000000E-03 0.  1.
         11   -1    0    0    0    0 -0.00000000000E+00 -0.00000000000E+00 -0.45593999997E+02  0.45594000000E+02  0.51100000000E-03 0. -1.
    9900012    2    1    2    0    0  0.47361013986E+00 -0.27600193179E+00 -0.10466074637E+01  0.90006530231E+02  0.89998775622E+02 0.  0.
        -12    1    1    2    0    0 -0.47361013986E+00  0.27600193179E+00  0.10466074637E+01  0.11814697685E+01  0.00000000000E+00 0.  1.
         11    1    3    3    0    0 -0.90657372132E+00  0.66768277710E+01  0.71471521299E+01  0.98226111001E+01  0.51100000000E-03 0. -1.
        -11    1    3    3    0    0  0.21776041700E+02 -0.15323788846E+02  0.27469086286E+02  0.38256570656E+02  0.51100000000E-03 0.  1.
         12    1    3    3    0    0 -0.20395857839E+02  0.83709591428E+01 -0.35662845879E+02  0.41927348475E+02  0.00000000000E+00 0. -1.
</event>
<event>
 7    1  0.1756449E-015  0.9000774E+02  0.7816164E-02  0.1186339E+00
        -11   -1    0    0    0    0  0.00000000000E+00  0.00000000000E+00  0.45593999997E+02  0.45594000000E+02  0.51100000000E-03 0.  1.
         11   -1    0    0    0    0 -0.00000000000E+00 -0.00000000000E+00 -0.45593999997E+02  0.45594000000E+02  0.51100000000E-03 0. -1.
    9900012    2    1    2    0    0  0.69718954709E+00  0.87811715537E+00  0.36859432148E+00  0.90007735294E+02  0.89999996600E+02 0.  0.
        -12    1    1    2    0    0 -0.69718954709E+00 -0.87811715537E+00 -0.36859432148E+00  0.11802647063E+01  0.00000000000E+00 0.  1.
         11    1    3    3    0    0 -0.15333412726E+01 -0.88293987216E+01 -0.20179595346E+01  0.91859445997E+01  0.51100000000E-03 0. -1.
        -11    1    3    3    0    0 -0.16747512847E+02  0.17994394384E+02 -0.32199363852E+02  0.40510201783E+02  0.51100000000E-03 0.  1.
         12    1    3    3    0    0  0.18978043667E+02 -0.82868785074E+01  0.34585917708E+02  0.40311588911E+02  0.00000000000E+00 0. -1.
</event>
<event>
 7    1  0.1756449E-015  0.9000822E+02  0.7816164E-02  0.1186338E+00
        -11   -1    0    0    0    0  0.00000000000E+00  0.00000000000E+00  0.45593999997E+02  0.45594000000E+02  0.51100000000E-03 0.  1.
         11   -1    0    0    0    0 -0.00000000000E+00 -0.00000000000E+00 -0.45593999997E+02  0.45594000000E+02  0.51100000000E-03 0. -1.
    9900012    2    1    2    0    0  0.43620071140E+00  0.84636746242E+00  0.69661329688E+00  0.90008220772E+02  0.90000488485E+02 0.  0.
        -12    1    1    2    0    0 -0.43620071140E+00 -0.84636746242E+00 -0.69661329688E+00  0.11797792283E+01  0.00000000000E+00 0.  1.
         11    1    3    3    0    0 -0.11572089722E+02 -0.71961495532E+00  0.46719003544E-01  0.11594537039E+02  0.51100000000E-03 0. -1.
        -11    1    3    3    0    0 -0.24194290145E+02 -0.23948571855E+02  0.20184384877E+01  0.34102373286E+02  0.51100000000E-03 0.  1.
         12    1    3    3    0    0  0.36202580579E+02  0.25514554273E+02 -0.13685441944E+01  0.44311310447E+02  0.00000000000E+00 0. -1.
</event>
<event>
 7    1  0.1756449E-015  0.9000776E+02  0.7816164E-02  0.1186339E+00
        -11   -1    0    0    0    0  0.00000000000E+00  0.00000000000E+00  0.45593999997E+02  0.45594000000E+02  0.51100000000E-03 0.  1.
         11   -1    0    0    0    0 -0.00000000000E+00 -0.00000000000E+00 -0.45593999997E+02  0.45594000000E+02  0.51100000000E-03 0. -1.
    9900012    2    1    2    0    0  0.55007269120E+00 -0.10387794488E+01 -0.10644676887E+00  0.90007756964E+02  0.90000018556E+02 0.  0.
        -12    1    1    2    0    0 -0.55007269120E+00  0.10387794488E+01  0.10644676887E+00  0.11802430357E+01  0.00000000000E+00 0.  1.
         11    1    3    3    0    0 -0.19127672777E+01  0.68407017081E+01 -0.11670503636E+00  0.71040480604E+01  0.51100000000E-03 0. -1.
        -11    1    3    3    0    0 -0.31059582093E+02 -0.60388302591E+01  0.25591760771E+02  0.40695249480E+02  0.51100000000E-03 0.  1.
         12    1    3    3    0    0  0.33522422061E+02 -0.18406508978E+01 -0.25581502503E+02  0.42208459424E+02  0.00000000000E+00 0. -1.
</event>
<event>
 7    1  0.1756449E-015  0.9000769E+02  0.7816164E-02  0.1186339E+00
        -11   -1    0    0    0    0  0.00000000000E+00  0.00000000000E+00  0.45593999997E+02  0.45594000000E+02  0.51100000000E-03 0.  1.
         11   -1    0    0    0    0 -0.00000000000E+00 -0.00000000000E+00 -0.45593999997E+02  0.45594000000E+02  0.51100000000E-03 0. -1.
    9900012    2    1    2    0    0 -0.73211115628E-01 -0.86014871439E+00 -0.80493377680E+00  0.90007688997E+02  0.89999949692E+02 0.  0.
        -12    1    1    2    0    0  0.73211115628E-01  0.86014871439E+00  0.80493377680E+00  0.11803110028E+01  0.00000000000E+00 0.  1.
         11    1    3    3    0    0 -0.87449877002E+01  0.11438487184E+02  0.12984988252E+02  0.19388752386E+02  0.51100000000E-03 0. -1.
        -11    1    3    3    0    0  0.78879872396E+01  0.64313702787E+01  0.25297787715E+02  0.27268313661E+02  0.51100000000E-03 0.  1.
        -12    1    3    3    0    0  0.78378934497E+00 -0.18730006177E+02 -0.39087709744E+02  0.43350622950E+02  0.00000000000E+00 0.  1.
</event>
<event>
 7    1  0.1756449E-015  0.9000769E+02  0.7816164E-02  0.1186339E+00
        -11   -1    0    0    0    0  0.00000000000E+00  0.00000000000E+00  0.45593999997E+02  0.45594000000E+02  0.51100000000E-03 0. -1.
         11   -1    0    0    0    0 -0.00000000000E+00 -0.00000000000E+00 -0.45593999997E+02  0.45594000000E+02  0.51100000000E-03 0.  1.
    9900012    2    1    2    0    0  0.95506642827E+00  0.55038516541E+00  0.42197153761E+00  0.90007688308E+02  0.89999948993E+02 0.  0.
        -12    1    1    2    0    0 -0.95506642827E+00 -0.55038516541E+00 -0.42197153761E+00  0.11803116924E+01  0.00000000000E+00 0.  1.
         11    1    3    3    0    0  0.34739125654E+02  0.17341608042E+02  0.18485501351E+02  0.43002929913E+02  0.51100000000E-03 0. -1.
        -11    1    3    3    0    0  0.25881833664E+00 -0.16618597278E+01 -0.83336800737E+01  0.85017050359E+01  0.51100000000E-03 0.  1.
        -12    1    3    3    0    0 -0.34042877562E+02 -0.15129363148E+02 -0.97298497393E+01  0.38503053359E+02  0.00000000000E+00 0.  1.
</event>
<event>
 7    1  0.1756449E-015  0.9000776E+02  0.7816164E-02  0.1186339E+00
        -11   -1    0    0    0    0  0.00000000000E+00  0.00000000000E+00  0.45593999997E+02  0.45594000000E+02  0.51100000000E-03 0.  1.
         11   -1    0    0    0    0 -0.00000000000E+00 -0.00000000000E+00 -0.45593999997E+02  0.45594000000E+02  0.51100000000E-03 0. -1.
    9900012    2    1    2    0    0 -0.10104770811E+01 -0.60950572952E+00 -0.20034515816E-01  0.90007761656E+02  0.90000023310E+02 0.  0.
        -12    1    1    2    0    0  0.10104770811E+01  0.60950572952E+00  0.20034515816E-01  0.11802383436E+01  0.00000000000E+00 0.  1.
         11    1    3    3    0    0  0.10946825628E+02  0.20174984340E+01  0.84574223969E+01  0.13979673999E+02  0.51100000000E-03 0. -1.
        -11    1    3    3    0    0  0.70371072094E+01 -0.21576411736E+02  0.24578464258E+02  0.33453898529E+02  0.51100000000E-03 0.  1.
         12    1    3    3    0    0 -0.18994409918E+02  0.18949407572E+02 -0.33055921171E+02  0.42574189128E+02  0.00000000000E+00 0. -1.
</event>
<event>
 7    1  0.1756449E-015  0.9000778E+02  0.7816164E-02  0.1186339E+00
        -11   -1    0    0    0    0  0.00000000000E+00  0.00000000000E+00  0.45593999997E+02  0.45594000000E+02  0.51100000000E-03 0.  1.
         11   -1    0    0    0    0 -0.00000000000E+00 -0.00000000000E+00 -0.45593999997E+02  0.45594000000E+02  0.51100000000E-03 0. -1.
    9900012    2    1    2    0    0 -0.45798935337E+00  0.46877893658E+00 -0.98153111647E+00  0.90007783379E+02  0.90000045320E+02 0.  0.
        -12    1    1    2    0    0  0.45798935337E+00 -0.46877893658E+00  0.98153111647E+00  0.11802166207E+01  0.00000000000E+00 0.  1.
         11    1    3    3    0    0 -0.18420648280E+02  0.16515990030E+02 -0.34041504330E+02  0.42082326778E+02  0.51100000000E-03 0. -1.
        -11    1    3    3    0    0 -0.53242162736E+01 -0.76352446329E+01  0.52349854342E+01  0.10679387262E+02  0.51100000000E-03 0.  1.
        -12    1    3    3    0    0  0.23286875201E+02 -0.84119664603E+01  0.27824987779E+02  0.37246069340E+02  0.00000000000E+00 0.  1.
</event>
<event>
 7    1  0.1756449E-015  0.9000772E+02  0.7816164E-02  0.1186339E+00
        -11   -1    0    0    0    0  0.00000000000E+00  0.00000000000E+00  0.45593999997E+02  0.45594000000E+02  0.51100000000E-03 0. -1.
         11   -1    0    0    0    0 -0.00000000000E+00 -0.00000000000E+00 -0.45593999997E+02  0.45594000000E+02  0.51100000000E-03 0.  1.
    9900012    2    1    2    0    0 -0.19578864105E+00 -0.31575797967E+00  0.11202822532E+01  0.90007716720E+02  0.89999977781E+02 0.  0.
        -12    1    1    2    0    0  0.19578864105E+00  0.31575797967E+00 -0.11202822532E+01  0.11802832798E+01  0.00000000000E+00 0.  1.
         11    1    3    3    0    0 -0.80766649775E+00  0.35022329187E+01  0.64265870153E+01  0.73633539582E+01  0.51100000000E-03 0. -1.
        -11    1    3    3    0    0  0.36668331895E+02 -0.19938883156E+02 -0.98568568667E+01  0.42886865740E+02  0.51100000000E-03 0.  1.
         12    1    3    3    0    0 -0.36056454038E+02  0.16120892258E+02  0.45505521046E+01  0.39757497022E+02  0.00000000000E+00 0. -1.
</event>
<event>
 7    1  0.1756449E-015  0.9000781E+02  0.7816164E-02  0.1186339E+00
        -11   -1    0    0    0    0  0.00000000000E+00  0.00000000000E+00  0.45593999997E+02  0.45594000000E+02  0.51100000000E-03 0. -1.
         11   -1    0    0    0    0 -0.00000000000E+00 -0.00000000000E+00 -0.45593999997E+02  0.45594000000E+02  0.51100000000E-03 0.  1.
    9900012    2    1    2    0    0 -0.86697447626E+00 -0.22451472088E+00  0.76863460791E+00  0.90007809014E+02  0.90000071293E+02 0.  0.
        -12    1    1    2    0    0  0.86697447626E+00  0.22451472088E+00 -0.76863460791E+00  0.11801909858E+01  0.00000000000E+00 0.  1.
         11    1    3    3    0    0  0.25203573120E+02  0.17044480669E+02 -0.15420090340E+02  0.34110315238E+02  0.51100000000E-03 0. -1.
        -11    1    3    3    0    0  0.22128555627E+01  0.93464274208E+01 -0.58467881656E+01  0.11244437175E+02  0.51100000000E-03 0.  1.
        -12    1    3    3    0    0 -0.28283403159E+02 -0.26615422811E+02  0.22035513114E+02  0.44653056601E+02  0.00000000000E+00 0.  1.
</event>
<event>
 7    1  0.1756449E-015  0.9000776E+02  0.7816164E-02  0.1186339E+00
        -11   -1    0    0    0    0  0.00000000000E+00  0.00000000000E+00  0.45593999997E+02  0.45594000000E+02  0.51100000000E-03 0. -1.
         11   -1    0    0    0    0 -0.00000000000E+00 -0.00000000000E+00 -0.45593999997E+02  0.45594000000E+02  0.51100000000E-03 0.  1.
    9900012    2    1    2    0    0 -0.11649983140E+01 -0.18349449848E+00 -0.45615185719E-01  0.90007757632E+02  0.90000019233E+02 0.  0.
        -12    1    1    2    0    0  0.11649983140E+01  0.18349449848E+00  0.45615185719E-01  0.11802423682E+01  0.00000000000E+00 0.  1.
         11    1    3    3    0    0 -0.11310732039E+02  0.40763637102E+01  0.41990529648E+01  0.12735047955E+02  0.51100000000E-03 0. -1.
        -11    1    3    3    0    0  0.12568105742E+02  0.35301661559E+02 -0.69731424025E+00  0.37478671777E+02  0.51100000000E-03 0.  1.
         12    1    3    3    0    0 -0.24223720164E+01 -0.39561519768E+02 -0.35473539103E+01  0.39794037899E+02  0.00000000000E+00 0. -1.
</event>
<event>
 7    1  0.1756449E-015  0.9000802E+02  0.7816164E-02  0.1186338E+00
        -11   -1    0    0    0    0  0.00000000000E+00  0.00000000000E+00  0.45593999997E+02  0.45594000000E+02  0.51100000000E-03 0.  1.
         11   -1    0    0    0    0 -0.00000000000E+00 -0.00000000000E+00 -0.45593999997E+02  0.45594000000E+02  0.51100000000E-03 0. -1.
    9900012    2    1    2    0    0 -0.48572672761E+00 -0.10730156712E+01 -0.71071579443E-01  0.90008023621E+02  0.90000288733E+02 0.  0.
        -12    1    1    2    0    0  0.48572672761E+00  0.10730156712E+01  0.71071579443E-01  0.11799763785E+01  0.00000000000E+00 0.  1.
         11    1    3    3    0    0 -0.90031984136E+01  0.52596477468E+01  0.16885421755E+01  0.10562795607E+02  0.51100000000E-03 0. -1.
        -11    1    3    3    0    0 -0.16004101439E+02  0.30783234181E+02 -0.38718259837E+01  0.34910310887E+02  0.51100000000E-03 0.  1.
         12    1    3    3    0    0  0.24521573125E+02 -0.37115897599E+02  0.21122122287E+01  0.44534917128E+02  0.00000000000E+00 0. -1.
</event>
<event>
 7    1  0.1756449E-015  0.9000795E+02  0.7816164E-02  0.1186339E+00
        -11   -1    0    0    0    0  0.00000000000E+00  0.00000000000E+00  0.45593999997E+02  0.45594000000E+02  0.51100000000E-03 0. -1.
         11   -1    0    0    0    0 -0.00000000000E+00 -0.00000000000E+00 -0.45593999997E+02  0.45594000000E+02  0.51100000000E-03 0.  1.
    9900012    2    1    2    0    0 -0.11468399422E+01 -0.24704359912E+00 -0.12743163633E+00  0.90007952876E+02  0.90000217054E+02 0.  0.
        -12    1    1    2    0    0  0.11468399422E+01  0.24704359912E+00  0.12743163633E+00  0.11800471240E+01  0.00000000000E+00 0.  1.
         11    1    3    3    0    0 -0.19483153457E+01 -0.10437764795E+02  0.34065860226E+02  0.35682288320E+02  0.51100000000E-03 0. -1.
        -11    1    3    3    0    0  0.14916460878E+02  0.73846411383E+00  0.12851869306E+01  0.14989924619E+02  0.51100000000E-03 0.  1.
        -12    1    3    3    0    0 -0.14114985475E+02  0.94522570819E+01 -0.35478478793E+02  0.39335739936E+02  0.00000000000E+00 0.  1.
</event>
<event>
 7    1  0.1756449E-015  0.9000772E+02  0.7816164E-02  0.1186339E+00
        -11   -1    0    0    0    0  0.00000000000E+00  0.00000000000E+00  0.45593999997E+02  0.45594000000E+02  0.51100000000E-03 0. -1.
         11   -1    0    0    0    0 -0.00000000000E+00 -0.00000000000E+00 -0.45593999997E+02  0.45594000000E+02  0.51100000000E-03 0.  1.
    9900012    2    1    2    0    0 -0.36991933349E-01 -0.90239928771E+00  0.75985175033E+00  0.90007717169E+02  0.89999978236E+02 0.  0.
        -12    1    1    2    0    0  0.36991933349E-01  0.90239928771E+00 -0.75985175033E+00  0.11802828305E+01  0.00000000000E+00 0.  1.
         11    1    3    3    0    0  0.16028142327E+01  0.95492292037E+01  0.37475553983E+01  0.10382724285E+02  0.51100000000E-03 0. -1.
        -11    1    3    3    0    0 -0.35454986004E+02  0.24040314742E+00 -0.19543960161E+02  0.40485555513E+02  0.51100000000E-03 0.  1.
         12    1    3    3    0    0  0.33815179838E+02 -0.10692031639E+02  0.16556256513E+02  0.39139437371E+02  0.00000000000E+00 0. -1.
</event>
<event>
 7    1  0.1756449E-015  0.9000768E+02  0.7816164E-02  0.1186339E+00
        -11   -1    0    0    0    0  0.00000000000E+00  0.00000000000E+00  0.45593999997E+02  0.45594000000E+02  0.51100000000E-03 0. -1.
         11   -1    0    0    0    0 -0.00000000000E+00 -0.00000000000E+00 -0.45593999997E+02  0.45594000000E+02  0.51100000000E-03 0.  1.
    9900012    2    1    2    0    0 -0.52760992633E+00 -0.10222335968E+01  0.26423170220E+00  0.90007681334E+02  0.89999941928E+02 0.  0.
        -12    1    1    2    0    0  0.52760992633E+00  0.10222335968E+01 -0.26423170220E+00  0.11803186660E+01  0.00000000000E+00 0.  1.
         11    1    3    3    0    0 -0.95574130016E+01 -0.19549590591E+01 -0.37805009652E+01  0.10462227106E+02  0.51100000000E-03 0. -1.
        -11    1    3    3    0    0 -0.21194322550E+02  0.19286031019E+02 -0.21583330440E+02  0.35874649183E+02  0.51100000000E-03 0.  1.
         12    1    3    3    0    0  0.30224125625E+02 -0.18353305557E+02  0.25628063107E+02  0.43670805046E+02  0.00000000000E+00 0. -1.
</event>
<event>
 7    1  0.1756449E-015  0.9000773E+02  0.7816164E-02  0.1186339E+00
        -11   -1    0    0    0    0  0.00000000000E+00  0.00000000000E+00  0.45593999997E+02  0.45594000000E+02  0.51100000000E-03 0.  1.
         11   -1    0    0    0    0 -0.00000000000E+00 -0.00000000000E+00 -0.45593999997E+02  0.45594000000E+02  0.51100000000E-03 0. -1.
    9900012    2    1    2    0    0  0.51737712491E+00  0.45144839885E+00 -0.95997173958E+00  0.90007732875E+02  0.89999994149E+02 0.  0.
        -12    1    1    2    0    0 -0.51737712491E+00 -0.45144839885E+00  0.95997173958E+00  0.11802671253E+01  0.00000000000E+00 0.  1.
         11    1    3    3    0    0 -0.60858374365E+01 -0.59464018894E+01  0.44020686913E+01  0.95799437241E+01  0.51100000000E-03 0. -1.
        -11    1    3    3    0    0 -0.29802750997E+02  0.17968065789E+02  0.14108801542E+02  0.37551479816E+02  0.51100000000E-03 0.  1.
         12    1    3    3    0    0  0.36405965558E+02 -0.11570215501E+02 -0.19470841973E+02  0.42876309334E+02  0.00000000000E+00 0. -1.
</event>
<event>
 7    1  0.1756449E-015  0.9000781E+02  0.7816164E-02  0.1186339E+00
        -11   -1    0    0    0    0  0.00000000000E+00  0.00000000000E+00  0.45593999997E+02  0.45594000000E+02  0.51100000000E-03 0. -1.
         11   -1    0    0    0    0 -0.00000000000E+00 -0.00000000000E+00 -0.45593999997E+02  0.45594000000E+02  0.51100000000E-03 0.  1.
    9900012    2    1    2    0    0  0.13534050962E+00  0.99283131947E+00 -0.62354409189E+00  0.90007814287E+02  0.90000076636E+02 0.  0.
        -12    1    1    2    0    0 -0.13534050962E+00 -0.99283131947E+00  0.62354409189E+00  0.11801857129E+01  0.00000000000E+00 0.  1.
         11    1    3    3    0    0 -0.14724183999E+02  0.26212924187E+02  0.22472974432E+02  0.37536030277E+02  0.51100000000E-03 0. -1.
        -11    1    3    3    0    0  0.12725390934E+01  0.89568713881E+01 -0.85056454579E-02  0.90468211773E+01  0.51100000000E-03 0.  1.
        -12    1    3    3    0    0  0.13586985415E+02 -0.34176964256E+02 -0.23088012878E+02  0.43424962833E+02  0.00000000000E+00 0.  1.
</event>
<event>
 7    1  0.1756449E-015  0.9000775E+02  0.7816164E-02  0.1186339E+00
        -11   -1    0    0    0    0  0.00000000000E+00  0.00000000000E+00  0.45593999997E+02  0.45594000000E+02  0.51100000000E-03 0.  1.
         11   -1    0    0    0    0 -0.00000000000E+00 -0.00000000000E+00 -0.45593999997E+02  0.45594000000E+02  0.51100000000E-03 0. -1.
    9900012    2    1    2    0    0 -0.10616357119E+01 -0.44835659121E+00 -0.25473182188E+00  0.90007753281E+02  0.90000014824E+02 0.  0.
        -12    1    1    2    0    0  0.10616357119E+01  0.44835659121E+00  0.25473182188E+00  0.11802467194E+01  0.00000000000E+00 0.  1.
         11    1    3    3    0    0  0.93398668128E+01 -0.91958505375E+00  0.53207582993E+00  0.94000986006E+01  0.51100000000E-03 0. -1.
        -11    1    3    3    0    0  0.27583640138E+02 -0.22922592375E+02 -0.26056395116E+01  0.35959585676E+02  0.51100000000E-03 0.  1.
         12    1    3    3    0    0 -0.37985142663E+02  0.23393820837E+02  0.18188318598E+01  0.44648069004E+02  0.00000000000E+00 0. -1.
</event>
<event>
 7    1  0.2057399E-015  0.9000774E+02  0.7816164E-02  0.1186339E+00
        -11   -1    0    0    0    0  0.00000000000E+00  0.00000000000E+00  0.45593999997E+02  0.45594000000E+02  0.51100000000E-03 0. -1.
         11   -1    0    0    0    0 -0.00000000000E+00 -0.00000000000E+00 -0.45593999997E+02  0.45594000000E+02  0.51100000000E-03 0.  1.
    9900012    2    1    2    0    0  0.49905786148E+00  0.49118455672E+00  0.95010221155E+00  0.90007739338E+02  0.90000000697E+02 0.  0.
        -12    1    1    2    0    0 -0.49905786148E+00 -0.49118455672E+00 -0.95010221155E+00  0.11802606620E+01  0.00000000000E+00 0.  1.
         11    1    3    3    0    0 -0.28011955758E+01 -0.77342962676E+01 -0.49411201241E+01  0.95958690982E+01  0.51100000000E-03 0. -1.
        -11    1    3    3    0    0 -0.27154872843E+02 -0.12577035047E+01 -0.24322337749E+02  0.36476637058E+02  0.51100000000E-03 0.  1.
         12    1    3    3    0    0  0.30455126280E+02  0.94831843290E+01  0.30213560084E+02  0.43935233182E+02  0.00000000000E+00 0. -1.
</event>
<event>
 7    1  0.1756449E-015  0.9000767E+02  0.7816164E-02  0.1186339E+00
        -11   -1    0    0    0    0  0.00000000000E+00  0.00000000000E+00  0.45593999997E+02  0.45594000000E+02  0.51100000000E-03 0. -1.
         11   -1    0    0    0    0 -0.00000000000E+00 -0.00000000000E+00 -0.45593999997E+02  0.45594000000E+02  0.51100000000E-03 0.  1.
    9900012    2    1    2    0    0 -0.48970396069E+00  0.10739537773E+01 -0.69496420146E-03  0.90007666501E+02  0.89999926899E+02 0.  0.
        -12    1    1    2    0    0  0.48970396069E+00 -0.10739537773E+01  0.69496420147E-03  0.11803334986E+01  0.00000000000E+00 0.  1.
         11    1    3    3    0    0  0.17317048880E+02  0.32236749717E+02 -0.49202894863E+01  0.36922858274E+02  0.51100000000E-03 0. -1.
        -11    1    3    3    0    0 -0.26849293040E+01  0.86342825898E+01 -0.34840780004E+01  0.96901228569E+01  0.51100000000E-03 0.  1.
        -12    1    3    3    0    0 -0.15121823536E+02 -0.39797078529E+02  0.84036725225E+01  0.43394685371E+02  0.00000000000E+00 0.  1.
</event>
<event>
 7    1  0.1756449E-015  0.9000776E+02  0.7816164E-02  0.1186339E+00
        -11   -1    0    0    0    0  0.00000000000E+00  0.00000000000E+00  0.45593999997E+02  0.45594000000E+02  0.51100000000E-03 0. -1.
         11   -1    0    0    0    0 -0.00000000000E+00 -0.00000000000E+00 -0.45593999997E+02  0.45594000000E+02  0.51100000000E-03 0.  1.
    9900012    2    1    2    0    0  0.95900001950E+00  0.38026242432E+00  0.57330386311E+00  0.90007763639E+02  0.90000025319E+02 0.  0.
        -12    1    1    2    0    0 -0.95900001950E+00 -0.38026242432E+00 -0.57330386311E+00  0.11802363612E+01  0.00000000000E+00 0.  1.
         11    1    3    3    0    0 -0.82438024617E+01 -0.31952872956E+02  0.11716069284E+02  0.35017319271E+02  0.51100000000E-03 0. -1.
        -11    1    3    3    0    0  0.11211103639E+02 -0.77792714607E+01 -0.18929507396E+01  0.13776399095E+02  0.51100000000E-03 0.  1.
        -12    1    3    3    0    0 -0.20083011580E+01  0.40112406841E+02 -0.92498146813E+01  0.41214045273E+02  0.00000000000E+00 0.  1.
</event>
<event>
 7    1  0.1756449E-015  0.9000774E+02  0.7816164E-02  0.1186339E+00
        -11   -1    0    0    0    0  0.00000000000E+00  0.00000000000E+00  0.45593999997E+02  0.45594000000E+02  0.51100000000E-03 0.  1.
         11   -1    0    0    0    0 -0.00000000000E+00 -0.00000000000E+00 -0.45593999997E+02  0.45594000000E+02  0.51100000000E-03 0. -1.
    9900012    2    1    2    0    0 -0.98949165760E+00  0.32405408895E+00 -0.55579231684E+00  0.90007741599E+02  0.90000002988E+02 0.  0.
        -12    1    1    2    0    0  0.98949165760E+00 -0.32405408895E+00  0.55579231684E+00  0.11802584007E+01  0.00000000000E+00 0.  1.
         11    1    3    3    0    0  0.86518772403E+01  0.20793238200E+01  0.78028548094E+00  0.89323800313E+01  0.51100000000E-03 0. -1.
        -11    1    3    3    0    0 -0.17802660658E+02 -0.37647526938E+02 -0.10894641337E+02  0.43046070915E+02  0.51100000000E-03 0.  1.
         12    1    3    3    0    0  0.81612917601E+01  0.35892257207E+02  0.95585635395E+01  0.38029290653E+02  0.00000000000E+00 0. -1.
</event>
<event>
 7    1  0.1756449E-015  0.9000781E+02  0.7816164E-02  0.1186339E+00
        -11   -1    0    0    0    0  0.00000000000E+00  0.00000000000E+00  0.45593999997E+02  0.45594000000E+02  0.51100000000E-03 0. -1.
         11   -1    0    0    0    0 -0.00000000000E+00 -0.00000000000E+00 -0.45593999997E+02  0.45594000000E+02  0.51100000000E-03 0.  1.
    9900012    2    1    2    0    0  0.65774645792E+00  0.20104104865E+00 -0.95905687113E+00  0.90007814426E+02  0.90000076777E+02 0.  0.
        -12    1    1    2    0    0 -0.65774645792E+00 -0.20104104865E+00  0.95905687113E+00  0.11801855736E+01  0.00000000000E+00 0.  1.
         11    1    3    3    0    0  0.12941099306E+02  0.27181652477E+02  0.17890241977E+02  0.35019637932E+02  0.51100000000E-03 0. -1.
        -11    1    3    3    0    0 -0.90837480719E+00  0.60294463989E+01  0.86229176089E+01  0.10560969511E+02  0.51100000000E-03 0.  1.
        -12    1    3    3    0    0 -0.11374978041E+02 -0.33010057827E+02 -0.27472216457E+02  0.44427206983E+02  0.00000000000E+00 0.  1.
</event>
<event>
 7    1  0.1756449E-015  0.9000771E+02  0.7816164E-02  0.1186339E+00
        -11   -1    0    0    0    0  0.00000000000E+00  0.00000000000E+00  0.45593999997E+02  0.45594000000E+02  0.51100000000E-03 0. -1.
         11   -1    0    0    0    0 -0.00000000000E+00 -0.00000000000E+00 -0.45593999997E+02  0.45594000000E+02  0.51100000000E-03 0.  1.
    9900012    2    1    2    0    0  0.68153813564E+00  0.95944181083E+00  0.89813184897E-01  0.90007707991E+02  0.89999968936E+02 0.  0.
        -12    1    1    2    0    0 -0.68153813564E+00 -0.95944181083E+00 -0.89813184897E-01  0.11802920092E+01  0.00000000000E+00 0.  1.
         11    1    3    3    0    0  0.79650898794E+01 -0.31565616076E+02  0.12805464017E+02  0.34983005646E+02  0.51100000000E-03 0. -1.
        -11    1    3    3    0    0  0.13381793821E+01 -0.72457601508E+01 -0.12288004784E+02  0.14327833962E+02  0.51100000000E-03 0.  1.
         12    1    3    3    0    0 -0.86217311258E+01  0.39770818038E+02 -0.42764604806E+00  0.40696868383E+02  0.00000000000E+00 0. -1.
</event>
<event>
 7    1  0.1756449E-015  0.9000774E+02  0.7816164E-02  0.1186339E+00
        -11   -1    0    0    0    0  0.00000000000E+00  0.00000000000E+00  0.45593999997E+02  0.45594000000E+02  0.51100000000E-03 0.  1.
         11   -1    0    0    0    0 -0.00000000000E+00 -0.00000000000E+00 -0.45593999997E+02  0.45594000000E+02  0.51100000000E-03 0. -1.
    9900012    2    1    2    0    0 -0.29356548489E+00  0.49673257224E-02 -0.11431604007E+01  0.90007736864E+02  0.89999998191E+02 0.  0.
        -12    1    1    2    0    0  0.29356548489E+00 -0.49673257224E-02  0.11431604007E+01  0.11802631359E+01  0.00000000000E+00 0.  1.
         11    1    3    3    0    0 -0.79440673665E+01  0.41291461465E+02 -0.59634150379E+01  0.42469463328E+02  0.51100000000E-03 0. -1.
        -11    1    3    3    0    0 -0.68114415160E+01 -0.58527879857E+01  0.16988524905E+01  0.91398557307E+01  0.51100000000E-03 0.  1.
        -12    1    3    3    0    0  0.14461943398E+02 -0.35433706153E+02  0.31214021467E+01  0.38398417805E+02  0.00000000000E+00 0.  1.
</event>
<event>
 7    1  0.1756449E-015  0.9000778E+02  0.7816164E-02  0.1186339E+00
        -11   -1    0    0    0    0  0.00000000000E+00  0.00000000000E+00  0.45593999997E+02  0.45594000000E+02  0.51100000000E-03 0.  1.
         11   -1    0    0    0    0 -0.00000000000E+00 -0.00000000000E+00 -0.45593999997E+02  0.45594000000E+02  0.51100000000E-03 0. -1.
    9900012    2    1    2    0    0  0.28538824554E+00 -0.67837415339E+00 -0.92265448310E+00  0.90007775768E+02  0.90000037608E+02 0.  0.
        -12    1    1    2    0    0 -0.28538824554E+00  0.67837415339E+00  0.92265448310E+00  0.11802242320E+01  0.00000000000E+00 0.  1.
         11    1    3    3    0    0  0.11044508858E+02 -0.90146988776E+01 -0.35986122378E+02  0.38707195401E+02  0.51100000000E-03 0. -1.
        -11    1    3    3    0    0  0.32373592565E+01  0.11775250559E+02 -0.12067680071E+01  0.12271646588E+02  0.51100000000E-03 0.  1.
        -12    1    3    3    0    0 -0.13996479869E+02 -0.34389258349E+01  0.36270235902E+02  0.39028933780E+02  0.00000000000E+00 0.  1.
</event>
<event>
 7    1  0.1756449E-015  0.9000778E+02  0.7816164E-02  0.1186339E+00
        -11   -1    0    0    0    0  0.00000000000E+00  0.00000000000E+00  0.45593999997E+02  0.45594000000E+02  0.51100000000E-03 0. -1.
         11   -1    0    0    0    0 -0.00000000000E+00 -0.00000000000E+00 -0.45593999997E+02  0.45594000000E+02  0.51100000000E-03 0.  1.
    9900012    2    1    2    0    0 -0.96093445347E+00 -0.65936498944E+00 -0.18645099283E+00  0.90007779179E+02  0.90000041064E+02 0.  0.
        -12    1    1    2    0    0  0.96093445347E+00  0.65936498944E+00  0.18645099283E+00  0.11802208208E+01  0.00000000000E+00 0.  1.
         11    1    3    3    0    0 -0.10361840135E+02 -0.59383622123E+01 -0.17983276422E+01  0.12077493917E+02  0.51100000000E-03 0. -1.
        -11    1    3    3    0    0 -0.19578087993E+02  0.20129769431E+02 -0.23653753333E+02  0.36715244706E+02  0.51100000000E-03 0.  1.
         12    1    3    3    0    0  0.28978993675E+02 -0.14850772209E+02  0.25265629983E+02  0.41215040556E+02  0.00000000000E+00 0. -1.
</event>
<event>
 7    1  0.1756449E-015  0.9000765E+02  0.7816164E-02  0.1186339E+00
        -11   -1    0    0    0    0  0.00000000000E+00  0.00000000000E+00  0.45593999997E+02  0.45594000000E+02  0.51100000000E-03 0. -1.
         11   -1    0    0    0    0 -0.00000000000E+00 -0.00000000000E+00 -0.45593999997E+02  0.45594000000E+02  0.51100000000E-03 0.  1.
    9900012    2    1    2    0    0 -0.62003457995E+00 -0.43423642447E+00  0.90566252755E+00  0.90007648880E+02  0.89999909045E+02 0.  0.
        -12    1    1    2    0    0  0.62003457995E+00  0.43423642447E+00 -0.90566252755E+00  0.11803511200E+01  0.00000000000E+00 0.  1.
         11    1    3    3    0    0 -0.71572849609E+01  0.46935543548E+01  0.58647053602E+01  0.10375497565E+02  0.51100000000E-03 0. -1.
        -11    1    3    3    0    0  0.18870619835E+02  0.29764656615E+02 -0.19014611773E+02  0.40044856567E+02  0.51100000000E-03 0.  1.
         12    1    3    3    0    0 -0.12333369454E+02 -0.34892447394E+02  0.14055568940E+02  0.39587294748E+02  0.00000000000E+00 0. -1.
</event>
<event>
 7    1  0.1756449E-015  0.9000772E+02  0.7816164E-02  0.1186339E+00
        -11   -1    0    0    0    0  0.00000000000E+00  0.00000000000E+00  0.45593999997E+02  0.45594000000E+02  0.51100000000E-03 0. -1.
         11   -1    0    0    0    0 -0.00000000000E+00 -0.00000000000E+00 -0.45593999997E+02  0.45594000000E+02  0.51100000000E-03 0.  1.
    9900012    2    1    2    0    0 -0.34832881847E+00 -0.98770223814E+00 -0.54422185091E+00  0.90007717788E+02  0.89999978863E+02 0.  0.
        -12    1    1    2    0    0  0.34832881847E+00  0.98770223814E+00  0.54422185091E+00  0.11802822120E+01  0.00000000000E+00 0.  1.
         11    1    3    3    0    0  0.79065261389E+01 -0.30514236834E+01 -0.86589992347E+01  0.12116212696E+02  0.51100000000E-03 0. -1.
        -11    1    3    3    0    0 -0.78599798662E+01 -0.36203991893E+02 -0.51165168800E+01  0.37399024823E+02  0.51100000000E-03 0.  1.
         12    1    3    3    0    0 -0.39487509125E+00  0.38267713338E+02  0.13231294264E+02  0.40492480269E+02  0.00000000000E+00 0. -1.
</event>
<event>
 7    1  0.1756449E-015  0.9000778E+02  0.7816164E-02  0.1186339E+00
        -11   -1    0    0    0    0  0.00000000000E+00  0.00000000000E+00  0.45593999997E+02  0.45594000000E+02  0.51100000000E-03 0. -1.
         11   -1    0    0    0    0 -0.00000000000E+00 -0.00000000000E+00 -0.45593999997E+02  0.45594000000E+02  0.51100000000E-03 0.  1.
    9900012    2    1    2    0    0  0.28381726597E+00 -0.79960363858E+00  0.82036909380E+00  0.90007778127E+02  0.90000039998E+02 0.  0.
        -12    1    1    2    0    0 -0.28381726597E+00  0.79960363858E+00 -0.82036909380E+00  0.11802218729E+01  0.00000000000E+00 0.  1.
         11    1    3    3    0    0  0.12487865286E+02 -0.44710559039E+01  0.10944474564E+02  0.17196471849E+02  0.51100000000E-03 0. -1.
        -11    1    3    3    0    0 -0.26056505853E+02  0.73193249639E+01  0.23765735738E+02  0.36018387118E+02  0.51100000000E-03 0.  1.
         12    1    3    3    0    0  0.13852457833E+02 -0.36478726986E+01 -0.33889841208E+02  0.36792919160E+02  0.00000000000E+00 0. -1.
</event>
<event>
 7    1  0.1756449E-015  0.9000771E+02  0.7816164E-02  0.1186339E+00
        -11   -1    0    0    0    0  0.00000000000E+00  0.00000000000E+00  0.45593999997E+02  0.45594000000E+02  0.51100000000E-03 0. -1.
         11   -1    0    0    0    0 -0.00000000000E+00 -0.00000000000E+00 -0.45593999997E+02  0.45594000000E+02  0.51100000000E-03 0.  1.
    9900012    2    1    2    0    0  0.44281827143E+00 -0.34120499318E+00  0.10395031737E+01  0.90007713714E+02  0.89999974735E+02 0.  0.
        -12    1    1    2    0    0 -0.44281827143E+00  0.34120499318E+00 -0.10395031737E+01  0.11802862860E+01  0.00000000000E+00 0.  1.
         11    1    3    3    0    0  0.11176917338E+02  0.42975086139E+02 -0.34076422945E+01  0.44535306624E+02  0.51100000000E-03 0. -1.
        -11    1    3    3    0    0 -0.34775071139E+01 -0.94305371259E+01 -0.19343023794E+01  0.10235702817E+02  0.51100000000E-03 0.  1.
        -12    1    3    3    0    0 -0.72565919524E+01 -0.33885754006E+02  0.63814478476E+01  0.35236704272E+02  0.00000000000E+00 0.  1.
</event>
<event>
 7    1  0.1756449E-015  0.9000765E+02  0.7816164E-02  0.1186339E+00
        -11   -1    0    0    0    0  0.00000000000E+00  0.00000000000E+00  0.45593999997E+02  0.45594000000E+02  0.51100000000E-03 0. -1.
         11   -1    0    0    0    0 -0.00000000000E+00 -0.00000000000E+00 -0.45593999997E+02  0.45594000000E+02  0.51100000000E-03 0.  1.
    9900012    2    1    2    0    0  0.37766795017E+00  0.71969428256E+00  0.85594336348E+00  0.90007647518E+02  0.89999907665E+02 0.  0.
        -12    1    1    2    0    0 -0.37766795017E+00 -0.71969428256E+00 -0.85594336348E+00  0.11803524823E+01  0.00000000000E+00 0.  1.
         11    1    3    3    0    0 -0.29143164959E+00 -0.99606408140E+01 -0.60002689009E+01  0.11631961355E+02  0.51100000000E-03 0. -1.
        -11    1    3    3    0    0 -0.36946273953E+02  0.15619845511E+02  0.25424427209E+01  0.40192919129E+02  0.51100000000E-03 0.  1.
         12    1    3    3    0    0  0.37615373553E+02 -0.49395104149E+01  0.43137695435E+01  0.38182767034E+02  0.00000000000E+00 0. -1.
</event>
<event>
 7    1  0.1756449E-015  0.9000783E+02  0.7816164E-02  0.1186339E+00
        -11   -1    0    0    0    0  0.00000000000E+00  0.00000000000E+00  0.45593999997E+02  0.45594000000E+02  0.51100000000E-03 0.  1.
         11   -1    0    0    0    0 -0.00000000000E+00 -0.00000000000E+00 -0.45593999997E+02  0.45594000000E+02  0.51100000000E-03 0. -1.
    9900012    2    1    2    0    0  0.46399926315E+00  0.10322749153E+01 -0.33452325275E+00  0.90007833646E+02  0.90000096250E+02 0.  0.
        -12    1    1    2    0    0 -0.46399926315E+00 -0.10322749153E+01  0.33452325275E+00  0.11801663542E+01  0.00000000000E+00 0.  1.
         11    1    3    3    0    0  0.37060871579E+02  0.14841358644E+02 -0.48471831184E+01  0.40215287056E+02  0.51100000000E-03 0. -1.
        -11    1    3    3    0    0 -0.15796290664E+01  0.48420512363E+01  0.85093776993E+01  0.99171667957E+01  0.51100000000E-03 0.  1.
        -12    1    3    3    0    0 -0.35017243249E+02 -0.18651134965E+02 -0.39967178337E+01  0.39875379794E+02  0.00000000000E+00 0.  1.
</event>
<event>
 7    1  0.1756449E-015  0.9000780E+02  0.7816164E-02  0.1186339E+00
        -11   -1    0    0    0    0  0.00000000000E+00  0.00000000000E+00  0.45593999997E+02  0.45594000000E+02  0.51100000000E-03 0.  1.
         11   -1    0    0    0    0 -0.00000000000E+00 -0.00000000000E+00 -0.45593999997E+02  0.45594000000E+02  0.51100000000E-03 0. -1.
    9900012    2    1    2    0    0  0.10329019076E+01 -0.56094889309E+00 -0.10636534583E+00  0.90007803576E+02  0.90000065784E+02 0.  0.
        -12    1    1    2    0    0 -0.10329019076E+01  0.56094889309E+00  0.10636534583E+00  0.11801964236E+01  0.00000000000E+00 0.  1.
         11    1    3    3    0    0  0.16979358303E+02  0.73477145626E+01 -0.26053559006E+02  0.31954271308E+02  0.51100000000E-03 0. -1.
        -11    1    3    3    0    0  0.12691371286E+02 -0.97070475819E+01 -0.41106615569E+01  0.16498339813E+02  0.51100000000E-03 0.  1.
        -12    1    3    3    0    0 -0.28637827682E+02  0.17983841262E+01  0.30057855217E+02  0.41555192456E+02  0.00000000000E+00 0.  1.
</event>
<event>
 7    1  0.1756449E-015  0.9000777E+02  0.7816164E-02  0.1186339E+00
        -11   -1    0    0    0    0  0.00000000000E+00  0.00000000000E+00  0.45593999997E+02  0.45594000000E+02  0.51100000000E-03 0. -1.
         11   -1    0    0    0    0 -0.00000000000E+00 -0.00000000000E+00 -0.45593999997E+02  0.45594000000E+02  0.51100000000E-03 0.  1.
    9900012    2    1    2    0    0 -0.31041018834E+00 -0.11371518814E+01  0.58912461736E-01  0.90007771393E+02  0.90000033175E+02 0.  0.
        -12    1    1    2    0    0  0.31041018834E+00  0.11371518814E+01 -0.58912461736E-01  0.11802286069E+01  0.00000000000E+00 0.  1.
         11    1    3    3    0    0  0.13288790915E+02 -0.83761855738E+01  0.34734833551E+02  0.38121661963E+02  0.51100000000E-03 0. -1.
        -11    1    3    3    0    0  0.67987578416E+01 -0.63080964094E+01  0.19496240218E+00  0.92764863552E+01  0.51100000000E-03 0.  1.
        -12    1    3    3    0    0 -0.20397958945E+02  0.13547130102E+02 -0.34870883491E+02  0.42609623075E+02  0.00000000000E+00 0.  1.
</event>
<event>
 7    1  0.1756449E-015  0.9000792E+02  0.7816164E-02  0.1186339E+00
        -11   -1    0    0    0    0  0.00000000000E+00  0.00000000000E+00  0.45593999997E+02  0.45594000000E+02  0.51100000000E-03 0.  1.
         11   -1    0    0    0    0 -0.00000000000E+00 -0.00000000000E+00 -0.45593999997E+02  0.45594000000E+02  0.51100000000E-03 0. -1.
    9900012    2    1    2    0    0 -0.55589947400E+00 -0.89460011364E+00 -0.53222480033E+00  0.90007916602E+02  0.90000180301E+02 0.  0.
        -12    1    1    2    0    0  0.55589947400E+00  0.89460011364E+00  0.53222480033E+00  0.11800833982E+01  0.00000000000E+00 0.  1.
         11    1    3    3    0    0  0.93153925369E+01  0.19895019817E+02 -0.26750508256E+02  0.34614708490E+02  0.51100000000E-03 0. -1.
        -11    1    3    3    0    0  0.10000225585E+02  0.86244119538E+01  0.56134923032E+01  0.14349086709E+02  0.51100000000E-03 0.  1.
        -12    1    3    3    0    0 -0.19871517595E+02 -0.29414031885E+02  0.20604791153E+02  0.41044121402E+02  0.00000000000E+00 0.  1.
</event>
<event>
 7    1  0.1756449E-015  0.9000780E+02  0.7816164E-02  0.1186339E+00
        -11   -1    0    0    0    0  0.00000000000E+00  0.00000000000E+00  0.45593999997E+02  0.45594000000E+02  0.51100000000E-03 0.  1.
         11   -1    0    0    0    0 -0.00000000000E+00 -0.00000000000E+00 -0.45593999997E+02  0.45594000000E+02  0.51100000000E-03 0. -1.
    9900012    2    1    2    0    0  0.11719943805E+01  0.13864914338E+00 -0.85358917990E-02  0.90007802019E+02  0.90000064206E+02 0.  0.
        -12    1    1    2    0    0 -0.11719943805E+01 -0.13864914338E+00  0.85358917990E-02  0.11801979810E+01  0.00000000000E+00 0.  1.
         11    1    3    3    0    0 -0.63833831852E+01  0.24877955832E+01 -0.20349570190E+01  0.71468705098E+01  0.51100000000E-03 0. -1.
        -11    1    3    3    0    0 -0.45549952517E+00 -0.34214243295E+02  0.25335605246E+02  0.42575988744E+02  0.51100000000E-03 0.  1.
         12    1    3    3    0    0  0.80108770909E+01  0.31865096855E+02 -0.23309184119E+02  0.40284942766E+02  0.00000000000E+00 0. -1.
</event>
<event>
 7    1  0.1756449E-015  0.9000774E+02  0.7816164E-02  0.1186339E+00
        -11   -1    0    0    0    0  0.00000000000E+00  0.00000000000E+00  0.45593999997E+02  0.45594000000E+02  0.51100000000E-03 0. -1.
         11   -1    0    0    0    0 -0.00000000000E+00 -0.00000000000E+00 -0.45593999997E+02  0.45594000000E+02  0.51100000000E-03 0.  1.
    9900012    2    1    2    0    0 -0.84283679447E+00 -0.69862044816E+00  0.44109104222E+00  0.90007743375E+02  0.90000004788E+02 0.  0.
        -12    1    1    2    0    0  0.84283679447E+00  0.69862044816E+00 -0.44109104222E+00  0.11802566247E+01  0.00000000000E+00 0.  1.
         11    1    3    3    0    0  0.18260089596E+02 -0.27435139718E+02  0.24712206922E+02  0.41192365005E+02  0.51100000000E-03 0. -1.
        -11    1    3    3    0    0  0.25257643575E+01  0.92486988786E+01  0.28145375890E+01  0.99919737108E+01  0.51100000000E-03 0.  1.
        -12    1    3    3    0    0 -0.21628690748E+02  0.17487820392E+02 -0.27085653469E+02  0.38823404660E+02  0.00000000000E+00 0.  1.
</event>
<event>
 7    1  0.1756449E-015  0.9000780E+02  0.7816164E-02  0.1186339E+00
        -11   -1    0    0    0    0  0.00000000000E+00  0.00000000000E+00  0.45593999997E+02  0.45594000000E+02  0.51100000000E-03 0. -1.
         11   -1    0    0    0    0 -0.00000000000E+00 -0.00000000000E+00 -0.45593999997E+02  0.45594000000E+02  0.51100000000E-03 0.  1.
    9900012    2    1    2    0    0 -0.73566845091E-01  0.75185548313E+00  0.90674156925E+00  0.90007797042E+02  0.90000059163E+02 0.  0.
        -12    1    1    2    0    0  0.73566845091E-01 -0.75185548313E+00 -0.90674156925E+00  0.11802029578E+01  0.00000000000E+00 0.  1.
         11    1    3    3    0    0 -0.15523072119E+02 -0.28753588936E+01 -0.56628815476E+01  0.16772050693E+02  0.51100000000E-03 0. -1.
        -11    1    3    3    0    0  0.87231229555E+01  0.35097879398E+02 -0.93171363162E+01  0.37346526502E+02  0.51100000000E-03 0.  1.
         12    1    3    3    0    0  0.67263823180E+01 -0.31470665021E+02  0.15886759433E+02  0.35889219848E+02  0.00000000000E+00 0. -1.
</event>
<event>
 7    1  0.1756449E-015  0.9000765E+02  0.7816164E-02  0.1186339E+00
        -11   -1    0    0    0    0  0.00000000000E+00  0.00000000000E+00  0.45593999997E+02  0.45594000000E+02  0.51100000000E-03 0.  1.
         11   -1    0    0    0    0 -0.00000000000E+00 -0.00000000000E+00 -0.45593999997E+02  0.45594000000E+02  0.51100000000E-03 0. -1.
    9900012    2    1    2    0    0 -0.11409112088E+01 -0.67622792604E-01 -0.29491000967E+00  0.90007651262E+02  0.89999911459E+02 0.  0.
        -12    1    1    2    0    0  0.11409112088E+01  0.67622792604E-01  0.29491000967E+00  0.11803487376E+01  0.00000000000E+00 0.  1.
         11    1    3    3    0    0 -0.32797801514E+02  0.30925864698E+01 -0.20833256069E+02  0.38977999357E+02  0.51100000000E-03 0. -1.
        -11    1    3    3    0    0 -0.61223537340E+01 -0.60583480769E+01  0.57480897829E+01  0.10355063161E+02  0.51100000000E-03 0.  1.
        -12    1    3    3    0    0  0.37779244039E+02  0.28981388145E+01  0.14790256277E+02  0.40674588744E+02  0.00000000000E+00 0.  1.
</event>
<event>
 7    1  0.1756449E-015  0.9000773E+02  0.7816164E-02  0.1186339E+00
        -11   -1    0    0    0    0  0.00000000000E+00  0.00000000000E+00  0.45593999997E+02  0.45594000000E+02  0.51100000000E-03 0.  1.
         11   -1    0    0    0    0 -0.00000000000E+00 -0.00000000000E+00 -0.45593999997E+02  0.45594000000E+02  0.51100000000E-03 0. -1.
    9900012    2    1    2    0    0  0.88888105758E+00  0.11605932067E+00 -0.76776694846E+00  0.90007726562E+02  0.89999987753E+02 0.  0.
        -12    1    1    2    0    0 -0.88888105758E+00 -0.11605932067E+00  0.76776694846E+00  0.11802734376E+01  0.00000000000E+00 0.  1.
         11    1    3    3    0    0 -0.16325013892E+02 -0.11469956252E+02 -0.73929915051E+01  0.21277271880E+02  0.51100000000E-03 0. -1.
        -11    1    3    3    0    0 -0.21819560139E+02  0.16110492593E+02  0.10843312552E+02  0.29209905916E+02  0.51100000000E-03 0.  1.
         12    1    3    3    0    0  0.39033455089E+02 -0.45244770206E+01 -0.42180879957E+01  0.39520548766E+02  0.00000000000E+00 0. -1.
</event>
<event>
 7    1  0.1756449E-015  0.9000782E+02  0.7816164E-02  0.1186339E+00
        -11   -1    0    0    0    0  0.00000000000E+00  0.00000000000E+00  0.45593999997E+02  0.45594000000E+02  0.51100000000E-03 0.  1.
         11   -1    0    0    0    0 -0.00000000000E+00 -0.00000000000E+00 -0.45593999997E+02  0.45594000000E+02  0.51100000000E-03 0. -1.
    9900012    2    1    2    0    0  0.91074161799E+00  0.75043296231E+00 -0.15302278557E-01  0.90007816080E+02  0.90000078452E+02 0.  0.
        -12    1    1    2    0    0 -0.91074161799E+00 -0.75043296231E+00  0.15302278557E-01  0.11801839202E+01  0.00000000000E+00 0.  1.
         11    1    3    3    0    0  0.12059780546E+01  0.44145216827E+01  0.76462290132E+01  0.89110719411E+01  0.51100000000E-03 0. -1.
        -11    1    3    3    0    0 -0.24400733427E+02  0.28321146232E+01  0.28201461332E+02  0.37399720407E+02  0.51100000000E-03 0.  1.
         12    1    3    3    0    0  0.24105496991E+02 -0.64962033437E+01 -0.35862992624E+02  0.43697023731E+02  0.00000000000E+00 0. -1.
</event>
<event>
 7    1  0.1756449E-015  0.9000774E+02  0.7816164E-02  0.1186339E+00
        -11   -1    0    0    0    0  0.00000000000E+00  0.00000000000E+00  0.45593999997E+02  0.45594000000E+02  0.51100000000E-03 0.  1.
         11   -1    0    0    0    0 -0.00000000000E+00 -0.00000000000E+00 -0.45593999997E+02  0.45594000000E+02  0.51100000000E-03 0. -1.
    9900012    2    1    2    0    0 -0.10760122554E+01 -0.24329041378E+00 -0.41953593351E+00  0.90007744520E+02  0.90000005947E+02 0.  0.
        -12    1    1    2    0    0  0.10760122554E+01  0.24329041378E+00  0.41953593351E+00  0.11802554803E+01  0.00000000000E+00 0.  1.
         11    1    3    3    0    0  0.76543055673E+01  0.93745634289E+01 -0.36827776112E+02  0.38765395997E+02  0.51100000000E-03 0. -1.
        -11    1    3    3    0    0 -0.63743825943E+01  0.42994946133E+01 -0.38373201564E+01  0.85932202132E+01  0.51100000000E-03 0.  1.
        -12    1    3    3    0    0 -0.23559352285E+01 -0.13917348456E+02  0.40245560335E+02  0.42649128309E+02  0.00000000000E+00 0.  1.
</event>
<event>
 7    1  0.1756449E-015  0.9000774E+02  0.7816164E-02  0.1186339E+00
        -11   -1    0    0    0    0  0.00000000000E+00  0.00000000000E+00  0.45593999997E+02  0.45594000000E+02  0.51100000000E-03 0.  1.
         11   -1    0    0    0    0 -0.00000000000E+00 -0.00000000000E+00 -0.45593999997E+02  0.45594000000E+02  0.51100000000E-03 0. -1.
    9900012    2    1    2    0    0  0.11703317674E+01  0.64142149809E-02 -0.15260360619E+00  0.90007743482E+02  0.90000004896E+02 0.  0.
        -12    1    1    2    0    0 -0.11703317674E+01 -0.64142149809E-02  0.15260360619E+00  0.11802565181E+01  0.00000000000E+00 0.  1.
         11    1    3    3    0    0 -0.22327629375E+02  0.32868405010E+02 -0.12353405512E+01  0.39754007948E+02  0.51100000000E-03 0. -1.
        -11    1    3    3    0    0 -0.55405241989E+01 -0.84619408910E+00 -0.37763422264E+01  0.67582700232E+01  0.51100000000E-03 0.  1.
        -12    1    3    3    0    0  0.29038485341E+02 -0.32015796706E+02  0.48590791714E+01  0.43495465511E+02  0.00000000000E+00 0.  1.
</event>
<event>
 7    1  0.1756449E-015  0.9000777E+02  0.7816164E-02  0.1186339E+00
        -11   -1    0    0    0    0  0.00000000000E+00  0.00000000000E+00  0.45593999997E+02  0.45594000000E+02  0.51100000000E-03 0.  1.
         11   -1    0    0    0    0 -0.00000000000E+00 -0.00000000000E+00 -0.45593999997E+02  0.45594000000E+02  0.51100000000E-03 0. -1.
    9900012    2    1    2    0    0 -0.27582482622E+00  0.10280312069E+01 -0.50991297789E+00  0.90007771741E+02  0.90000033528E+02 0.  0.
        -12    1    1    2    0    0  0.27582482622E+00 -0.10280312069E+01  0.50991297789E+00  0.11802282585E+01  0.00000000000E+00 0.  1.
         11    1    3    3    0    0 -0.18700019857E+02 -0.89699996218E+01 -0.38550092383E+02  0.43775121460E+02  0.51100000000E-03 0. -1.
        -11    1    3    3    0    0 -0.89955000870E+00 -0.18945438221E+01  0.97211135347E+01  0.99447742623E+01  0.51100000000E-03 0.  1.
        -12    1    3    3    0    0  0.19323745040E+02  0.11892574651E+02  0.28319065870E+02  0.36287876019E+02  0.00000000000E+00 0.  1.
</event>
<event>
 7    1  0.1756449E-015  0.9000771E+02  0.7816164E-02  0.1186339E+00
        -11   -1    0    0    0    0  0.00000000000E+00  0.00000000000E+00  0.45593999997E+02  0.45594000000E+02  0.51100000000E-03 0.  1.
         11   -1    0    0    0    0 -0.00000000000E+00 -0.00000000000E+00 -0.45593999997E+02  0.45594000000E+02  0.51100000000E-03 0. -1.
    9900012    2    1    2    0    0 -0.66324212942E+00 -0.76777773349E+00 -0.60308209231E+00  0.90007711569E+02  0.89999972562E+02 0.  0.
        -12    1    1    2    0    0  0.66324212942E+00  0.76777773349E+00  0.60308209231E+00  0.11802884310E+01  0.00000000000E+00 0.  1.
         11    1    3    3    0    0  0.28989877960E+02 -0.21670631746E+01  0.28329678272E+02  0.40591623005E+02  0.51100000000E-03 0. -1.
        -11    1    3    3    0    0 -0.86458250479E+00  0.97691727180E+01 -0.97171219490E+01  0.13806038452E+02  0.51100000000E-03 0.  1.
        -12    1    3    3    0    0 -0.28788537585E+02 -0.83698872768E+01 -0.19215638415E+02  0.35610050112E+02  0.00000000000E+00 0.  1.
</event>
<event>
 7    1  0.1756449E-015  0.9000781E+02  0.7816164E-02  0.1186339E+00
        -11   -1    0    0    0    0  0.00000000000E+00  0.00000000000E+00  0.45593999997E+02  0.45594000000E+02  0.51100000000E-03 0.  1.
         11   -1    0    0    0    0 -0.00000000000E+00 -0.00000000000E+00 -0.45593999997E+02  0.45594000000E+02  0.51100000000E-03 0. -1.
    9900012    2    1    2    0    0  0.10130757082E+01 -0.34269433403E+00 -0.49909200618E+00  0.90007807377E+02  0.90000069634E+02 0.  0.
        -12    1    1    2    0    0 -0.10130757082E+01  0.34269433403E+00  0.49909200618E+00  0.11801926231E+01  0.00000000000E+00 0.  1.
         11    1    3    3    0    0  0.95372897136E+01 -0.11011875516E+01 -0.25999477414E+01  0.99464686006E+01  0.51100000000E-03 0. -1.
        -11    1    3    3    0    0 -0.12941574663E+02  0.38722311049E+02 -0.51770307909E+01  0.41154627635E+02  0.51100000000E-03 0.  1.
         12    1    3    3    0    0  0.44173606574E+01 -0.37963817831E+02  0.72778865261E+01  0.38906711141E+02  0.00000000000E+00 0. -1.
</event>
<event>
 7    1  0.1756449E-015  0.9000777E+02  0.7816164E-02  0.1186339E+00
        -11   -1    0    0    0    0  0.00000000000E+00  0.00000000000E+00  0.45593999997E+02  0.45594000000E+02  0.51100000000E-03 0. -1.
         11   -1    0    0    0    0 -0.00000000000E+00 -0.00000000000E+00 -0.45593999997E+02  0.45594000000E+02  0.51100000000E-03 0.  1.
    9900012    2    1    2    0    0  0.45902175002E+00  0.46830130377E+00  0.98129817608E+00  0.90007765621E+02  0.90000027328E+02 0.  0.
        -12    1    1    2    0    0 -0.45902175002E+00 -0.46830130377E+00 -0.98129817608E+00  0.11802343786E+01  0.00000000000E+00 0.  1.
         11    1    3    3    0    0 -0.90056046655E+01  0.10035576106E+02  0.11133918564E+01  0.13529720797E+02  0.51100000000E-03 0. -1.
        -11    1    3    3    0    0 -0.93036184453E+01  0.10446426320E+02 -0.31702252039E+02  0.34651376937E+02  0.51100000000E-03 0.  1.
         12    1    3    3    0    0  0.18768244861E+02 -0.20013701122E+02  0.31570158358E+02  0.41826667887E+02  0.00000000000E+00 0. -1.
</event>
<event>
 7    1  0.1756449E-015  0.9000771E+02  0.7816164E-02  0.1186339E+00
        -11   -1    0    0    0    0  0.00000000000E+00  0.00000000000E+00  0.45593999997E+02  0.45594000000E+02  0.51100000000E-03 0.  1.
         11   -1    0    0    0    0 -0.00000000000E+00 -0.00000000000E+00 -0.45593999997E+02  0.45594000000E+02  0.51100000000E-03 0. -1.
    9900012    2    1    2    0    0  0.33352644515E+00 -0.91243330464E+00  0.67030520132E+00  0.90007710422E+02  0.89999971400E+02 0.  0.
        -12    1    1    2    0    0 -0.33352644515E+00  0.91243330464E+00 -0.67030520132E+00  0.11802895780E+01  0.00000000000E+00 0.  1.
         11    1    3    3    0    0 -0.77416606166E+01 -0.69039350472E+01 -0.19399987880E+01  0.10552782751E+02  0.51100000000E-03 0. -1.
        -11    1    3    3    0    0 -0.20669010500E+02  0.33448236741E+02 -0.23872670390E+01  0.39391516603E+02  0.51100000000E-03 0.  1.
         12    1    3    3    0    0  0.28744197561E+02 -0.27456734998E+02  0.49975710283E+01  0.40063411068E+02  0.00000000000E+00 0. -1.
</event>
<event>
 7    1  0.1756449E-015  0.9000736E+02  0.7816164E-02  0.1186340E+00
        -11   -1    0    0    0    0  0.00000000000E+00  0.00000000000E+00  0.45593999997E+02  0.45594000000E+02  0.51100000000E-03 0.  1.
         11   -1    0    0    0    0 -0.00000000000E+00 -0.00000000000E+00 -0.45593999997E+02  0.45594000000E+02  0.51100000000E-03 0. -1.
    9900012    2    1    2    0    0  0.25239943967E+00  0.11466037486E+01 -0.12451926561E+00  0.90007360054E+02  0.89999616406E+02 0.  0.
        -12    1    1    2    0    0 -0.25239943967E+00 -0.11466037486E+01  0.12451926561E+00  0.11806399455E+01  0.00000000000E+00 0.  1.
         11    1    3    3    0    0 -0.17943890194E+02  0.12102045702E+02 -0.28941677666E+02  0.36139499330E+02  0.51100000000E-03 0. -1.
        -11    1    3    3    0    0 -0.26912734357E+01 -0.23422493165E+01 -0.90749499555E+01  0.97510923246E+01  0.51100000000E-03 0.  1.
        -12    1    3    3    0    0  0.20887563069E+02 -0.86131926373E+01  0.37892108356E+02  0.44116768400E+02  0.00000000000E+00 0.  1.
</event>
<event>
 7    1  0.1756449E-015  0.9000744E+02  0.7816164E-02  0.1186340E+00
        -11   -1    0    0    0    0  0.00000000000E+00  0.00000000000E+00  0.45593999997E+02  0.45594000000E+02  0.51100000000E-03 0.  1.
         11   -1    0    0    0    0 -0.00000000000E+00 -0.00000000000E+00 -0.45593999997E+02  0.45594000000E+02  0.51100000000E-03 0. -1.
    9900012    2    1    2    0    0  0.11332386622E+01 -0.24605220228E-01  0.32999253277E+00  0.90007436425E+02  0.89999693785E+02 0.  0.
        -12    1    1    2    0    0 -0.11332386622E+01  0.24605220228E-01 -0.32999253277E+00  0.11805635748E+01  0.00000000000E+00 0.  1.
         11    1    3    3    0    0 -0.31508339642E+01  0.45644765109E+01  0.11998609359E+02  0.13218503217E+02  0.51100000000E-03 0. -1.
        -11    1    3    3    0    0  0.26171353706E+02 -0.10920845500E+02  0.22168858587E+02  0.35995317926E+02  0.51100000000E-03 0.  1.
         12    1    3    3    0    0 -0.21887281080E+02  0.63317637691E+01 -0.33837475413E+02  0.40793615283E+02  0.00000000000E+00 0. -1.
</event>
<event>
 7    1  0.1756449E-015  0.9000766E+02  0.7816164E-02  0.1186339E+00
        -11   -1    0    0    0    0  0.00000000000E+00  0.00000000000E+00  0.45593999997E+02  0.45594000000E+02  0.51100000000E-03 0.  1.
         11   -1    0    0    0    0 -0.00000000000E+00 -0.00000000000E+00 -0.45593999997E+02  0.45594000000E+02  0.51100000000E-03 0. -1.
    9900012    2    1    2    0    0  0.59990644153E+00  0.10042291042E+01 -0.15762838353E+00  0.90007656601E+02  0.89999916868E+02 0.  0.
        -12    1    1    2    0    0 -0.59990644153E+00 -0.10042291042E+01  0.15762838353E+00  0.11803433991E+01  0.00000000000E+00 0.  1.
         11    1    3    3    0    0 -0.16460289541E+01  0.35634160865E+02 -0.13143631393E+02  0.38016547428E+02  0.51100000000E-03 0. -1.
        -11    1    3    3    0    0 -0.36915433754E+01  0.25162965091E+01 -0.78175632508E+01  0.90040844096E+01  0.51100000000E-03 0.  1.
        -12    1    3    3    0    0  0.59374787710E+01 -0.37146228270E+02  0.20803566260E+02  0.42987024763E+02  0.00000000000E+00 0.  1.
</event>
<event>
 7    1  0.1756449E-015  0.9000763E+02  0.7816164E-02  0.1186339E+00
        -11   -1    0    0    0    0  0.00000000000E+00  0.00000000000E+00  0.45593999997E+02  0.45594000000E+02  0.51100000000E-03 0.  1.
         11   -1    0    0    0    0 -0.00000000000E+00 -0.00000000000E+00 -0.45593999997E+02  0.45594000000E+02  0.51100000000E-03 0. -1.
    9900012    2    1    2    0    0  0.14148822838E+00  0.36300784060E+00 -0.11142174401E+01  0.90007629670E+02  0.89999889582E+02 0.  0.
        -12    1    1    2    0    0 -0.14148822838E+00 -0.36300784060E+00  0.11142174401E+01  0.11803703295E+01  0.00000000000E+00 0.  1.
         11    1    3    3    0    0  0.37439561775E+02  0.21299369531E+02 -0.10635479132E+02  0.44367751182E+02  0.51100000000E-03 0. -1.
        -11    1    3    3    0    0 -0.90050451786E+01  0.67693437069E+00  0.17794289726E+01  0.92040994422E+01  0.51100000000E-03 0.  1.
        -12    1    3    3    0    0 -0.28293028368E+02 -0.21613296061E+02  0.77418327197E+01  0.36435779046E+02  0.00000000000E+00 0.  1.
</event>
<event>
 7    1  0.1756449E-015  0.9000731E+02  0.7816164E-02  0.1186340E+00
        -11   -1    0    0    0    0  0.00000000000E+00  0.00000000000E+00  0.45593999997E+02  0.45594000000E+02  0.51100000000E-03 0.  1.
         11   -1    0    0    0    0 -0.00000000000E+00 -0.00000000000E+00 -0.45593999997E+02  0.45594000000E+02  0.51100000000E-03 0. -1.
    9900012    2    1    2    0    0 -0.33500783939E-01  0.66166146138E+00 -0.97730128756E+00  0.90007306984E+02  0.89999562635E+02 0.  0.
        -12    1    1    2    0    0  0.33500783939E-01 -0.66166146138E+00  0.97730128756E+00  0.11806930163E+01  0.00000000000E+00 0.  1.
         11    1    3    3    0    0 -0.65296192976E+01 -0.36566036357E+01 -0.57651891543E+01  0.94469087307E+01  0.51100000000E-03 0. -1.
        -11    1    3    3    0    0 -0.10097310049E+02 -0.38919368264E+01  0.39643090249E+02  0.41093520745E+02  0.51100000000E-03 0.  1.
         12    1    3    3    0    0  0.16593428563E+02  0.82102019235E+01 -0.34855202382E+02  0.39466877508E+02  0.00000000000E+00 0. -1.
</event>
<event>
 7    1  0.1756449E-015  0.9000770E+02  0.7816164E-02  0.1186339E+00
        -11   -1    0    0    0    0  0.00000000000E+00  0.00000000000E+00  0.45593999997E+02  0.45594000000E+02  0.51100000000E-03 0.  1.
         11   -1    0    0    0    0 -0.00000000000E+00 -0.00000000000E+00 -0.45593999997E+02  0.45594000000E+02  0.51100000000E-03 0. -1.
    9900012    2    1    2    0    0  0.43265321988E+00  0.87312602026E+00  0.66600508817E+00  0.90007703159E+02  0.89999964040E+02 0.  0.
        -12    1    1    2    0    0 -0.43265321988E+00 -0.87312602026E+00 -0.66600508817E+00  0.11802968412E+01  0.00000000000E+00 0.  1.
         11    1    3    3    0    0  0.41335371971E+01 -0.95001655276E+00 -0.63169148318E+01  0.76086841480E+01  0.51100000000E-03 0. -1.
        -11    1    3    3    0    0  0.22674454229E+02  0.31130569926E+02  0.16403981006E+02  0.41860886894E+02  0.51100000000E-03 0.  1.
         12    1    3    3    0    0 -0.26375338206E+02 -0.29307427353E+02 -0.94210610859E+01  0.40538132117E+02  0.00000000000E+00 0. -1.
</event>
<event>
 7    1  0.1756449E-015  0.9000754E+02  0.7816164E-02  0.1186339E+00
        -11   -1    0    0    0    0  0.00000000000E+00  0.00000000000E+00  0.45593999997E+02  0.45594000000E+02  0.51100000000E-03 0.  1.
         11   -1    0    0    0    0 -0.00000000000E+00 -0.00000000000E+00 -0.45593999997E+02  0.45594000000E+02  0.51100000000E-03 0. -1.
    9900012    2    1    2    0    0  0.62202763861E+00 -0.30428981641E+00 -0.95602151582E+00  0.90007539152E+02  0.89999797868E+02 0.  0.
        -12    1    1    2    0    0 -0.62202763861E+00  0.30428981641E+00  0.95602151582E+00  0.11804608483E+01  0.00000000000E+00 0.  1.
         11    1    3    3    0    0  0.25398834676E-01  0.41403301516E+02 -0.45911539009E+01  0.41657084823E+02  0.51100000000E-03 0. -1.
        -11    1    3    3    0    0  0.50361444016E+01 -0.27562061565E+01 -0.56579304238E+01  0.80604962473E+01  0.51100000000E-03 0.  1.
        -12    1    3    3    0    0 -0.44395155977E+01 -0.38951385176E+02  0.92930628089E+01  0.40289958082E+02  0.00000000000E+00 0.  1.
</event>
<event>
 7    1  0.1756449E-015  0.9000776E+02  0.7816164E-02  0.1186339E+00
        -11   -1    0    0    0    0  0.00000000000E+00  0.00000000000E+00  0.45593999997E+02  0.45594000000E+02  0.51100000000E-03 0.  1.
         11   -1    0    0    0    0 -0.00000000000E+00 -0.00000000000E+00 -0.45593999997E+02  0.45594000000E+02  0.51100000000E-03 0. -1.
    9900012    2    1    2    0    0 -0.92406011214E+00  0.54381609482E+00 -0.49330506713E+00  0.90007757260E+02  0.90000018856E+02 0.  0.
        -12    1    1    2    0    0  0.92406011214E+00 -0.54381609482E+00  0.49330506713E+00  0.11802427399E+01  0.00000000000E+00 0.  1.
         11    1    3    3    0    0  0.82115861795E+00 -0.63381920466E+01  0.76042775651E+01  0.99333789540E+01  0.51100000000E-03 0. -1.
        -11    1    3    3    0    0 -0.28695884264E+02 -0.24886123409E+02 -0.29641959551E+01  0.38099335558E+02  0.51100000000E-03 0.  1.
         12    1    3    3    0    0  0.26950665534E+02  0.31768131551E+02 -0.51333866771E+01  0.41975042748E+02  0.00000000000E+00 0. -1.
</event>
<event>
 7    1  0.1756449E-015  0.9000772E+02  0.7816164E-02  0.1186339E+00
        -11   -1    0    0    0    0  0.00000000000E+00  0.00000000000E+00  0.45593999997E+02  0.45594000000E+02  0.51100000000E-03 0. -1.
         11   -1    0    0    0    0 -0.00000000000E+00 -0.00000000000E+00 -0.45593999997E+02  0.45594000000E+02  0.51100000000E-03 0.  1.
    9900012    2    1    2    0    0 -0.70676291834E+00  0.67048928648E+00  0.66632259608E+00  0.90007722275E+02  0.89999983409E+02 0.  0.
        -12    1    1    2    0    0  0.70676291834E+00 -0.67048928648E+00 -0.66632259608E+00  0.11802777250E+01  0.00000000000E+00 0.  1.
         11    1    3    3    0    0  0.79327665102E+01  0.25220795194E+00 -0.40822711619E+01  0.89250955993E+01  0.51100000000E-03 0. -1.
        -11    1    3    3    0    0  0.10466282486E+01  0.39556318521E+02  0.88749320164E+01  0.40553201898E+02  0.51100000000E-03 0.  1.
         12    1    3    3    0    0 -0.96861576772E+01 -0.39138037187E+02 -0.41263382584E+01  0.40529424777E+02  0.00000000000E+00 0. -1.
</event>
<event>
 7    1  0.1756449E-015  0.9000775E+02  0.7816164E-02  0.1186339E+00
        -11   -1    0    0    0    0  0.00000000000E+00  0.00000000000E+00  0.45593999997E+02  0.45594000000E+02  0.51100000000E-03 0.  1.
         11   -1    0    0    0    0 -0.00000000000E+00 -0.00000000000E+00 -0.45593999997E+02  0.45594000000E+02  0.51100000000E-03 0. -1.
    9900012    2    1    2    0    0 -0.20708107318E+00  0.89876464228E+00 -0.73643641688E+00  0.90007746193E+02  0.90000007643E+02 0.  0.
        -12    1    1    2    0    0  0.20708107318E+00 -0.89876464228E+00  0.73643641688E+00  0.11802538071E+01  0.00000000000E+00 0.  1.
         11    1    3    3    0    0  0.11130096817E+02  0.70898294699E+01 -0.23779651259E+02  0.27195892178E+02  0.51100000000E-03 0. -1.
        -11    1    3    3    0    0  0.88747224614E+01  0.69269770753E+01 -0.14404280871E+02  0.18281876759E+02  0.51100000000E-03 0.  1.
        -12    1    3    3    0    0 -0.20211900351E+02 -0.13118041903E+02  0.37447495714E+02  0.44529977256E+02  0.00000000000E+00 0.  1.
</event>
<event>
 7    1  0.1756449E-015  0.9000741E+02  0.7816164E-02  0.1186340E+00
        -11   -1    0    0    0    0  0.00000000000E+00  0.00000000000E+00  0.45593999997E+02  0.45594000000E+02  0.51100000000E-03 0. -1.
         11   -1    0    0    0    0 -0.00000000000E+00 -0.00000000000E+00 -0.45593999997E+02  0.45594000000E+02  0.51100000000E-03 0.  1.
    9900012    2    1    2    0    0  0.20921155442E+00  0.61361450802E+00  0.98665835650E+00  0.90007412455E+02  0.89999669499E+02 0.  0.
        -12    1    1    2    0    0 -0.20921155442E+00 -0.61361450802E+00 -0.98665835650E+00  0.11805875450E+01  0.00000000000E+00 0.  1.
         11    1    3    3    0    0 -0.36026532151E+02 -0.19986136102E+01 -0.77380849698E+01  0.36902349986E+02  0.51100000000E-03 0. -1.
        -11    1    3    3    0    0 -0.74723404971E+01 -0.12571403339E+01  0.49782670783E+01  0.90663894516E+01  0.51100000000E-03 0.  1.
        -12    1    3    3    0    0  0.43708084203E+02  0.38693684521E+01  0.37464762480E+01  0.44038673018E+02  0.00000000000E+00 0.  1.
</event>
<event>
 7    1  0.1756449E-015  0.9000791E+02  0.7816164E-02  0.1186339E+00
        -11   -1    0    0    0    0  0.00000000000E+00  0.00000000000E+00  0.45593999997E+02  0.45594000000E+02  0.51100000000E-03 0.  1.
         11   -1    0    0    0    0 -0.00000000000E+00 -0.00000000000E+00 -0.45593999997E+02  0.45594000000E+02  0.51100000000E-03 0. -1.
    9900012    2    1    2    0    0 -0.93846482337E+00  0.11570831668E+00 -0.70605498444E+00  0.90007907512E+02  0.90000171091E+02 0.  0.
        -12    1    1    2    0    0  0.93846482337E+00 -0.11570831668E+00  0.70605498444E+00  0.11800924880E+01  0.00000000000E+00 0.  1.
         11    1    3    3    0    0 -0.86448394613E+01 -0.42514912060E+01  0.40224750784E+01  0.10439766894E+02  0.51100000000E-03 0. -1.
        -11    1    3    3    0    0  0.19548083474E+02 -0.26529504986E+02  0.19741636716E+02  0.38414507973E+02  0.51100000000E-03 0.  1.
         12    1    3    3    0    0 -0.11841708836E+02  0.30896704509E+02 -0.24470166779E+02  0.41153632645E+02  0.00000000000E+00 0. -1.
</event>
<event>
 7    1  0.1756449E-015  0.9000768E+02  0.7816164E-02  0.1186339E+00
        -11   -1    0    0    0    0  0.00000000000E+00  0.00000000000E+00  0.45593999997E+02  0.45594000000E+02  0.51100000000E-03 0. -1.
         11   -1    0    0    0    0 -0.00000000000E+00 -0.00000000000E+00 -0.45593999997E+02  0.45594000000E+02  0.51100000000E-03 0.  1.
    9900012    2    1    2    0    0  0.50928936496E+00  0.87864615902E+00  0.60145844899E+00  0.90007683519E+02  0.89999944141E+02 0.  0.
        -12    1    1    2    0    0 -0.50928936496E+00 -0.87864615902E+00 -0.60145844899E+00  0.11803164812E+01  0.00000000000E+00 0.  1.
         11    1    3    3    0    0 -0.24081634613E+02 -0.23057434740E+02  0.21806259072E+02  0.39838214787E+02  0.51100000000E-03 0. -1.
        -11    1    3    3    0    0  0.63590703584E+01 -0.59732785159E+01  0.86673569926E+00  0.87675003898E+01  0.51100000000E-03 0.  1.
        -12    1    3    3    0    0  0.18231853620E+02  0.29909359414E+02 -0.22071536322E+02  0.41401968342E+02  0.00000000000E+00 0.  1.
</event>
<event>
 7    1  0.1756449E-015  0.9000757E+02  0.7816164E-02  0.1186339E+00
        -11   -1    0    0    0    0  0.00000000000E+00  0.00000000000E+00  0.45593999997E+02  0.45594000000E+02  0.51100000000E-03 0.  1.
         11   -1    0    0    0    0 -0.00000000000E+00 -0.00000000000E+00 -0.45593999997E+02  0.45594000000E+02  0.51100000000E-03 0. -1.
    9900012    2    1    2    0    0 -0.99752795934E+00  0.37563619448E+00 -0.50719807377E+00  0.90007570220E+02  0.89999829346E+02 0.  0.
        -12    1    1    2    0    0  0.99752795934E+00 -0.37563619448E+00  0.50719807377E+00  0.11804297803E+01  0.00000000000E+00 0.  1.
         11    1    3    3    0    0 -0.29768188345E+02 -0.17014136755E+02  0.19260480291E+02  0.39326733759E+02  0.51100000000E-03 0. -1.
        -11    1    3    3    0    0 -0.56147012587E+01 -0.18894805356E+01 -0.71587905533E+01  0.92921089837E+01  0.51100000000E-03 0.  1.
        -12    1    3    3    0    0  0.34385361644E+02  0.19279253485E+02 -0.12608887812E+02  0.41388727477E+02  0.00000000000E+00 0.  1.
</event>
<event>
 7    1  0.1756449E-015  0.9000772E+02  0.7816164E-02  0.1186339E+00
        -11   -1    0    0    0    0  0.00000000000E+00  0.00000000000E+00  0.45593999997E+02  0.45594000000E+02  0.51100000000E-03 0.  1.
         11   -1    0    0    0    0 -0.00000000000E+00 -0.00000000000E+00 -0.45593999997E+02  0.45594000000E+02  0.51100000000E-03 0. -1.
    9900012    2    1    2    0    0 -0.11492275004E+01 -0.25341382498E+00  0.90083658505E-01  0.90007721440E+02  0.89999982563E+02 0.  0.
        -12    1    1    2    0    0  0.11492275004E+01  0.25341382498E+00 -0.90083658505E-01  0.11802785603E+01  0.00000000000E+00 0.  1.
         11    1    3    3    0    0  0.84338880590E+01  0.28591964498E+00 -0.37596447329E+02  0.38531870833E+02  0.51100000000E-03 0. -1.
        -11    1    3    3    0    0  0.74242973400E+01 -0.70067677569E+01  0.67185750875E+00  0.10230658736E+02  0.51100000000E-03 0.  1.
        -12    1    3    3    0    0 -0.17007412899E+02  0.64674342869E+01  0.37014673479E+02  0.41245191872E+02  0.00000000000E+00 0.  1.
</event>
<event>
 7    1  0.1756449E-015  0.9000791E+02  0.7816164E-02  0.1186339E+00
        -11   -1    0    0    0    0  0.00000000000E+00  0.00000000000E+00  0.45593999997E+02  0.45594000000E+02  0.51100000000E-03 0. -1.
         11   -1    0    0    0    0 -0.00000000000E+00 -0.00000000000E+00 -0.45593999997E+02  0.45594000000E+02  0.51100000000E-03 0.  1.
    9900012    2    1    2    0    0  0.98344118895E+00 -0.64581993127E+00  0.91538980385E-01  0.90007907063E+02  0.90000170636E+02 0.  0.
        -12    1    1    2    0    0 -0.98344118895E+00  0.64581993127E+00 -0.91538980385E-01  0.11800929373E+01  0.00000000000E+00 0.  1.
         11    1    3    3    0    0 -0.58861767032E+01 -0.50987862040E+01  0.91835307176E+01  0.12040844391E+02  0.51100000000E-03 0. -1.
        -11    1    3    3    0    0 -0.35104224504E+02 -0.89101050583E+00 -0.46428016151E+01  0.35421124839E+02  0.51100000000E-03 0.  1.
         12    1    3    3    0    0  0.41973842397E+02  0.53439767785E+01 -0.44491901221E+01  0.42545937833E+02  0.00000000000E+00 0. -1.
</event>
<event>
 7    1  0.1756449E-015  0.9000775E+02  0.7816164E-02  0.1186339E+00
        -11   -1    0    0    0    0  0.00000000000E+00  0.00000000000E+00  0.45593999997E+02  0.45594000000E+02  0.51100000000E-03 0.  1.
         11   -1    0    0    0    0 -0.00000000000E+00 -0.00000000000E+00 -0.45593999997E+02  0.45594000000E+02  0.51100000000E-03 0. -1.
    9900012    2    1    2    0    0 -0.11478398534E+01  0.24722178068E+00 -0.11973701592E+00  0.90007749225E+02  0.90000010715E+02 0.  0.
        -12    1    1    2    0    0  0.11478398534E+01 -0.24722178068E+00  0.11973701592E+00  0.11802507746E+01  0.00000000000E+00 0.  1.
         11    1    3    3    0    0 -0.17644279950E+02  0.27987074557E+02 -0.16728550137E+02  0.37073458797E+02  0.51100000000E-03 0. -1.
        -11    1    3    3    0    0 -0.59258297442E+01  0.88569059854E+00 -0.72790489944E+01  0.94278555630E+01  0.51100000000E-03 0.  1.
        -12    1    3    3    0    0  0.22422269841E+02 -0.28625543375E+02  0.23887862115E+02  0.43506434866E+02  0.00000000000E+00 0.  1.
</event>
<event>
 7    1  0.1756449E-015  0.9000770E+02  0.7816164E-02  0.1186339E+00
        -11   -1    0    0    0    0  0.00000000000E+00  0.00000000000E+00  0.45593999997E+02  0.45594000000E+02  0.51100000000E-03 0.  1.
         11   -1    0    0    0    0 -0.00000000000E+00 -0.00000000000E+00 -0.45593999997E+02  0.45594000000E+02  0.51100000000E-03 0. -1.
    9900012    2    1    2    0    0 -0.72059245499E+00  0.94810582829E-01 -0.92998638527E+00  0.90007696137E+02  0.89999956926E+02 0.  0.
        -12    1    1    2    0    0  0.72059245499E+00 -0.94810582829E-01  0.92998638527E+00  0.11803038632E+01  0.00000000000E+00 0.  1.
         11    1    3    3    0    0  0.28263573894E+00  0.83835124739E+00 -0.10694282299E+02  0.10730814970E+02  0.51100000000E-03 0. -1.
        -11    1    3    3    0    0  0.34299112550E+02 -0.18231115826E+02  0.69210702620E+00  0.38849475137E+02  0.51100000000E-03 0.  1.
         12    1    3    3    0    0 -0.35302340744E+02  0.17487575162E+02  0.90721888875E+01  0.40427406030E+02  0.00000000000E+00 0. -1.
</event>
<event>
 7    1  0.1756449E-015  0.9000739E+02  0.7816164E-02  0.1186340E+00
        -11   -1    0    0    0    0  0.00000000000E+00  0.00000000000E+00  0.45593999997E+02  0.45594000000E+02  0.51100000000E-03 0.  1.
         11   -1    0    0    0    0 -0.00000000000E+00 -0.00000000000E+00 -0.45593999997E+02  0.45594000000E+02  0.51100000000E-03 0. -1.
    9900012    2    1    2    0    0  0.11895752703E+00  0.91619898102E+00 -0.73502215108E+00  0.90007394635E+02  0.89999651443E+02 0.  0.
        -12    1    1    2    0    0 -0.11895752703E+00 -0.91619898102E+00  0.73502215108E+00  0.11806053653E+01  0.00000000000E+00 0.  1.
         11    1    3    3    0    0  0.19663934480E+02 -0.21733997882E+02 -0.25514202596E+02  0.38858866653E+02  0.51100000000E-03 0. -1.
        -11    1    3    3    0    0 -0.15151185646E+02 -0.38089323285E+01  0.16095916719E+01  0.15705323224E+02  0.51100000000E-03 0.  1.
        -12    1    3    3    0    0 -0.43937913067E+01  0.26459129191E+02  0.23169588773E+02  0.35443204758E+02  0.00000000000E+00 0.  1.
</event>
<event>
 7    1  0.1756449E-015  0.9000776E+02  0.7816164E-02  0.1186339E+00
        -11   -1    0    0    0    0  0.00000000000E+00  0.00000000000E+00  0.45593999997E+02  0.45594000000E+02  0.51100000000E-03 0.  1.
         11   -1    0    0    0    0 -0.00000000000E+00 -0.00000000000E+00 -0.45593999997E+02  0.45594000000E+02  0.51100000000E-03 0. -1.
    9900012    2    1    2    0    0 -0.10713735766E+01  0.46136784987E+00  0.17963493882E+00  0.90007758353E+02  0.90000019963E+02 0.  0.
        -12    1    1    2    0    0  0.10713735766E+01 -0.46136784987E+00 -0.17963493882E+00  0.11802416468E+01  0.00000000000E+00 0.  1.
         11    1    3    3    0    0  0.13521519372E+01  0.24994515958E+01  0.85582824216E+01  0.90177475797E+01  0.51100000000E-03 0. -1.
        -11    1    3    3    0    0  0.12195465925E+02 -0.31523209663E+02  0.18469926133E+02  0.38517272855E+02  0.51100000000E-03 0.  1.
         12    1    3    3    0    0 -0.14618991439E+02  0.29485125917E+02 -0.26848573616E+02  0.42472737918E+02  0.00000000000E+00 0. -1.
</event>
<event>
 7    1  0.1756449E-015  0.9000802E+02  0.7816164E-02  0.1186338E+00
        -11   -1    0    0    0    0  0.00000000000E+00  0.00000000000E+00  0.45593999997E+02  0.45594000000E+02  0.51100000000E-03 0.  1.
         11   -1    0    0    0    0 -0.00000000000E+00 -0.00000000000E+00 -0.45593999997E+02  0.45594000000E+02  0.51100000000E-03 0. -1.
    9900012    2    1    2    0    0  0.47888576802E+00  0.23366976670E+00 -0.10528125448E+01  0.90008022291E+02  0.90000287385E+02 0.  0.
        -12    1    1    2    0    0 -0.47888576802E+00 -0.23366976670E+00  0.10528125448E+01  0.11799777088E+01  0.00000000000E+00 0.  1.
         11    1    3    3    0    0  0.13120366807E+02  0.35710319091E+02 -0.12349614150E+02  0.39998548532E+02  0.51100000000E-03 0. -1.
        -11    1    3    3    0    0 -0.54965483134E+01  0.38485303965E+01 -0.32756930427E+01  0.74668195871E+01  0.51100000000E-03 0.  1.
        -12    1    3    3    0    0 -0.71449327259E+01 -0.39325179721E+02  0.14572494648E+02  0.42542654172E+02  0.00000000000E+00 0.  1.
</event>
<event>
 7    1  0.1756449E-015  0.9000787E+02  0.7816164E-02  0.1186339E+00
        -11   -1    0    0    0    0  0.00000000000E+00  0.00000000000E+00  0.45593999997E+02  0.45594000000E+02  0.51100000000E-03 0. -1.
         11   -1    0    0    0    0 -0.00000000000E+00 -0.00000000000E+00 -0.45593999997E+02  0.45594000000E+02  0.51100000000E-03 0.  1.
    9900012    2    1    2    0    0  0.97891977311E+00  0.63023840423E+00  0.19295643652E+00  0.90007865874E+02  0.90000128904E+02 0.  0.
        -12    1    1    2    0    0 -0.97891977311E+00 -0.63023840423E+00 -0.19295643652E+00  0.11801341257E+01  0.00000000000E+00 0.  1.
         11    1    3    3    0    0  0.39631984188E+01 -0.95328580967E+01 -0.21226519246E+01  0.10539828113E+02  0.51100000000E-03 0. -1.
        -11    1    3    3    0    0 -0.24777684635E+02  0.99175183960E-01 -0.30192152457E+02  0.39057772106E+02  0.51100000000E-03 0.  1.
         12    1    3    3    0    0  0.21793405989E+02  0.10063921317E+02  0.32507760819E+02  0.40410265655E+02  0.00000000000E+00 0. -1.
</event>
<event>
 7    1  0.1756449E-015  0.9000791E+02  0.7816164E-02  0.1186339E+00
        -11   -1    0    0    0    0  0.00000000000E+00  0.00000000000E+00  0.45593999997E+02  0.45594000000E+02  0.51100000000E-03 0.  1.
         11   -1    0    0    0    0 -0.00000000000E+00 -0.00000000000E+00 -0.45593999997E+02  0.45594000000E+02  0.51100000000E-03 0. -1.
    9900012    2    1    2    0    0  0.83611576353E+00 -0.61220433290E+00 -0.56456894235E+00  0.90007906018E+02  0.90000169577E+02 0.  0.
        -12    1    1    2    0    0 -0.83611576353E+00  0.61220433290E+00  0.56456894235E+00  0.11800939818E+01  0.00000000000E+00 0.  1.
         11    1    3    3    0    0  0.20591592704E+02 -0.29860895404E+02 -0.13946363541E+02  0.38861135093E+02  0.51100000000E-03 0. -1.
        -11    1    3    3    0    0 -0.63384538026E+01 -0.24024706969E+01 -0.81364330261E+01  0.10590061601E+02  0.51100000000E-03 0.  1.
        -12    1    3    3    0    0 -0.13417023138E+02  0.31651161768E+02  0.21518227625E+02  0.40556709325E+02  0.00000000000E+00 0.  1.
</event>
<event>
 7    1  0.1756449E-015  0.9000781E+02  0.7816164E-02  0.1186339E+00
        -11   -1    0    0    0    0  0.00000000000E+00  0.00000000000E+00  0.45593999997E+02  0.45594000000E+02  0.51100000000E-03 0. -1.
         11   -1    0    0    0    0 -0.00000000000E+00 -0.00000000000E+00 -0.45593999997E+02  0.45594000000E+02  0.51100000000E-03 0.  1.
    9900012    2    1    2    0    0 -0.93623216869E+00  0.50997417888E+00  0.50619398840E+00  0.90007814976E+02  0.90000077334E+02 0.  0.
        -12    1    1    2    0    0  0.93623216869E+00 -0.50997417888E+00 -0.50619398840E+00  0.11801850239E+01  0.00000000000E+00 0.  1.
         11    1    3    3    0    0  0.81281609523E+01  0.37884795019E+02 -0.80469647898E+00  0.38755286488E+02  0.51100000000E-03 0. -1.
        -11    1    3    3    0    0 -0.25016689984E+01  0.13666278046E+01 -0.99719055742E+01  0.10371350943E+02  0.51100000000E-03 0.  1.
        -12    1    3    3    0    0 -0.65627241226E+01 -0.38741448644E+02  0.11282796042E+02  0.40881177545E+02  0.00000000000E+00 0.  1.
</event>
<event>
 7    1  0.1756449E-015  0.9000786E+02  0.7816164E-02  0.1186339E+00
        -11   -1    0    0    0    0  0.00000000000E+00  0.00000000000E+00  0.45593999997E+02  0.45594000000E+02  0.51100000000E-03 0.  1.
         11   -1    0    0    0    0 -0.00000000000E+00 -0.00000000000E+00 -0.45593999997E+02  0.45594000000E+02  0.51100000000E-03 0. -1.
    9900012    2    1    2    0    0  0.19560539350E+00  0.82385458568E+00 -0.82202640209E+00  0.90007862189E+02  0.90000125169E+02 0.  0.
        -12    1    1    2    0    0 -0.19560539350E+00 -0.82385458568E+00  0.82202640209E+00  0.11801378115E+01  0.00000000000E+00 0.  1.
         11    1    3    3    0    0 -0.26018638361E+02 -0.22737406257E+02  0.85911480629E+01  0.35605715984E+02  0.51100000000E-03 0. -1.
        -11    1    3    3    0    0 -0.49508471855E+01 -0.12256423342E+00  0.96629349652E+01  0.10858094780E+02  0.51100000000E-03 0.  1.
        -12    1    3    3    0    0  0.31165090940E+02  0.23683825076E+02 -0.19076109430E+02  0.43544051425E+02  0.00000000000E+00 0.  1.
</event>
<event>
 7    1  0.1756449E-015  0.9000763E+02  0.7816164E-02  0.1186339E+00
        -11   -1    0    0    0    0  0.00000000000E+00  0.00000000000E+00  0.45593999997E+02  0.45594000000E+02  0.51100000000E-03 0. -1.
         11   -1    0    0    0    0 -0.00000000000E+00 -0.00000000000E+00 -0.45593999997E+02  0.45594000000E+02  0.51100000000E-03 0.  1.
    9900012    2    1    2    0    0 -0.79115085423E+00  0.64197208240E+00  0.59601165446E+00  0.90007628143E+02  0.89999888034E+02 0.  0.
        -12    1    1    2    0    0  0.79115085423E+00 -0.64197208240E+00 -0.59601165446E+00  0.11803718571E+01  0.00000000000E+00 0.  1.
         11    1    3    3    0    0 -0.62393166511E+01  0.32226736819E+01  0.44526548274E+01  0.83150967045E+01  0.51100000000E-03 0. -1.
        -11    1    3    3    0    0  0.34991900241E+02  0.20659725172E+02  0.96228474707E+01  0.41759508144E+02  0.51100000000E-03 0.  1.
         12    1    3    3    0    0 -0.29543734444E+02 -0.23240426772E+02 -0.13479490644E+02  0.39933023295E+02  0.00000000000E+00 0. -1.
</event>
<event>
 7    1  0.1756449E-015  0.9000777E+02  0.7816164E-02  0.1186339E+00
        -11   -1    0    0    0    0  0.00000000000E+00  0.00000000000E+00  0.45593999997E+02  0.45594000000E+02  0.51100000000E-03 0.  1.
         11   -1    0    0    0    0 -0.00000000000E+00 -0.00000000000E+00 -0.45593999997E+02  0.45594000000E+02  0.51100000000E-03 0. -1.
    9900012    2    1    2    0    0 -0.33251867257E+00  0.65481560403E+00 -0.92390008613E+00  0.90007769721E+02  0.90000031481E+02 0.  0.
        -12    1    1    2    0    0  0.33251867257E+00 -0.65481560403E+00  0.92390008613E+00  0.11802302792E+01  0.00000000000E+00 0.  1.
         11    1    3    3    0    0  0.44044553875E+01 -0.13556215576E+01 -0.87712773439E+01  0.99081907316E+01  0.51100000000E-03 0. -1.
        -11    1    3    3    0    0 -0.39249696162E+02 -0.47592181028E+01  0.18074056208E+02  0.43472523666E+02  0.51100000000E-03 0.  1.
         12    1    3    3    0    0  0.34512722102E+02  0.67696552644E+01 -0.10226678951E+02  0.36627055323E+02  0.00000000000E+00 0. -1.
</event>
<event>
 7    1  0.1756449E-015  0.9000778E+02  0.7816164E-02  0.1186339E+00
        -11   -1    0    0    0    0  0.00000000000E+00  0.00000000000E+00  0.45593999997E+02  0.45594000000E+02  0.51100000000E-03 0.  1.
         11   -1    0    0    0    0 -0.00000000000E+00 -0.00000000000E+00 -0.45593999997E+02  0.45594000000E+02  0.51100000000E-03 0. -1.
    9900012    2    1    2    0    0  0.32770539931E+00  0.57609699341E+00 -0.97654297636E+00  0.90007781902E+02  0.90000043823E+02 0.  0.
        -12    1    1    2    0    0 -0.32770539931E+00 -0.57609699341E+00  0.97654297636E+00  0.11802180982E+01  0.00000000000E+00 0.  1.
         11    1    3    3    0    0 -0.26061051086E+02  0.29105129887E+02  0.16193274702E+02  0.42290768676E+02  0.51100000000E-03 0. -1.
        -11    1    3    3    0    0  0.71267944973E+01  0.96727775824E+00 -0.90588147346E+01  0.11566717370E+02  0.51100000000E-03 0.  1.
        -12    1    3    3    0    0  0.19261961988E+02 -0.29496310651E+02 -0.81110029434E+01  0.36150295855E+02  0.00000000000E+00 0.  1.
</event>
<event>
 7    1  0.1756449E-015  0.9000772E+02  0.7816164E-02  0.1186339E+00
        -11   -1    0    0    0    0  0.00000000000E+00  0.00000000000E+00  0.45593999997E+02  0.45594000000E+02  0.51100000000E-03 0.  1.
         11   -1    0    0    0    0 -0.00000000000E+00 -0.00000000000E+00 -0.45593999997E+02  0.45594000000E+02  0.51100000000E-03 0. -1.
    9900012    2    1    2    0    0 -0.31438247422E+00  0.11219693732E+01  0.18818003132E+00  0.90007718958E+02  0.89999980048E+02 0.  0.
        -12    1    1    2    0    0  0.31438247422E+00 -0.11219693732E+01 -0.18818003132E+00  0.11802810423E+01  0.00000000000E+00 0.  1.
         11    1    3    3    0    0 -0.42308666835E+01  0.68098841540E+01  0.34629894636E+01  0.87331009023E+01  0.51100000000E-03 0. -1.
        -11    1    3    3    0    0  0.10041060431E+01 -0.77326471916E+01  0.38533807060E+02  0.39314836237E+02  0.51100000000E-03 0.  1.
         12    1    3    3    0    0  0.29123781662E+01  0.20447324109E+01 -0.41808616493E+02  0.41959781818E+02  0.00000000000E+00 0. -1.
</event>
<event>
 7    1  0.1756449E-015  0.9000772E+02  0.7816164E-02  0.1186339E+00
        -11   -1    0    0    0    0  0.00000000000E+00  0.00000000000E+00  0.45593999997E+02  0.45594000000E+02  0.51100000000E-03 0.  1.
         11   -1    0    0    0    0 -0.00000000000E+00 -0.00000000000E+00 -0.45593999997E+02  0.45594000000E+02  0.51100000000E-03 0. -1.
    9900012    2    1    2    0    0 -0.22364084978E+00 -0.10789350632E+01 -0.42301049013E+00  0.90007722924E+02  0.89999984067E+02 0.  0.
        -12    1    1    2    0    0  0.22364084978E+00  0.10789350632E+01  0.42301049013E+00  0.11802770756E+01  0.00000000000E+00 0.  1.
         11    1    3    3    0    0  0.23827327803E+02  0.10201914119E+02 -0.28841117798E+02  0.38776676985E+02  0.51100000000E-03 0. -1.
        -11    1    3    3    0    0 -0.71251641551E+01  0.67464166560E+01 -0.38819412643E+01  0.10552325344E+02  0.51100000000E-03 0.  1.
        -12    1    3    3    0    0 -0.16925804498E+02 -0.18027265839E+02  0.32300048572E+02  0.40678720595E+02  0.00000000000E+00 0.  1.
</event>
<event>
 7    1  0.1756449E-015  0.9000765E+02  0.7816164E-02  0.1186339E+00
        -11   -1    0    0    0    0  0.00000000000E+00  0.00000000000E+00  0.45593999997E+02  0.45594000000E+02  0.51100000000E-03 0. -1.
         11   -1    0    0    0    0 -0.00000000000E+00 -0.00000000000E+00 -0.45593999997E+02  0.45594000000E+02  0.51100000000E-03 0.  1.
    9900012    2    1    2    0    0 -0.11052036373E+00  0.45431596287E+00  0.10837965303E+01  0.90007647229E+02  0.89999907372E+02 0.  0.
        -12    1    1    2    0    0  0.11052036373E+00 -0.45431596287E+00 -0.10837965303E+01  0.11803527710E+01  0.00000000000E+00 0.  1.
         11    1    3    3    0    0 -0.34590160701E+02  0.65787097751E+01  0.10110205808E+02  0.36632975601E+02  0.51100000000E-03 0. -1.
        -11    1    3    3    0    0 -0.67468605757E+01 -0.89005709412E+01 -0.47262446757E+00  0.11178714812E+02  0.51100000000E-03 0.  1.
        -12    1    3    3    0    0  0.41226500913E+02  0.27761771289E+01 -0.85537848101E+01  0.42195956816E+02  0.00000000000E+00 0.  1.
</event>
<event>
 7    1  0.1756449E-015  0.9000774E+02  0.7816164E-02  0.1186339E+00
        -11   -1    0    0    0    0  0.00000000000E+00  0.00000000000E+00  0.45593999997E+02  0.45594000000E+02  0.51100000000E-03 0.  1.
         11   -1    0    0    0    0 -0.00000000000E+00 -0.00000000000E+00 -0.45593999997E+02  0.45594000000E+02  0.51100000000E-03 0. -1.
    9900012    2    1    2    0    0 -0.75046961737E+00  0.58502791582E+00 -0.69825095381E+00  0.90007738714E+02  0.90000000065E+02 0.  0.
        -12    1    1    2    0    0  0.75046961737E+00 -0.58502791582E+00  0.69825095381E+00  0.11802612861E+01  0.00000000000E+00 0.  1.
         11    1    3    3    0    0  0.95426558029E+01 -0.22491386641E+01  0.38212599409E+01  0.10522496486E+02  0.51100000000E-03 0. -1.
        -11    1    3    3    0    0  0.15998506826E+02  0.34259863303E+02 -0.69294810081E+01  0.38440969830E+02  0.51100000000E-03 0.  1.
         12    1    3    3    0    0 -0.26291632246E+02 -0.31425696723E+02  0.24099701134E+01  0.41044272398E+02  0.00000000000E+00 0. -1.
</event>
<event>
 7    1  0.1756449E-015  0.9000770E+02  0.7816164E-02  0.1186339E+00
        -11   -1    0    0    0    0  0.00000000000E+00  0.00000000000E+00  0.45593999997E+02  0.45594000000E+02  0.51100000000E-03 0.  1.
         11   -1    0    0    0    0 -0.00000000000E+00 -0.00000000000E+00 -0.45593999997E+02  0.45594000000E+02  0.51100000000E-03 0. -1.
    9900012    2    1    2    0    0 -0.67408256310E+00 -0.18413914056E+00 -0.95121777078E+00  0.90007699287E+02  0.89999960118E+02 0.  0.
        -12    1    1    2    0    0  0.67408256310E+00  0.18413914056E+00  0.95121777078E+00  0.11803007127E+01  0.00000000000E+00 0.  1.
         11    1    3    3    0    0  0.45399082173E+01  0.97138926946E+01 -0.39174709040E+02  0.40615616535E+02  0.51100000000E-03 0. -1.
        -11    1    3    3    0    0  0.86846554914E+01 -0.37133585531E+01  0.13979730775E+01  0.95481203247E+01  0.51100000000E-03 0.  1.
        -12    1    3    3    0    0 -0.13898646272E+02 -0.61846732821E+01  0.36825518192E+02  0.39843962427E+02  0.00000000000E+00 0.  1.
</event>
<event>
 7    1  0.1756449E-015  0.9000769E+02  0.7816164E-02  0.1186339E+00
        -11   -1    0    0    0    0  0.00000000000E+00  0.00000000000E+00  0.45593999997E+02  0.45594000000E+02  0.51100000000E-03 0.  1.
         11   -1    0    0    0    0 -0.00000000000E+00 -0.00000000000E+00 -0.45593999997E+02  0.45594000000E+02  0.51100000000E-03 0. -1.
    9900012    2    1    2    0    0  0.46170016017E+00 -0.94482590835E+00 -0.53598094495E+00  0.90007687072E+02  0.89999947741E+02 0.  0.
        -12    1    1    2    0    0 -0.46170016017E+00  0.94482590835E+00  0.53598094495E+00  0.11803129281E+01  0.00000000000E+00 0.  1.
         11    1    3    3    0    0 -0.80814572232E+01  0.29071743832E+01  0.24359972460E+01  0.89272446247E+01  0.51100000000E-03 0. -1.
        -11    1    3    3    0    0  0.37146672285E+01  0.12947015127E+02  0.35962636605E+02  0.38402280989E+02  0.51100000000E-03 0.  1.
         12    1    3    3    0    0  0.48284901549E+01 -0.16799015418E+02 -0.38934614796E+02  0.42678161459E+02  0.00000000000E+00 0. -1.
</event>
<event>
 7    1  0.1756449E-015  0.9000767E+02  0.7816164E-02  0.1186339E+00
        -11   -1    0    0    0    0  0.00000000000E+00  0.00000000000E+00  0.45593999997E+02  0.45594000000E+02  0.51100000000E-03 0.  1.
         11   -1    0    0    0    0 -0.00000000000E+00 -0.00000000000E+00 -0.45593999997E+02  0.45594000000E+02  0.51100000000E-03 0. -1.
    9900012    2    1    2    0    0  0.10390011399E+01  0.47626818082E+00 -0.29464125677E+00  0.90007674528E+02  0.89999935032E+02 0.  0.
        -12    1    1    2    0    0 -0.10390011399E+01 -0.47626818082E+00  0.29464125677E+00  0.11803254717E+01  0.00000000000E+00 0.  1.
         11    1    3    3    0    0 -0.16886108048E+02  0.15134092753E+01 -0.33072566901E+02  0.37164845410E+02  0.51100000000E-03 0. -1.
        -11    1    3    3    0    0 -0.39549639726E+01 -0.90950958559E+01 -0.27996894967E+01  0.10305375791E+02  0.51100000000E-03 0.  1.
        -12    1    3    3    0    0  0.21880073160E+02  0.80579547614E+01  0.35577615141E+02  0.42537453327E+02  0.00000000000E+00 0.  1.
</event>
<event>
 7    1  0.1756449E-015  0.9000767E+02  0.7816164E-02  0.1186339E+00
        -11   -1    0    0    0    0  0.00000000000E+00  0.00000000000E+00  0.45593999997E+02  0.45594000000E+02  0.51100000000E-03 0.  1.
         11   -1    0    0    0    0 -0.00000000000E+00 -0.00000000000E+00 -0.45593999997E+02  0.45594000000E+02  0.51100000000E-03 0. -1.
    9900012    2    1    2    0    0  0.58101430182E+00  0.69362411773E+00 -0.75794962046E+00  0.90007669681E+02  0.89999930120E+02 0.  0.
        -12    1    1    2    0    0 -0.58101430182E+00 -0.69362411773E+00  0.75794962046E+00  0.11803303193E+01  0.00000000000E+00 0.  1.
         11    1    3    3    0    0 -0.38676027441E+02 -0.84298585027E+01 -0.27937051353E+01  0.39682520102E+02  0.51100000000E-03 0. -1.
        -11    1    3    3    0    0 -0.25508751215E+01  0.19563496431E+01 -0.63214667045E+01  0.70919115454E+01  0.51100000000E-03 0.  1.
        -12    1    3    3    0    0  0.41807916864E+02  0.71671329774E+01  0.83572222193E+01  0.43233238033E+02  0.00000000000E+00 0.  1.
</event>
<event>
 7    1  0.1756449E-015  0.9000768E+02  0.7816164E-02  0.1186339E+00
        -11   -1    0    0    0    0  0.00000000000E+00  0.00000000000E+00  0.45593999997E+02  0.45594000000E+02  0.51100000000E-03 0. -1.
         11   -1    0    0    0    0 -0.00000000000E+00 -0.00000000000E+00 -0.45593999997E+02  0.45594000000E+02  0.51100000000E-03 0.  1.
    9900012    2    1    2    0    0 -0.32374398146E+00  0.98972180735E+00 -0.55569309731E+00  0.90007680450E+02  0.89999941032E+02 0.  0.
        -12    1    1    2    0    0  0.32374398146E+00 -0.98972180735E+00  0.55569309731E+00  0.11803195499E+01  0.00000000000E+00 0.  1.
         11    1    3    3    0    0  0.12907459302E+02  0.38102668937E+02  0.91643934122E+01  0.41260174414E+02  0.51100000000E-03 0. -1.
        -11    1    3    3    0    0  0.19548067354E+01 -0.19529423191E+01 -0.10074437404E+02  0.10446508620E+02  0.51100000000E-03 0.  1.
        -12    1    3    3    0    0 -0.15186010019E+02 -0.35160004811E+02  0.35435089438E+00  0.38300997417E+02  0.00000000000E+00 0.  1.
</event>
<event>
 7    1  0.1756449E-015  0.9000766E+02  0.7816164E-02  0.1186339E+00
        -11   -1    0    0    0    0  0.00000000000E+00  0.00000000000E+00  0.45593999997E+02  0.45594000000E+02  0.51100000000E-03 0.  1.
         11   -1    0    0    0    0 -0.00000000000E+00 -0.00000000000E+00 -0.45593999997E+02  0.45594000000E+02  0.51100000000E-03 0. -1.
    9900012    2    1    2    0    0 -0.10992768392E+01 -0.18977912611E+00 -0.38570834633E+00  0.90007662500E+02  0.89999922845E+02 0.  0.
        -12    1    1    2    0    0  0.10992768392E+01  0.18977912611E+00  0.38570834633E+00  0.11803375002E+01  0.00000000000E+00 0.  1.
         11    1    3    3    0    0  0.53910847562E+01  0.29312872305E+02 -0.23751121848E+02  0.38110681796E+02  0.51100000000E-03 0. -1.
        -11    1    3    3    0    0 -0.46929785429E-01 -0.12482136395E+02 -0.85691792434E+01  0.15140566850E+02  0.51100000000E-03 0.  1.
        -12    1    3    3    0    0 -0.64434318100E+01 -0.17020515037E+02  0.31934592745E+02  0.36756413854E+02  0.00000000000E+00 0.  1.
</event>
<event>
 7    1  0.1756449E-015  0.9000772E+02  0.7816164E-02  0.1186339E+00
        -11   -1    0    0    0    0  0.00000000000E+00  0.00000000000E+00  0.45593999997E+02  0.45594000000E+02  0.51100000000E-03 0.  1.
         11   -1    0    0    0    0 -0.00000000000E+00 -0.00000000000E+00 -0.45593999997E+02  0.45594000000E+02  0.51100000000E-03 0. -1.
    9900012    2    1    2    0    0 -0.24765496558E+00 -0.65444678014E+00  0.95049047443E+00  0.90007717952E+02  0.89999979029E+02 0.  0.
        -12    1    1    2    0    0  0.24765496558E+00  0.65444678014E+00 -0.95049047443E+00  0.11802820476E+01  0.00000000000E+00 0.  1.
         11    1    3    3    0    0  0.32710719376E+02 -0.21127965434E+02 -0.12850738781E+02  0.41006384539E+02  0.51100000000E-03 0. -1.
        -11    1    3    3    0    0 -0.55263618681E+01 -0.60890596728E+00 -0.67620106382E+01  0.87542121351E+01  0.51100000000E-03 0.  1.
        -12    1    3    3    0    0 -0.27432012473E+02  0.21082424621E+02  0.20563239894E+02  0.40247121278E+02  0.00000000000E+00 0.  1.
</event>
<event>
 7    1  0.1756449E-015  0.9000777E+02  0.7816164E-02  0.1186339E+00
        -11   -1    0    0    0    0  0.00000000000E+00  0.00000000000E+00  0.45593999997E+02  0.45594000000E+02  0.51100000000E-03 0. -1.
         11   -1    0    0    0    0 -0.00000000000E+00 -0.00000000000E+00 -0.45593999997E+02  0.45594000000E+02  0.51100000000E-03 0.  1.
    9900012    2    1    2    0    0 -0.11468175714E+01  0.26662068962E+00 -0.81692483891E-01  0.90007766635E+02  0.90000028354E+02 0.  0.
        -12    1    1    2    0    0  0.11468175714E+01 -0.26662068962E+00  0.81692483891E-01  0.11802333651E+01  0.00000000000E+00 0.  1.
         11    1    3    3    0    0 -0.12610265582E+01 -0.84226138582E+01  0.23332336783E+00  0.85196861586E+01  0.51100000000E-03 0. -1.
        -11    1    3    3    0    0  0.64390133214E+01 -0.28401647126E+02 -0.23387644618E+02  0.37350988916E+02  0.51100000000E-03 0.  1.
         12    1    3    3    0    0 -0.63248043347E+01  0.37090881673E+02  0.23072628766E+02  0.44137091560E+02  0.00000000000E+00 0. -1.
</event>
<event>
 7    1  0.1756449E-015  0.9000768E+02  0.7816164E-02  0.1186339E+00
        -11   -1    0    0    0    0  0.00000000000E+00  0.00000000000E+00  0.45593999997E+02  0.45594000000E+02  0.51100000000E-03 0.  1.
         11   -1    0    0    0    0 -0.00000000000E+00 -0.00000000000E+00 -0.45593999997E+02  0.45594000000E+02  0.51100000000E-03 0. -1.
    9900012    2    1    2    0    0  0.30284419186E+00 -0.94975206765E+00 -0.63198117342E+00  0.90007684873E+02  0.89999945514E+02 0.  0.
        -12    1    1    2    0    0 -0.30284419186E+00  0.94975206765E+00  0.63198117342E+00  0.11803151266E+01  0.00000000000E+00 0.  1.
         11    1    3    3    0    0 -0.28720576426E+02  0.69350115561E+01  0.24266503736E+02  0.38233873716E+02  0.51100000000E-03 0. -1.
        -11    1    3    3    0    0 -0.42541096724E+01  0.75614568712E+01 -0.40298220543E+01  0.95662189589E+01  0.51100000000E-03 0.  1.
        -12    1    3    3    0    0  0.33277530290E+02 -0.15446220495E+02 -0.20868662855E+02  0.42207592198E+02  0.00000000000E+00 0.  1.
</event>
<event>
 7    1  0.1756449E-015  0.9000774E+02  0.7816164E-02  0.1186339E+00
        -11   -1    0    0    0    0  0.00000000000E+00  0.00000000000E+00  0.45593999997E+02  0.45594000000E+02  0.51100000000E-03 0.  1.
         11   -1    0    0    0    0 -0.00000000000E+00 -0.00000000000E+00 -0.45593999997E+02  0.45594000000E+02  0.51100000000E-03 0. -1.
    9900012    2    1    2    0    0 -0.17839025089E+00 -0.11075004581E+01 -0.36692126934E+00  0.90007740891E+02  0.90000002271E+02 0.  0.
        -12    1    1    2    0    0  0.17839025089E+00  0.11075004581E+01  0.36692126934E+00  0.11802591089E+01  0.00000000000E+00 0.  1.
         11    1    3    3    0    0  0.32770379765E+02 -0.68405910267E+01 -0.18359142765E+02  0.38180487148E+02  0.51100000000E-03 0. -1.
        -11    1    3    3    0    0  0.37938416859E+01 -0.81733105482E+01  0.11535331636E+01  0.90844305862E+01  0.51100000000E-03 0.  1.
        -12    1    3    3    0    0 -0.36742611702E+02  0.13906401117E+02  0.16838688332E+02  0.42742823157E+02  0.00000000000E+00 0.  1.
</event>
<event>
 7    1  0.1756449E-015  0.9000718E+02  0.7816164E-02  0.1186340E+00
        -11   -1    0    0    0    0  0.00000000000E+00  0.00000000000E+00  0.45593999997E+02  0.45594000000E+02  0.51100000000E-03 0. -1.
         11   -1    0    0    0    0 -0.00000000000E+00 -0.00000000000E+00 -0.45593999997E+02  0.45594000000E+02  0.51100000000E-03 0.  1.
    9900012    2    1    2    0    0 -0.35349632720E+00  0.10200218779E+01 -0.47847818540E+00  0.90007175856E+02  0.89999429776E+02 0.  0.
        -12    1    1    2    0    0  0.35349632720E+00 -0.10200218779E+01  0.47847818540E+00  0.11808241438E+01  0.00000000000E+00 0.  1.
         11    1    3    3    0    0  0.26618000478E+02 -0.12707372763E+02 -0.26735274847E+02  0.39809172227E+02  0.51100000000E-03 0. -1.
        -11    1    3    3    0    0 -0.41699392680E+01 -0.91222957998E+01  0.31976490938E+01  0.10527565442E+02  0.51100000000E-03 0.  1.
        -12    1    3    3    0    0 -0.22801557537E+02  0.22849690441E+02  0.23059147568E+02  0.39670438187E+02  0.00000000000E+00 0.  1.
</event>
<event>
 7    1  0.1756449E-015  0.9000748E+02  0.7816164E-02  0.1186340E+00
        -11   -1    0    0    0    0  0.00000000000E+00  0.00000000000E+00  0.45593999997E+02  0.45594000000E+02  0.51100000000E-03 0. -1.
         11   -1    0    0    0    0 -0.00000000000E+00 -0.00000000000E+00 -0.45593999997E+02  0.45594000000E+02  0.51100000000E-03 0.  1.
    9900012    2    1    2    0    0  0.66378284184E+00 -0.23867462550E+00  0.94660461950E+00  0.90007477428E+02  0.89999735329E+02 0.  0.
        -12    1    1    2    0    0 -0.66378284184E+00  0.23867462550E+00 -0.94660461950E+00  0.11805225723E+01  0.00000000000E+00 0.  1.
         11    1    3    3    0    0  0.10655363077E+02  0.13748550269E+02  0.32171851994E+02  0.36573042775E+02  0.51100000000E-03 0. -1.
        -11    1    3    3    0    0  0.60629463493E+01 -0.15038278853E+01  0.74596425471E+01  0.97297011226E+01  0.51100000000E-03 0.  1.
        -12    1    3    3    0    0 -0.16054526585E+02 -0.12483397010E+02 -0.38684889921E+02  0.43704733531E+02  0.00000000000E+00 0.  1.
</event>
<event>
 7    1  0.1756449E-015  0.9000777E+02  0.7816164E-02  0.1186339E+00
        -11   -1    0    0    0    0  0.00000000000E+00  0.00000000000E+00  0.45593999997E+02  0.45594000000E+02  0.51100000000E-03 0. -1.
         11   -1    0    0    0    0 -0.00000000000E+00 -0.00000000000E+00 -0.45593999997E+02  0.45594000000E+02  0.51100000000E-03 0.  1.
    9900012    2    1    2    0    0 -0.10993449659E+01 -0.18552411715E+00 -0.38723771209E+00  0.90007774768E+02  0.90000036595E+02 0.  0.
        -12    1    1    2    0    0  0.10993449659E+01  0.18552411715E+00  0.38723771209E+00  0.11802252318E+01  0.00000000000E+00 0.  1.
         11    1    3    3    0    0  0.36663044706E+01 -0.11797291247E+02 -0.20757252803E+01  0.12527030970E+02  0.51100000000E-03 0. -1.
        -11    1    3    3    0    0  0.20867248755E+02 -0.17666333929E+02 -0.19110181313E+02  0.33357764541E+02  0.51100000000E-03 0.  1.
         12    1    3    3    0    0 -0.25632898191E+02  0.29278101059E+02  0.20798668881E+02  0.44122979257E+02  0.00000000000E+00 0. -1.
</event>
<event>
 7    1  0.1756449E-015  0.9000777E+02  0.7816164E-02  0.1186339E+00
        -11   -1    0    0    0    0  0.00000000000E+00  0.00000000000E+00  0.45593999997E+02  0.45594000000E+02  0.51100000000E-03 0.  1.
         11   -1    0    0    0    0 -0.00000000000E+00 -0.00000000000E+00 -0.45593999997E+02  0.45594000000E+02  0.51100000000E-03 0. -1.
    9900012    2    1    2    0    0  0.71407336089E-01 -0.10492922821E+01  0.53555435887E+00  0.90007774694E+02  0.90000036520E+02 0.  0.
        -12    1    1    2    0    0 -0.71407336089E-01  0.10492922821E+01 -0.53555435887E+00  0.11802253057E+01  0.00000000000E+00 0.  1.
         11    1    3    3    0    0  0.35632982469E+01 -0.32164259425E+01  0.72427152711E+01  0.86890399354E+01  0.51100000000E-03 0. -1.
        -11    1    3    3    0    0 -0.13388632474E+02 -0.30906370554E+02  0.18635038893E+02  0.38493166863E+02  0.51100000000E-03 0.  1.
         12    1    3    3    0    0  0.98967415635E+01  0.33073504215E+02 -0.25342199805E+02  0.42825567896E+02  0.00000000000E+00 0. -1.
</event>
<event>
 7    1  0.1756449E-015  0.9000772E+02  0.7816164E-02  0.1186339E+00
        -11   -1    0    0    0    0  0.00000000000E+00  0.00000000000E+00  0.45593999997E+02  0.45594000000E+02  0.51100000000E-03 0. -1.
         11   -1    0    0    0    0 -0.00000000000E+00 -0.00000000000E+00 -0.45593999997E+02  0.45594000000E+02  0.51100000000E-03 0.  1.
    9900012    2    1    2    0    0  0.52472688469E+00  0.41662845484E+00  0.97166567003E+00  0.90007723868E+02  0.89999985023E+02 0.  0.
        -12    1    1    2    0    0 -0.52472688469E+00 -0.41662845484E+00 -0.97166567003E+00  0.11802761318E+01  0.00000000000E+00 0.  1.
         11    1    3    3    0    0  0.47208310824E+01  0.44343507713E+01  0.16305364883E+01  0.66789491967E+01  0.51100000000E-03 0. -1.
        -11    1    3    3    0    0  0.13209159467E+02  0.41695309068E+01 -0.38480194367E+02  0.40897337817E+02  0.51100000000E-03 0.  1.
         12    1    3    3    0    0 -0.17405263664E+02 -0.81872532233E+01  0.37821323548E+02  0.42431436854E+02  0.00000000000E+00 0. -1.
</event>
<event>
 7    1  0.1756449E-015  0.9000768E+02  0.7816164E-02  0.1186339E+00
        -11   -1    0    0    0    0  0.00000000000E+00  0.00000000000E+00  0.45593999997E+02  0.45594000000E+02  0.51100000000E-03 0. -1.
         11   -1    0    0    0    0 -0.00000000000E+00 -0.00000000000E+00 -0.45593999997E+02  0.45594000000E+02  0.51100000000E-03 0.  1.
    9900012    2    1    2    0    0  0.40122196267E-01  0.95819253073E+00  0.68804440452E+00  0.90007683170E+02  0.89999943788E+02 0.  0.
        -12    1    1    2    0    0 -0.40122196267E-01 -0.95819253073E+00 -0.68804440452E+00  0.11803168300E+01  0.00000000000E+00 0.  1.
         11    1    3    3    0    0 -0.38592414236E+02  0.13037618946E+02  0.58621362812E+01  0.41154812433E+02  0.51100000000E-03 0. -1.
        -11    1    3    3    0    0 -0.90596421358E+00  0.14446842815E+01 -0.68229910197E+01  0.70328579216E+01  0.51100000000E-03 0.  1.
        -12    1    3    3    0    0  0.39538500646E+02 -0.13524110697E+02  0.16488991430E+01  0.41820012815E+02  0.00000000000E+00 0.  1.
</event>
<event>
 7    1  0.1756449E-015  0.9000755E+02  0.7816164E-02  0.1186339E+00
        -11   -1    0    0    0    0  0.00000000000E+00  0.00000000000E+00  0.45593999997E+02  0.45594000000E+02  0.51100000000E-03 0.  1.
         11   -1    0    0    0    0 -0.00000000000E+00 -0.00000000000E+00 -0.45593999997E+02  0.45594000000E+02  0.51100000000E-03 0. -1.
    9900012    2    1    2    0    0  0.64126533091E+00  0.44692819805E-01 -0.99006928543E+00  0.90007552685E+02  0.89999811581E+02 0.  0.
        -12    1    1    2    0    0 -0.64126533091E+00 -0.44692819805E-01  0.99006928543E+00  0.11804473147E+01  0.00000000000E+00 0.  1.
         11    1    3    3    0    0 -0.56772606714E+01 -0.25591100580E+01  0.26876088513E+01  0.67825935024E+01  0.51100000000E-03 0. -1.
        -11    1    3    3    0    0 -0.21969893359E+02 -0.48160926840E+00 -0.34734825126E+02  0.41102508908E+02  0.51100000000E-03 0.  1.
         12    1    3    3    0    0  0.28288419361E+02  0.30854121462E+01  0.31057146989E+02  0.42122450275E+02  0.00000000000E+00 0. -1.
</event>
<event>
 7    1  0.1756449E-015  0.9000779E+02  0.7816164E-02  0.1186339E+00
        -11   -1    0    0    0    0  0.00000000000E+00  0.00000000000E+00  0.45593999997E+02  0.45594000000E+02  0.51100000000E-03 0.  1.
         11   -1    0    0    0    0 -0.00000000000E+00 -0.00000000000E+00 -0.45593999997E+02  0.45594000000E+02  0.51100000000E-03 0. -1.
    9900012    2    1    2    0    0 -0.50276692765E+00  0.10613085660E+01  0.11727029948E+00  0.90007786977E+02  0.90000048965E+02 0.  0.
        -12    1    1    2    0    0  0.50276692765E+00 -0.10613085660E+01 -0.11727029948E+00  0.11802130227E+01  0.00000000000E+00 0.  1.
         11    1    3    3    0    0 -0.89434903000E+01  0.72512479983E+01  0.64548756080E+01  0.13199698317E+02  0.51100000000E-03 0. -1.
        -11    1    3    3    0    0 -0.28399675864E+02 -0.22101409768E+02 -0.70582163202E+01  0.36671955509E+02  0.51100000000E-03 0.  1.
         12    1    3    3    0    0  0.36840399237E+02  0.15911470336E+02  0.72061101172E+00  0.40136133152E+02  0.00000000000E+00 0. -1.
</event>
<event>
 7    1  0.1756449E-015  0.9000766E+02  0.7816164E-02  0.1186339E+00
        -11   -1    0    0    0    0  0.00000000000E+00  0.00000000000E+00  0.45593999997E+02  0.45594000000E+02  0.51100000000E-03 0. -1.
         11   -1    0    0    0    0 -0.00000000000E+00 -0.00000000000E+00 -0.45593999997E+02  0.45594000000E+02  0.51100000000E-03 0.  1.
    9900012    2    1    2    0    0  0.37052793529E+00  0.10043938235E+01  0.49710795698E+00  0.90007655040E+02  0.89999915287E+02 0.  0.
        -12    1    1    2    0    0 -0.37052793529E+00 -0.10043938235E+01 -0.49710795698E+00  0.11803449599E+01  0.00000000000E+00 0.  1.
         11    1    3    3    0    0 -0.12546403616E+01  0.99663199377E+01 -0.43464361090E+01  0.10945006288E+02  0.51100000000E-03 0. -1.
        -11    1    3    3    0    0 -0.19485881195E+02  0.20456227939E+02 -0.20465249902E+02  0.34885287461E+02  0.51100000000E-03 0.  1.
         12    1    3    3    0    0  0.21111049492E+02 -0.29418154053E+02  0.25308793968E+02  0.44177361291E+02  0.00000000000E+00 0. -1.
</event>
<event>
 7    1  0.1756449E-015  0.9000762E+02  0.7816164E-02  0.1186339E+00
        -11   -1    0    0    0    0  0.00000000000E+00  0.00000000000E+00  0.45593999997E+02  0.45594000000E+02  0.51100000000E-03 0.  1.
         11   -1    0    0    0    0 -0.00000000000E+00 -0.00000000000E+00 -0.45593999997E+02  0.45594000000E+02  0.51100000000E-03 0. -1.
    9900012    2    1    2    0    0  0.36802408773E+00 -0.11163553095E+01  0.10773226091E+00  0.90007619914E+02  0.89999879697E+02 0.  0.
        -12    1    1    2    0    0 -0.36802408773E+00  0.11163553095E+01 -0.10773226091E+00  0.11803800855E+01  0.00000000000E+00 0.  1.
         11    1    3    3    0    0 -0.21213221469E+02 -0.33581457911E+02 -0.11953821477E+01  0.39738445104E+02  0.51100000000E-03 0. -1.
        -11    1    3    3    0    0 -0.68727722416E+01  0.41164614130E+01  0.57456278717E+01  0.98586252972E+01  0.51100000000E-03 0.  1.
        -12    1    3    3    0    0  0.28454017798E+02  0.28348641189E+02 -0.44425134631E+01  0.40410549513E+02  0.00000000000E+00 0.  1.
</event>
<event>
 7    1  0.1756449E-015  0.9000781E+02  0.7816164E-02  0.1186339E+00
        -11   -1    0    0    0    0  0.00000000000E+00  0.00000000000E+00  0.45593999997E+02  0.45594000000E+02  0.51100000000E-03 0.  1.
         11   -1    0    0    0    0 -0.00000000000E+00 -0.00000000000E+00 -0.45593999997E+02  0.45594000000E+02  0.51100000000E-03 0. -1.
    9900012    2    1    2    0    0 -0.11663387369E+01 -0.17846283717E+00 -0.25785059191E-01  0.90007805142E+02  0.90000067370E+02 0.  0.
        -12    1    1    2    0    0  0.11663387369E+01  0.17846283717E+00  0.25785059191E-01  0.11801948580E+01  0.00000000000E+00 0.  1.
         11    1    3    3    0    0 -0.16163164606E+01  0.59952750864E+01  0.86700523441E+01  0.10664221030E+02  0.51100000000E-03 0. -1.
        -11    1    3    3    0    0  0.15792799834E+02  0.21710035466E+02  0.22313131547E+02  0.34908652312E+02  0.51100000000E-03 0.  1.
         12    1    3    3    0    0 -0.15342822110E+02 -0.27883773390E+02 -0.31008968951E+02  0.44434931800E+02  0.00000000000E+00 0. -1.
</event>
<event>
 7    1  0.1756449E-015  0.9000771E+02  0.7816164E-02  0.1186339E+00
        -11   -1    0    0    0    0  0.00000000000E+00  0.00000000000E+00  0.45593999997E+02  0.45594000000E+02  0.51100000000E-03 0. -1.
         11   -1    0    0    0    0 -0.00000000000E+00 -0.00000000000E+00 -0.45593999997E+02  0.45594000000E+02  0.51100000000E-03 0.  1.
    9900012    2    1    2    0    0  0.10141349555E+01  0.52996781723E+00 -0.28940211517E+00  0.90007708011E+02  0.89999968957E+02 0.  0.
        -12    1    1    2    0    0 -0.10141349555E+01 -0.52996781723E+00  0.28940211517E+00  0.11802919891E+01  0.00000000000E+00 0.  1.
         11    1    3    3    0    0  0.48550351074E+01 -0.22448446386E+01 -0.11824043366E+02  0.12977622861E+02  0.51100000000E-03 0. -1.
        -11    1    3    3    0    0  0.31055833559E+02 -0.93689618181E+01 -0.10394928249E+02  0.34063129292E+02  0.51100000000E-03 0.  1.
         12    1    3    3    0    0 -0.34896733710E+02  0.12143774274E+02  0.21929569500E+02  0.42966955858E+02  0.00000000000E+00 0. -1.
</event>
<event>
 7    1  0.1756449E-015  0.9000776E+02  0.7816164E-02  0.1186339E+00
        -11   -1    0    0    0    0  0.00000000000E+00  0.00000000000E+00  0.45593999997E+02  0.45594000000E+02  0.51100000000E-03 0.  1.
         11   -1    0    0    0    0 -0.00000000000E+00 -0.00000000000E+00 -0.45593999997E+02  0.45594000000E+02  0.51100000000E-03 0. -1.
    9900012    2    1    2    0    0 -0.58646652621E+00  0.10204557968E+01  0.87719187376E-01  0.90007759484E+02  0.90000021109E+02 0.  0.
        -12    1    1    2    0    0  0.58646652621E+00 -0.10204557968E+01 -0.87719187376E-01  0.11802405160E+01  0.00000000000E+00 0.  1.
         11    1    3    3    0    0 -0.81548309364E+01 -0.20694887219E+01  0.57162592333E+01  0.10171512722E+02  0.51100000000E-03 0. -1.
        -11    1    3    3    0    0 -0.12272418490E+02 -0.22524506804E+02  0.24588449829E+02  0.35532485525E+02  0.51100000000E-03 0.  1.
         12    1    3    3    0    0  0.19840782901E+02  0.25614451323E+02 -0.30216989874E+02  0.44303761237E+02  0.00000000000E+00 0. -1.
</event>
<event>
 7    1  0.1756449E-015  0.9000760E+02  0.7816164E-02  0.1186339E+00
        -11   -1    0    0    0    0  0.00000000000E+00  0.00000000000E+00  0.45593999997E+02  0.45594000000E+02  0.51100000000E-03 0. -1.
         11   -1    0    0    0    0 -0.00000000000E+00 -0.00000000000E+00 -0.45593999997E+02  0.45594000000E+02  0.51100000000E-03 0.  1.
    9900012    2    1    2    0    0 -0.14845513759E-01  0.11293840666E+01 -0.34293607653E+00  0.90007604341E+02  0.89999863918E+02 0.  0.
        -12    1    1    2    0    0  0.14845513759E-01 -0.11293840666E+01  0.34293607653E+00  0.11803956590E+01  0.00000000000E+00 0.  1.
         11    1    3    3    0    0  0.13531625312E+02 -0.46149166190E+00  0.32763587697E+02  0.35450959609E+02  0.51100000000E-03 0. -1.
        -11    1    3    3    0    0  0.34207532259E+01 -0.50444800220E+01  0.77280142907E+01  0.98422830920E+01  0.51100000000E-03 0.  1.
        -12    1    3    3    0    0 -0.16967224052E+02  0.66353557505E+01 -0.40834538064E+02  0.44714361640E+02  0.00000000000E+00 0.  1.
</event>
<event>
 7    1  0.1756449E-015  0.9000861E+02  0.7816164E-02  0.1186337E+00
        -11   -1    0    0    0    0  0.00000000000E+00  0.00000000000E+00  0.45593999997E+02  0.45594000000E+02  0.51100000000E-03 0. -1.
         11   -1    0    0    0    0 -0.00000000000E+00 -0.00000000000E+00 -0.45593999997E+02  0.45594000000E+02  0.51100000000E-03 0.  1.
    9900012    2    1    2    0    0  0.18997488753E-01  0.11727914273E+01  0.12312536614E+00  0.90008610119E+02  0.90000882968E+02 0.  0.
        -12    1    1    2    0    0 -0.18997488753E-01 -0.11727914273E+01 -0.12312536614E+00  0.11793898814E+01  0.00000000000E+00 0.  1.
         11    1    3    3    0    0  0.18119416455E+02 -0.15072518010E+02  0.69499877183E+01  0.24572268544E+02  0.51100000000E-03 0. -1.
        -11    1    3    3    0    0  0.20781381892E+02 -0.14985231685E+01 -0.88780006955E+01  0.22647964624E+02  0.51100000000E-03 0.  1.
        -12    1    3    3    0    0 -0.38881800858E+02  0.17743832606E+02  0.20511383433E+01  0.42788376950E+02  0.00000000000E+00 0.  1.
</event>
<event>
 7    1  0.1756449E-015  0.9000775E+02  0.7816164E-02  0.1186339E+00
        -11   -1    0    0    0    0  0.00000000000E+00  0.00000000000E+00  0.45593999997E+02  0.45594000000E+02  0.51100000000E-03 0.  1.
         11   -1    0    0    0    0 -0.00000000000E+00 -0.00000000000E+00 -0.45593999997E+02  0.45594000000E+02  0.51100000000E-03 0. -1.
    9900012    2    1    2    0    0  0.15469572180E+00 -0.50225798731E-01 -0.11689896081E+01  0.90007749984E+02  0.90000011483E+02 0.  0.
        -12    1    1    2    0    0 -0.15469572180E+00  0.50225798731E-01  0.11689896081E+01  0.11802500163E+01  0.00000000000E+00 0.  1.
         11    1    3    3    0    0 -0.65340382753E+01  0.89994457970E+01  0.13858965484E+02  0.17769485231E+02  0.51100000000E-03 0. -1.
        -11    1    3    3    0    0 -0.14446552440E+02  0.25341811882E+02 -0.12668746782E+02  0.31802632787E+02  0.51100000000E-03 0.  1.
         12    1    3    3    0    0  0.21135286437E+02 -0.34391483478E+02 -0.23592083104E+01  0.40435631966E+02  0.00000000000E+00 0. -1.
</event>
<event>
 7    1  0.1756449E-015  0.9000775E+02  0.7816164E-02  0.1186339E+00
        -11   -1    0    0    0    0  0.00000000000E+00  0.00000000000E+00  0.45593999997E+02  0.45594000000E+02  0.51100000000E-03 0.  1.
         11   -1    0    0    0    0 -0.00000000000E+00 -0.00000000000E+00 -0.45593999997E+02  0.45594000000E+02  0.51100000000E-03 0. -1.
    9900012    2    1    2    0    0  0.10199199748E+01  0.47774413923E+00  0.35286475274E+00  0.90007750132E+02  0.90000011634E+02 0.  0.
        -12    1    1    2    0    0 -0.10199199748E+01 -0.47774413923E+00 -0.35286475274E+00  0.11802498682E+01  0.00000000000E+00 0.  1.
         11    1    3    3    0    0  0.15918007167E+02  0.24343734502E+02 -0.32117295981E+02  0.43330371139E+02  0.51100000000E-03 0. -1.
        -11    1    3    3    0    0 -0.33766418979E+01  0.22342299581E+01  0.84972105798E+01  0.94125491717E+01  0.51100000000E-03 0.  1.
        -12    1    3    3    0    0 -0.11521445295E+02 -0.26100220321E+02  0.23972950154E+02  0.37264829821E+02  0.00000000000E+00 0.  1.
</event>
<event>
 7    1  0.1756449E-015  0.9000775E+02  0.7816164E-02  0.1186339E+00
        -11   -1    0    0    0    0  0.00000000000E+00  0.00000000000E+00  0.45593999997E+02  0.45594000000E+02  0.51100000000E-03 0.  1.
         11   -1    0    0    0    0 -0.00000000000E+00 -0.00000000000E+00 -0.45593999997E+02  0.45594000000E+02  0.51100000000E-03 0. -1.
    9900012    2    1    2    0    0  0.27603457520E+00  0.37293889729E+00 -0.10852252689E+01  0.90007749013E+02  0.90000010500E+02 0.  0.
        -12    1    1    2    0    0 -0.27603457520E+00 -0.37293889729E+00  0.10852252689E+01  0.11802509869E+01  0.00000000000E+00 0.  1.
         11    1    3    3    0    0  0.17024048085E+02 -0.22313976055E+02  0.22999449743E+02  0.36286449665E+02  0.51100000000E-03 0. -1.
        -11    1    3    3    0    0  0.45987421597E+01 -0.79135166743E+01  0.28523159368E+00  0.91571574699E+01  0.51100000000E-03 0.  1.
        -12    1    3    3    0    0 -0.21346755669E+02  0.30600431626E+02 -0.24369906606E+02  0.44564141878E+02  0.00000000000E+00 0.  1.
</event>
<event>
 7    1  0.1756449E-015  0.9000794E+02  0.7816164E-02  0.1186339E+00
        -11   -1    0    0    0    0  0.00000000000E+00  0.00000000000E+00  0.45593999997E+02  0.45594000000E+02  0.51100000000E-03 0. -1.
         11   -1    0    0    0    0 -0.00000000000E+00 -0.00000000000E+00 -0.45593999997E+02  0.45594000000E+02  0.51100000000E-03 0.  1.
    9900012    2    1    2    0    0  0.15244305488E+00  0.64672573672E+00  0.97521133470E+00  0.90007944827E+02  0.90000208899E+02 0.  0.
        -12    1    1    2    0    0 -0.15244305488E+00 -0.64672573672E+00 -0.97521133470E+00  0.11800551728E+01  0.00000000000E+00 0.  1.
         11    1    3    3    0    0  0.79092862091E+01  0.50487917814E+01  0.13888375614E+00  0.93843697577E+01  0.51100000000E-03 0. -1.
        -11    1    3    3    0    0 -0.34772752561E+02 -0.13658471486E+02 -0.22615052060E+02  0.43670799671E+02  0.51100000000E-03 0.  1.
         12    1    3    3    0    0  0.27015909406E+02  0.92564054411E+01  0.23451379638E+02  0.36952775399E+02  0.00000000000E+00 0. -1.
</event>
<event>
 7    1  0.1756449E-015  0.9000777E+02  0.7816164E-02  0.1186339E+00
        -11   -1    0    0    0    0  0.00000000000E+00  0.00000000000E+00  0.45593999997E+02  0.45594000000E+02  0.51100000000E-03 0.  1.
         11   -1    0    0    0    0 -0.00000000000E+00 -0.00000000000E+00 -0.45593999997E+02  0.45594000000E+02  0.51100000000E-03 0. -1.
    9900012    2    1    2    0    0  0.36945479788E+00  0.35189797923E-01 -0.11203618541E+01  0.90007768729E+02  0.90000030476E+02 0.  0.
        -12    1    1    2    0    0 -0.36945479788E+00 -0.35189797923E-01  0.11203618541E+01  0.11802312713E+01  0.00000000000E+00 0.  1.
         11    1    3    3    0    0  0.38450353912E+02  0.24202497525E+01  0.16074105074E+02  0.41745229416E+02  0.51100000000E-03 0. -1.
        -11    1    3    3    0    0  0.35852538744E+00  0.57642730835E+01 -0.27644707919E+01  0.64029433587E+01  0.51100000000E-03 0.  1.
        -12    1    3    3    0    0 -0.38439424501E+02 -0.81493330380E+01 -0.14429996136E+02  0.41859595954E+02  0.00000000000E+00 0.  1.
</event>
<event>
 7    1  0.1756449E-015  0.9000772E+02  0.7816164E-02  0.1186339E+00
        -11   -1    0    0    0    0  0.00000000000E+00  0.00000000000E+00  0.45593999997E+02  0.45594000000E+02  0.51100000000E-03 0.  1.
         11   -1    0    0    0    0 -0.00000000000E+00 -0.00000000000E+00 -0.45593999997E+02  0.45594000000E+02  0.51100000000E-03 0. -1.
    9900012    2    1    2    0    0 -0.74815369906E+00 -0.57070852145E+00 -0.71246631304E+00  0.90007724430E+02  0.89999985592E+02 0.  0.
        -12    1    1    2    0    0  0.74815369906E+00  0.57070852145E+00  0.71246631304E+00  0.11802755700E+01  0.00000000000E+00 0.  1.
         11    1    3    3    0    0 -0.32981545204E+01 -0.25568527112E+02 -0.33335536670E+02  0.42141255406E+02  0.51100000000E-03 0. -1.
        -11    1    3    3    0    0 -0.59341432756E+01  0.47246011665E+01 -0.10486686144E+01  0.76573898112E+01  0.51100000000E-03 0.  1.
        -12    1    3    3    0    0  0.84841440969E+01  0.20273217424E+02  0.33671738971E+02  0.40209079212E+02  0.00000000000E+00 0.  1.
</event>
<event>
 7    1  0.1756449E-015  0.9000777E+02  0.7816164E-02  0.1186339E+00
        -11   -1    0    0    0    0  0.00000000000E+00  0.00000000000E+00  0.45593999997E+02  0.45594000000E+02  0.51100000000E-03 0. -1.
         11   -1    0    0    0    0 -0.00000000000E+00 -0.00000000000E+00 -0.45593999997E+02  0.45594000000E+02  0.51100000000E-03 0.  1.
    9900012    2    1    2    0    0  0.58815757856E+00  0.99765380203E+00 -0.22736211718E+00  0.90007772912E+02  0.90000034715E+02 0.  0.
        -12    1    1    2    0    0 -0.58815757856E+00 -0.99765380203E+00  0.22736211718E+00  0.11802270876E+01  0.00000000000E+00 0.  1.
         11    1    3    3    0    0 -0.45301713929E+01 -0.57424621908E+01  0.70855474431E+01  0.10183482101E+02  0.51100000000E-03 0. -1.
        -11    1    3    3    0    0  0.29156154060E+02 -0.99268082698E+01 -0.29855572790E+02  0.42894965542E+02  0.51100000000E-03 0.  1.
         12    1    3    3    0    0 -0.24037825088E+02  0.16666924263E+02  0.22542663230E+02  0.36929325269E+02  0.00000000000E+00 0. -1.
</event>
<event>
 7    1  0.1756449E-015  0.9000780E+02  0.7816164E-02  0.1186339E+00
        -11   -1    0    0    0    0  0.00000000000E+00  0.00000000000E+00  0.45593999997E+02  0.45594000000E+02  0.51100000000E-03 0.  1.
         11   -1    0    0    0    0 -0.00000000000E+00 -0.00000000000E+00 -0.45593999997E+02  0.45594000000E+02  0.51100000000E-03 0. -1.
    9900012    2    1    2    0    0 -0.11503754933E+01  0.10411417897E+00  0.24220881140E+00  0.90007801438E+02  0.90000063617E+02 0.  0.
        -12    1    1    2    0    0  0.11503754933E+01 -0.10411417897E+00 -0.24220881140E+00  0.11801985622E+01  0.00000000000E+00 0.  1.
         11    1    3    3    0    0  0.24533266207E+01 -0.76839838306E+01 -0.51710521339E+01  0.95813464320E+01  0.51100000000E-03 0. -1.
        -11    1    3    3    0    0  0.28403715951E+02 -0.19611299344E+02  0.14308563595E+02  0.37364543811E+02  0.51100000000E-03 0.  1.
         12    1    3    3    0    0 -0.32007418065E+02  0.27399397354E+02 -0.88953026501E+01  0.43061911195E+02  0.00000000000E+00 0. -1.
</event>
<event>
 7    1  0.1756449E-015  0.9000778E+02  0.7816164E-02  0.1186339E+00
        -11   -1    0    0    0    0  0.00000000000E+00  0.00000000000E+00  0.45593999997E+02  0.45594000000E+02  0.51100000000E-03 0. -1.
         11   -1    0    0    0    0 -0.00000000000E+00 -0.00000000000E+00 -0.45593999997E+02  0.45594000000E+02  0.51100000000E-03 0.  1.
    9900012    2    1    2    0    0  0.11396542021E+01 -0.20999494069E+00  0.22363352418E+00  0.90007779034E+02  0.90000040917E+02 0.  0.
        -12    1    1    2    0    0 -0.11396542021E+01  0.20999494069E+00 -0.22363352418E+00  0.11802209660E+01  0.00000000000E+00 0.  1.
         11    1    3    3    0    0 -0.23980080276E+02 -0.15916758326E+02 -0.26813846363E+02  0.39336621648E+02  0.51100000000E-03 0. -1.
        -11    1    3    3    0    0  0.12795789850E+01 -0.81524086241E+01  0.97398760654E+01  0.12765746151E+02  0.51100000000E-03 0.  1.
        -12    1    3    3    0    0  0.23840155493E+02  0.23859172010E+02  0.17297603822E+02  0.37905411235E+02  0.00000000000E+00 0.  1.
</event>
<event>
 7    1  0.1756449E-015  0.9000768E+02  0.7816164E-02  0.1186339E+00
        -11   -1    0    0    0    0  0.00000000000E+00  0.00000000000E+00  0.45593999997E+02  0.45594000000E+02  0.51100000000E-03 0. -1.
         11   -1    0    0    0    0 -0.00000000000E+00 -0.00000000000E+00 -0.45593999997E+02  0.45594000000E+02  0.51100000000E-03 0.  1.
    9900012    2    1    2    0    0 -0.11581653796E+01  0.96947685682E-01  0.20592403887E+00  0.90007681988E+02  0.89999942590E+02 0.  0.
        -12    1    1    2    0    0  0.11581653796E+01 -0.96947685682E-01 -0.20592403887E+00  0.11803180122E+01  0.00000000000E+00 0.  1.
         11    1    3    3    0    0 -0.20022386515E+01 -0.97014218001E+00 -0.75694079837E+01  0.78896180486E+01  0.51100000000E-03 0. -1.
        -11    1    3    3    0    0  0.31736219965E+02  0.87399766438E+01 -0.21134526786E+02  0.39118321438E+02  0.51100000000E-03 0.  1.
         12    1    3    3    0    0 -0.30892146693E+02 -0.76728867781E+01  0.28909858809E+02  0.42999742501E+02  0.00000000000E+00 0. -1.
</event>
<event>
 7    1  0.1756449E-015  0.9000773E+02  0.7816164E-02  0.1186339E+00
        -11   -1    0    0    0    0  0.00000000000E+00  0.00000000000E+00  0.45593999997E+02  0.45594000000E+02  0.51100000000E-03 0.  1.
         11   -1    0    0    0    0 -0.00000000000E+00 -0.00000000000E+00 -0.45593999997E+02  0.45594000000E+02  0.51100000000E-03 0. -1.
    9900012    2    1    2    0    0  0.11784997698E+01  0.29244735961E-03  0.64697743545E-01  0.90007725629E+02  0.89999986807E+02 0.  0.
        -12    1    1    2    0    0 -0.11784997698E+01 -0.29244735961E-03 -0.64697743545E-01  0.11802743711E+01  0.00000000000E+00 0.  1.
         11    1    3    3    0    0 -0.22501607254E+01 -0.92442519830E+01 -0.11833842099E+02  0.15184177196E+02  0.51100000000E-03 0. -1.
        -11    1    3    3    0    0 -0.26915699121E+02  0.10014259803E+02 -0.16614326792E+02  0.33177946193E+02  0.51100000000E-03 0.  1.
         12    1    3    3    0    0  0.30344359616E+02 -0.76971537310E+00  0.28512866634E+02  0.41645602241E+02  0.00000000000E+00 0. -1.
</event>
<event>
 7    1  0.1756449E-015  0.9000782E+02  0.7816164E-02  0.1186339E+00
        -11   -1    0    0    0    0  0.00000000000E+00  0.00000000000E+00  0.45593999997E+02  0.45594000000E+02  0.51100000000E-03 0. -1.
         11   -1    0    0    0    0 -0.00000000000E+00 -0.00000000000E+00 -0.45593999997E+02  0.45594000000E+02  0.51100000000E-03 0.  1.
    9900012    2    1    2    0    0  0.38988528540E+00  0.10253314029E+01  0.43533637478E+00  0.90007816633E+02  0.90000079012E+02 0.  0.
        -12    1    1    2    0    0 -0.38988528540E+00 -0.10253314029E+01 -0.43533637478E+00  0.11801833674E+01  0.00000000000E+00 0.  1.
         11    1    3    3    0    0 -0.35225047457E+01 -0.82387961235E+01  0.13665788480E+01  0.90638479278E+01  0.51100000000E-03 0. -1.
        -11    1    3    3    0    0  0.36277441833E+02  0.28703262272E+01 -0.21305731814E+02  0.42169014300E+02  0.51100000000E-03 0.  1.
         12    1    3    3    0    0 -0.32365051802E+02  0.63938012992E+01  0.20374489341E+02  0.38774954405E+02  0.00000000000E+00 0. -1.
</event>
<event>
 7    1  0.1756449E-015  0.9000730E+02  0.7816164E-02  0.1186340E+00
        -11   -1    0    0    0    0  0.00000000000E+00  0.00000000000E+00  0.45593999997E+02  0.45594000000E+02  0.51100000000E-03 0. -1.
         11   -1    0    0    0    0 -0.00000000000E+00 -0.00000000000E+00 -0.45593999997E+02  0.45594000000E+02  0.51100000000E-03 0.  1.
    9900012    2    1    2    0    0  0.91123271475E+00  0.57657229926E-01  0.74858806303E+00  0.90007299570E+02  0.89999555124E+02 0.  0.
        -12    1    1    2    0    0 -0.91123271475E+00 -0.57657229926E-01 -0.74858806303E+00  0.11807004297E+01  0.00000000000E+00 0.  1.
         11    1    3    3    0    0 -0.58064562216E+01 -0.71973117339E+01  0.34767029025E+01  0.98794581523E+01  0.51100000000E-03 0. -1.
        -11    1    3    3    0    0  0.79996971358E+01 -0.11616538143E+02  0.35103518885E+02  0.37831153182E+02  0.51100000000E-03 0.  1.
         12    1    3    3    0    0 -0.12820081994E+01  0.18871507107E+02 -0.37831633724E+02  0.42296688236E+02  0.00000000000E+00 0. -1.
</event>
<event>
 7    1  0.1756449E-015  0.9000765E+02  0.7816164E-02  0.1186339E+00
        -11   -1    0    0    0    0  0.00000000000E+00  0.00000000000E+00  0.45593999997E+02  0.45594000000E+02  0.51100000000E-03 0. -1.
         11   -1    0    0    0    0 -0.00000000000E+00 -0.00000000000E+00 -0.45593999997E+02  0.45594000000E+02  0.51100000000E-03 0.  1.
    9900012    2    1    2    0    0  0.22870562590E+00 -0.10073947127E+00  0.11535919786E+01  0.90007648714E+02  0.89999908877E+02 0.  0.
        -12    1    1    2    0    0 -0.22870562590E+00  0.10073947127E+00 -0.11535919786E+01  0.11803512856E+01  0.00000000000E+00 0.  1.
         11    1    3    3    0    0  0.19751775533E+02  0.30629063759E+02  0.21007117325E+02  0.42066271073E+02  0.51100000000E-03 0. -1.
        -11    1    3    3    0    0 -0.90551215446E+01  0.18773340093E+01 -0.26672167739E+01  0.96246379023E+01  0.51100000000E-03 0.  1.
        -12    1    3    3    0    0 -0.10467948362E+02 -0.32607137240E+02 -0.17186308572E+02  0.38316739739E+02  0.00000000000E+00 0.  1.
</event>
<event>
 7    1  0.1756449E-015  0.9000787E+02  0.7816164E-02  0.1186339E+00
        -11   -1    0    0    0    0  0.00000000000E+00  0.00000000000E+00  0.45593999997E+02  0.45594000000E+02  0.51100000000E-03 0.  1.
         11   -1    0    0    0    0 -0.00000000000E+00 -0.00000000000E+00 -0.45593999997E+02  0.45594000000E+02  0.51100000000E-03 0. -1.
    9900012    2    1    2    0    0 -0.20024018280E+00  0.97014816803E+00  0.64141842391E+00  0.90007872383E+02  0.90000135498E+02 0.  0.
        -12    1    1    2    0    0  0.20024018280E+00 -0.97014816803E+00 -0.64141842391E+00  0.11801276174E+01  0.00000000000E+00 0.  1.
         11    1    3    3    0    0  0.20581342704E+02  0.29405863344E+02 -0.42033534157E+01  0.36138132861E+02  0.51100000000E-03 0. -1.
        -11    1    3    3    0    0 -0.67140998228E+01 -0.27821071226E+01 -0.16249541033E+02  0.17800753931E+02  0.51100000000E-03 0.  1.
        -12    1    3    3    0    0 -0.14067483064E+02 -0.25653608053E+02  0.21094312873E+02  0.36068985590E+02  0.00000000000E+00 0.  1.
</event>
<event>
 7    1  0.1756449E-015  0.9000772E+02  0.7816164E-02  0.1186339E+00
        -11   -1    0    0    0    0  0.00000000000E+00  0.00000000000E+00  0.45593999997E+02  0.45594000000E+02  0.51100000000E-03 0. -1.
         11   -1    0    0    0    0 -0.00000000000E+00 -0.00000000000E+00 -0.45593999997E+02  0.45594000000E+02  0.51100000000E-03 0.  1.
    9900012    2    1    2    0    0  0.10613535793E+01  0.29586657024E+00 -0.42314412074E+00  0.90007720629E+02  0.89999981741E+02 0.  0.
        -12    1    1    2    0    0 -0.10613535793E+01 -0.29586657024E+00  0.42314412074E+00  0.11802793714E+01  0.00000000000E+00 0.  1.
         11    1    3    3    0    0  0.31959167524E+00  0.16871679462E+01  0.91394962442E+01  0.92994121522E+01  0.51100000000E-03 0. -1.
        -11    1    3    3    0    0  0.37802893094E+02 -0.79607897581E+01  0.75483495492E+01  0.39362551759E+02  0.51100000000E-03 0.  1.
         12    1    3    3    0    0 -0.37061131190E+02  0.65694883822E+01 -0.17110989914E+02  0.41345756717E+02  0.00000000000E+00 0. -1.
</event>
<event>
 7    1  0.1756449E-015  0.9000775E+02  0.7816164E-02  0.1186339E+00
        -11   -1    0    0    0    0  0.00000000000E+00  0.00000000000E+00  0.45593999997E+02  0.45594000000E+02  0.51100000000E-03 0.  1.
         11   -1    0    0    0    0 -0.00000000000E+00 -0.00000000000E+00 -0.45593999997E+02  0.45594000000E+02  0.51100000000E-03 0. -1.
    9900012    2    1    2    0    0  0.72090636059E+00  0.90029118469E+00  0.25054069976E+00  0.90007745434E+02  0.90000006874E+02 0.  0.
        -12    1    1    2    0    0 -0.72090636059E+00 -0.90029118469E+00 -0.25054069976E+00  0.11802545659E+01  0.00000000000E+00 0.  1.
         11    1    3    3    0    0 -0.48166608611E+01 -0.78919781124E+01 -0.30607039394E+02  0.31973026149E+02  0.51100000000E-03 0. -1.
        -11    1    3    3    0    0 -0.52420109797E+01 -0.97802414991E+01 -0.79716363215E+01  0.13663044639E+02  0.51100000000E-03 0.  1.
        -12    1    3    3    0    0  0.10779578201E+02  0.18572510796E+02  0.38829216416E+02  0.44371674646E+02  0.00000000000E+00 0.  1.
</event>
<event>
 7    1  0.1756449E-015  0.9000784E+02  0.7816164E-02  0.1186339E+00
        -11   -1    0    0    0    0  0.00000000000E+00  0.00000000000E+00  0.45593999997E+02  0.45594000000E+02  0.51100000000E-03 0. -1.
         11   -1    0    0    0    0 -0.00000000000E+00 -0.00000000000E+00 -0.45593999997E+02  0.45594000000E+02  0.51100000000E-03 0.  1.
    9900012    2    1    2    0    0  0.11448426174E+01  0.20405534769E+00 -0.20116534170E+00  0.90007842935E+02  0.90000105662E+02 0.  0.
        -12    1    1    2    0    0 -0.11448426174E+01 -0.20405534769E+00  0.20116534170E+00  0.11801570651E+01  0.00000000000E+00 0.  1.
         11    1    3    3    0    0 -0.20806352004E+02 -0.24576092205E+02  0.17473820931E+02  0.36636361855E+02  0.51100000000E-03 0. -1.
        -11    1    3    3    0    0 -0.70644588159E+01 -0.11603081342E+00  0.52410956590E+01  0.87971089273E+01  0.51100000000E-03 0.  1.
        -12    1    3    3    0    0  0.29015653438E+02  0.24896178367E+02 -0.22916081932E+02  0.44574372152E+02  0.00000000000E+00 0.  1.
</event>
<event>
 7    1  0.1756449E-015  0.9000794E+02  0.7816164E-02  0.1186339E+00
        -11   -1    0    0    0    0  0.00000000000E+00  0.00000000000E+00  0.45593999997E+02  0.45594000000E+02  0.51100000000E-03 0.  1.
         11   -1    0    0    0    0 -0.00000000000E+00 -0.00000000000E+00 -0.45593999997E+02  0.45594000000E+02  0.51100000000E-03 0. -1.
    9900012    2    1    2    0    0  0.40174375435E+00  0.91360706880E+00 -0.62965585839E+00  0.90007939654E+02  0.90000203657E+02 0.  0.
        -12    1    1    2    0    0 -0.40174375435E+00 -0.91360706880E+00  0.62965585839E+00  0.11800603461E+01  0.00000000000E+00 0.  1.
         11    1    3    3    0    0 -0.15399510537E+02  0.34191885929E+02 -0.28435553420E+00  0.37500811278E+02  0.51100000000E-03 0. -1.
        -11    1    3    3    0    0 -0.81300625910E+01  0.28738194247E+01 -0.28438787705E+01  0.90798900071E+01  0.51100000000E-03 0.  1.
        -12    1    3    3    0    0  0.23931316882E+02 -0.36152098285E+02  0.24985784463E+01  0.43427238369E+02  0.00000000000E+00 0.  1.
</event>
<event>
 7    1  0.1756449E-015  0.9000784E+02  0.7816164E-02  0.1186339E+00
        -11   -1    0    0    0    0  0.00000000000E+00  0.00000000000E+00  0.45593999997E+02  0.45594000000E+02  0.51100000000E-03 0.  1.
         11   -1    0    0    0    0 -0.00000000000E+00 -0.00000000000E+00 -0.45593999997E+02  0.45594000000E+02  0.51100000000E-03 0. -1.
    9900012    2    1    2    0    0 -0.96560176184E+00  0.14792159187E+00 -0.66219332303E+00  0.90007844266E+02  0.90000107010E+02 0.  0.
        -12    1    1    2    0    0  0.96560176184E+00 -0.14792159187E+00  0.66219332303E+00  0.11801557342E+01  0.00000000000E+00 0.  1.
         11    1    3    3    0    0 -0.43165404686E+01 -0.24215803840E+01 -0.36998179081E+02  0.37327762172E+02  0.51100000000E-03 0. -1.
        -11    1    3    3    0    0  0.80374043056E+00 -0.84970868143E+01 -0.49460765402E+01  0.98645910413E+01  0.51100000000E-03 0.  1.
        -12    1    3    3    0    0  0.25471982762E+01  0.11066588790E+02  0.41282062298E+02  0.42815491053E+02  0.00000000000E+00 0.  1.
</event>
<event>
 7    1  0.1756449E-015  0.9000774E+02  0.7816164E-02  0.1186339E+00
        -11   -1    0    0    0    0  0.00000000000E+00  0.00000000000E+00  0.45593999997E+02  0.45594000000E+02  0.51100000000E-03 0. -1.
         11   -1    0    0    0    0 -0.00000000000E+00 -0.00000000000E+00 -0.45593999997E+02  0.45594000000E+02  0.51100000000E-03 0.  1.
    9900012    2    1    2    0    0 -0.11220986186E+01  0.33751076519E+00 -0.14136687980E+00  0.90007744341E+02  0.90000005766E+02 0.  0.
        -12    1    1    2    0    0  0.11220986186E+01 -0.33751076519E+00  0.14136687980E+00  0.11802556592E+01  0.00000000000E+00 0.  1.
         11    1    3    3    0    0 -0.52061327729E+01 -0.86092125645E+01  0.31664226079E+01  0.10547444801E+02  0.51100000000E-03 0. -1.
        -11    1    3    3    0    0 -0.32207728061E+02 -0.23856394001E+01 -0.19946369217E+02  0.37959012993E+02  0.51100000000E-03 0.  1.
         12    1    3    3    0    0  0.36291762215E+02  0.11332362730E+02  0.16638579729E+02  0.41501286548E+02  0.00000000000E+00 0. -1.
</event>
<event>
 7    1  0.1756449E-015  0.9000766E+02  0.7816164E-02  0.1186339E+00
        -11   -1    0    0    0    0  0.00000000000E+00  0.00000000000E+00  0.45593999997E+02  0.45594000000E+02  0.51100000000E-03 0.  1.
         11   -1    0    0    0    0 -0.00000000000E+00 -0.00000000000E+00 -0.45593999997E+02  0.45594000000E+02  0.51100000000E-03 0. -1.
    9900012    2    1    2    0    0 -0.41592607132E+00  0.10296901718E+01 -0.39994517272E+00  0.90007655776E+02  0.89999916032E+02 0.  0.
        -12    1    1    2    0    0  0.41592607132E+00 -0.10296901718E+01  0.39994517272E+00  0.11803442243E+01  0.00000000000E+00 0.  1.
         11    1    3    3    0    0 -0.30652526965E+01  0.56712435495E+01  0.83375832741E+01  0.10539168497E+02  0.51100000000E-03 0. -1.
        -11    1    3    3    0    0  0.15176808330E+02 -0.58125056334E+01  0.32509337821E+02  0.36345257994E+02  0.51100000000E-03 0.  1.
         12    1    3    3    0    0 -0.12527481705E+02  0.11709522557E+01 -0.41246866268E+02  0.43123229285E+02  0.00000000000E+00 0. -1.
</event>
<event>
 7    1  0.1756449E-015  0.9000771E+02  0.7816164E-02  0.1186339E+00
        -11   -1    0    0    0    0  0.00000000000E+00  0.00000000000E+00  0.45593999997E+02  0.45594000000E+02  0.51100000000E-03 0.  1.
         11   -1    0    0    0    0 -0.00000000000E+00 -0.00000000000E+00 -0.45593999997E+02  0.45594000000E+02  0.51100000000E-03 0. -1.
    9900012    2    1    2    0    0  0.85711815284E+00  0.79678009119E+00 -0.15355867914E+00  0.90007707532E+02  0.89999968472E+02 0.  0.
        -12    1    1    2    0    0 -0.85711815284E+00 -0.79678009119E+00  0.15355867914E+00  0.11802924678E+01  0.00000000000E+00 0.  1.
         11    1    3    3    0    0 -0.41596543854E+01 -0.56178495820E+01 -0.37176870796E+02  0.37828331724E+02  0.51100000000E-03 0. -1.
        -11    1    3    3    0    0 -0.58695137796E+01 -0.63293228132E+01 -0.27167482473E+01  0.90494331637E+01  0.51100000000E-03 0.  1.
        -12    1    3    3    0    0  0.10886286318E+02  0.12743952486E+02  0.39740060364E+02  0.43129942645E+02  0.00000000000E+00 0.  1.
</event>
<event>
 7    1  0.1756449E-015  0.9000774E+02  0.7816164E-02  0.1186339E+00
        -11   -1    0    0    0    0  0.00000000000E+00  0.00000000000E+00  0.45593999997E+02  0.45594000000E+02  0.51100000000E-03 0.  1.
         11   -1    0    0    0    0 -0.00000000000E+00 -0.00000000000E+00 -0.45593999997E+02  0.45594000000E+02  0.51100000000E-03 0. -1.
    9900012    2    1    2    0    0 -0.73744719378E+00  0.17289475662E+00 -0.90515417758E+00  0.90007735180E+02  0.89999996484E+02 0.  0.
        -12    1    1    2    0    0  0.73744719378E+00 -0.17289475662E+00  0.90515417758E+00  0.11802648201E+01  0.00000000000E+00 0.  1.
         11    1    3    3    0    0 -0.24099129626E+02 -0.19972282123E+02 -0.21891941212E+02  0.38195774533E+02  0.51100000000E-03 0. -1.
        -11    1    3    3    0    0  0.26549234033E+01 -0.55257395621E+01 -0.64586605633E+01  0.89048701574E+01  0.51100000000E-03 0.  1.
        -12    1    3    3    0    0  0.20706759029E+02  0.25670916441E+02  0.27445447597E+02  0.42907090489E+02  0.00000000000E+00 0.  1.
</event>
<event>
 7    1  0.1756449E-015  0.9000776E+02  0.7816164E-02  0.1186339E+00
        -11   -1    0    0    0    0  0.00000000000E+00  0.00000000000E+00  0.45593999997E+02  0.45594000000E+02  0.51100000000E-03 0. -1.
         11   -1    0    0    0    0 -0.00000000000E+00 -0.00000000000E+00 -0.45593999997E+02  0.45594000000E+02  0.51100000000E-03 0.  1.
    9900012    2    1    2    0    0  0.60259751741E+00 -0.53357408773E+00  0.86322110233E+00  0.90007756065E+02  0.90000017645E+02 0.  0.
        -12    1    1    2    0    0 -0.60259751741E+00  0.53357408773E+00 -0.86322110233E+00  0.11802439352E+01  0.00000000000E+00 0.  1.
         11    1    3    3    0    0  0.18939201546E+02 -0.23045959638E+02  0.14570137105E+02  0.33197869003E+02  0.51100000000E-03 0. -1.
        -11    1    3    3    0    0  0.63719585634E+01 -0.11282736981E+02 -0.58393938420E+01  0.14212689064E+02  0.51100000000E-03 0.  1.
        -12    1    3    3    0    0 -0.24708562592E+02  0.33795122532E+02 -0.78675221605E+01  0.42597197998E+02  0.00000000000E+00 0.  1.
</event>
<event>
 7    1  0.1756449E-015  0.9000769E+02  0.7816164E-02  0.1186339E+00
        -11   -1    0    0    0    0  0.00000000000E+00  0.00000000000E+00  0.45593999997E+02  0.45594000000E+02  0.51100000000E-03 0. -1.
         11   -1    0    0    0    0 -0.00000000000E+00 -0.00000000000E+00 -0.45593999997E+02  0.45594000000E+02  0.51100000000E-03 0.  1.
    9900012    2    1    2    0    0 -0.41063939219E-01  0.55897229221E+00  0.10387512859E+01  0.90007686269E+02  0.89999946927E+02 0.  0.
        -12    1    1    2    0    0  0.41063939219E-01 -0.55897229221E+00 -0.10387512859E+01  0.11803137314E+01  0.00000000000E+00 0.  1.
         11    1    3    3    0    0  0.10658784302E+02  0.56333792227E+01 -0.83504945983E+01  0.14665449347E+02  0.51100000000E-03 0.  1.
        -11    1    3    3    0    0  0.11062455284E+02  0.27634851547E+02  0.18453583425E+02  0.35022816540E+02  0.51100000000E-03 0. -1.
        -12    1    3    3    0    0 -0.21762303525E+02 -0.32709258477E+02 -0.90643375408E+01  0.40319420381E+02  0.00000000000E+00 0.  1.
</event>
<event>
 7    1  0.1756449E-015  0.9000780E+02  0.7816164E-02  0.1186339E+00
        -11   -1    0    0    0    0  0.00000000000E+00  0.00000000000E+00  0.45593999997E+02  0.45594000000E+02  0.51100000000E-03 0. -1.
         11   -1    0    0    0    0 -0.00000000000E+00 -0.00000000000E+00 -0.45593999997E+02  0.45594000000E+02  0.51100000000E-03 0.  1.
    9900012    2    1    2    0    0 -0.15098627969E+00 -0.11107440785E+01  0.36920812841E+00  0.90007803446E+02  0.90000065651E+02 0.  0.
        -12    1    1    2    0    0  0.15098627969E+00  0.11107440785E+01 -0.36920812841E+00  0.11801965542E+01  0.00000000000E+00 0.  1.
         11    1    3    3    0    0 -0.48738632000E+01  0.18388726601E+02  0.33093707324E+02  0.38171891140E+02  0.51100000000E-03 0. -1.
        -11    1    3    3    0    0  0.37352956754E+01 -0.33108029565E+01  0.71896461556E+01  0.87524203569E+01  0.51100000000E-03 0.  1.
        -12    1    3    3    0    0  0.98758124500E+00 -0.16188667723E+02 -0.39914145352E+02  0.43083491949E+02  0.00000000000E+00 0.  1.
</event>
<event>
 7    1  0.1756449E-015  0.9000776E+02  0.7816164E-02  0.1186339E+00
        -11   -1    0    0    0    0  0.00000000000E+00  0.00000000000E+00  0.45593999997E+02  0.45594000000E+02  0.51100000000E-03 0. -1.
         11   -1    0    0    0    0 -0.00000000000E+00 -0.00000000000E+00 -0.45593999997E+02  0.45594000000E+02  0.51100000000E-03 0.  1.
    9900012    2    1    2    0    0 -0.59045427458E+00  0.10187926270E+01  0.79888015453E-01  0.90007764107E+02  0.90000025794E+02 0.  0.
        -12    1    1    2    0    0  0.59045427458E+00 -0.10187926270E+01 -0.79888015453E-01  0.11802358926E+01  0.00000000000E+00 0.  1.
         11    1    3    3    0    0  0.23685990109E+02 -0.92029099614E+01  0.31050474097E+02  0.40122956285E+02  0.51100000000E-03 0. -1.
        -11    1    3    3    0    0  0.16702655107E+01 -0.73856757768E+01 -0.42258441864E+01  0.86715484722E+01  0.51100000000E-03 0.  1.
        -12    1    3    3    0    0 -0.25946709894E+02  0.17607378365E+02 -0.26744741895E+02  0.41213259350E+02  0.00000000000E+00 0.  1.
</event>
<event>
 7    1  0.1756449E-015  0.9000808E+02  0.7816164E-02  0.1186338E+00
        -11   -1    0    0    0    0  0.00000000000E+00  0.00000000000E+00  0.45593999997E+02  0.45594000000E+02  0.51100000000E-03 0. -1.
         11   -1    0    0    0    0 -0.00000000000E+00 -0.00000000000E+00 -0.45593999997E+02  0.45594000000E+02  0.51100000000E-03 0.  1.
    9900012    2    1    2    0    0 -0.68067599935E+00  0.41310130452E+00  0.87076849591E+00  0.90008080394E+02  0.90000346254E+02 0.  0.
        -12    1    1    2    0    0  0.68067599935E+00 -0.41310130452E+00 -0.87076849591E+00  0.11799196063E+01  0.00000000000E+00 0.  1.
         11    1    3    3    0    0  0.61726125793E+01  0.65160931536E+01  0.52716603920E+00  0.89910244319E+01  0.51100000000E-03 0. -1.
        -11    1    3    3    0    0 -0.31884793350E+02  0.19533284582E+02 -0.17157921581E+02  0.41141020001E+02  0.51100000000E-03 0.  1.
         12    1    3    3    0    0  0.25031504771E+02 -0.25636276431E+02  0.17501524037E+02  0.39876035961E+02  0.00000000000E+00 0. -1.
</event>
<event>
 7    1  0.1756449E-015  0.9000771E+02  0.7816164E-02  0.1186339E+00
        -11   -1    0    0    0    0  0.00000000000E+00  0.00000000000E+00  0.45593999997E+02  0.45594000000E+02  0.51100000000E-03 0.  1.
         11   -1    0    0    0    0 -0.00000000000E+00 -0.00000000000E+00 -0.45593999997E+02  0.45594000000E+02  0.51100000000E-03 0. -1.
    9900012    2    1    2    0    0 -0.22310030101E+00  0.28015711070E+00 -0.11246481483E+01  0.90007705457E+02  0.89999966369E+02 0.  0.
        -12    1    1    2    0    0  0.22310030101E+00 -0.28015711070E+00  0.11246481483E+01  0.11802945431E+01  0.00000000000E+00 0.  1.
         11    1    3    3    0    0 -0.40203631385E+01 -0.26689742385E+01 -0.87253450387E+01  0.99708770706E+01  0.51100000000E-03 0. -1.
        -11    1    3    3    0    0 -0.19854661984E+01 -0.30830474643E+02 -0.19336367501E+02  0.36446609597E+02  0.51100000000E-03 0.  1.
         12    1    3    3    0    0  0.57827290359E+01  0.33779605992E+02  0.26937064391E+02  0.43590218789E+02  0.00000000000E+00 0. -1.
</event>
<event>
 7    1  0.2004519E-015  0.9000783E+02  0.7816164E-02  0.1186339E+00
        -11   -1    0    0    0    0  0.00000000000E+00  0.00000000000E+00  0.45593999997E+02  0.45594000000E+02  0.51100000000E-03 0. -1.
         11   -1    0    0    0    0 -0.00000000000E+00 -0.00000000000E+00 -0.45593999997E+02  0.45594000000E+02  0.51100000000E-03 0.  1.
    9900012    2    1    2    0    0 -0.67059850734E+00  0.73986995454E+00  0.62904486328E+00  0.90007827408E+02  0.90000089929E+02 0.  0.
        -12    1    1    2    0    0  0.67059850734E+00 -0.73986995454E+00 -0.62904486328E+00  0.11801725923E+01  0.00000000000E+00 0.  1.
         11    1    3    3    0    0 -0.71091495991E+01  0.62360321153E+01 -0.44645527177E+01  0.10457549225E+02  0.51100000000E-03 0. -1.
        -11    1    3    3    0    0  0.15492727747E+02  0.11427220702E+02 -0.32252420528E+02  0.37560945358E+02  0.51100000000E-03 0.  1.
         12    1    3    3    0    0 -0.90541766554E+01 -0.16923382863E+02  0.37346018109E+02  0.41989332824E+02  0.00000000000E+00 0. -1.
</event>
<event>
 7    1  0.1756449E-015  0.9000817E+02  0.7816164E-02  0.1186338E+00
        -11   -1    0    0    0    0  0.00000000000E+00  0.00000000000E+00  0.45593999997E+02  0.45594000000E+02  0.51100000000E-03 0. -1.
         11   -1    0    0    0    0 -0.00000000000E+00 -0.00000000000E+00 -0.45593999997E+02  0.45594000000E+02  0.51100000000E-03 0.  1.
    9900012    2    1    2    0    0 -0.74397781186E+00 -0.76965848295E+00  0.49611679317E+00  0.90008165674E+02  0.90000432660E+02 0.  0.
        -12    1    1    2    0    0  0.74397781186E+00  0.76965848295E+00 -0.49611679317E+00  0.11798343262E+01  0.00000000000E+00 0.  1.
         11    1    3    3    0    0 -0.45762723331E+01  0.34427847186E+02  0.27035111172E+02  0.44012681885E+02  0.51100000000E-03 0. -1.
        -11    1    3    3    0    0  0.20805295293E+01 -0.11341912658E+01 -0.53243681083E+01  0.58278545764E+01  0.51100000000E-03 0.  1.
        -12    1    3    3    0    0  0.17517649919E+01 -0.34063314404E+02 -0.21214626271E+02  0.40167629212E+02  0.00000000000E+00 0.  1.
</event>
<event>
 7    1  0.1756449E-015  0.9000778E+02  0.7816164E-02  0.1186339E+00
        -11   -1    0    0    0    0  0.00000000000E+00  0.00000000000E+00  0.45593999997E+02  0.45594000000E+02  0.51100000000E-03 0.  1.
         11   -1    0    0    0    0 -0.00000000000E+00 -0.00000000000E+00 -0.45593999997E+02  0.45594000000E+02  0.51100000000E-03 0. -1.
    9900012    2    1    2    0    0  0.89890350708E+00  0.76231620273E+00  0.61369121379E-01  0.90007779818E+02  0.90000041712E+02 0.  0.
        -12    1    1    2    0    0 -0.89890350708E+00 -0.76231620273E+00 -0.61369121379E-01  0.11802201816E+01  0.00000000000E+00 0.  1.
         11    1    3    3    0    0 -0.22575682739E+02 -0.19692731753E+02 -0.20139825891E+02  0.36098167852E+02  0.51100000000E-03 0. -1.
        -11    1    3    3    0    0 -0.67657839093E+01 -0.62288517077E+01  0.10270365641E+01  0.92536063169E+01  0.51100000000E-03 0.  1.
        -12    1    3    3    0    0  0.30240370156E+02  0.26683899664E+02  0.19174158448E+02  0.44656005650E+02  0.00000000000E+00 0.  1.
</event>
<event>
 7    1  0.1756449E-015  0.9000774E+02  0.7816164E-02  0.1186339E+00
        -11   -1    0    0    0    0  0.00000000000E+00  0.00000000000E+00  0.45593999997E+02  0.45594000000E+02  0.51100000000E-03 0.  1.
         11   -1    0    0    0    0 -0.00000000000E+00 -0.00000000000E+00 -0.45593999997E+02  0.45594000000E+02  0.51100000000E-03 0. -1.
    9900012    2    1    2    0    0  0.58711433148E-01  0.59084496644E+00 -0.10200372072E+01  0.90007737016E+02  0.89999998345E+02 0.  0.
        -12    1    1    2    0    0 -0.58711433148E-01 -0.59084496644E+00  0.10200372072E+01  0.11802629837E+01  0.00000000000E+00 0.  1.
         11    1    3    3    0    0 -0.38164945596E+01  0.93171124628E+01 -0.23207481040E+01  0.10332477311E+02  0.51100000000E-03 0. -1.
        -11    1    3    3    0    0  0.43709657390E-01 -0.17512196753E+02  0.37948711434E+02  0.41794540857E+02  0.51100000000E-03 0.  1.
         12    1    3    3    0    0  0.38314963354E+01  0.87859292568E+01 -0.36648000537E+02  0.37880718848E+02  0.00000000000E+00 0. -1.
</event>
<event>
 7    1  0.1756449E-015  0.9000724E+02  0.7816164E-02  0.1186340E+00
        -11   -1    0    0    0    0  0.00000000000E+00  0.00000000000E+00  0.45593999997E+02  0.45594000000E+02  0.51100000000E-03 0. -1.
         11   -1    0    0    0    0 -0.00000000000E+00 -0.00000000000E+00 -0.45593999997E+02  0.45594000000E+02  0.51100000000E-03 0.  1.
    9900012    2    1    2    0    0  0.11386411080E+01 -0.11908515171E+00  0.28897050960E+00  0.90007242277E+02  0.89999497073E+02 0.  0.
        -12    1    1    2    0    0 -0.11386411080E+01  0.11908515171E+00 -0.28897050960E+00  0.11807577235E+01  0.00000000000E+00 0.  1.
         11    1    3    3    0    0 -0.34192330556E+01 -0.46651687426E+01 -0.20386365242E+01  0.61327802198E+01  0.51100000000E-03 0. -1.
        -11    1    3    3    0    0  0.21334533652E+02  0.30347624606E+02 -0.23315677700E+02  0.43815082702E+02  0.51100000000E-03 0.  1.
         12    1    3    3    0    0 -0.16776659488E+02 -0.25801541015E+02  0.25643284733E+02  0.40059379354E+02  0.00000000000E+00 0. -1.
</event>
<event>
 7    1  0.1756449E-015  0.9000765E+02  0.7816164E-02  0.1186339E+00
        -11   -1    0    0    0    0  0.00000000000E+00  0.00000000000E+00  0.45593999997E+02  0.45594000000E+02  0.51100000000E-03 0. -1.
         11   -1    0    0    0    0 -0.00000000000E+00 -0.00000000000E+00 -0.45593999997E+02  0.45594000000E+02  0.51100000000E-03 0.  1.
    9900012    2    1    2    0    0 -0.88906477053E-01 -0.88946751320E+00  0.77082716239E+00  0.90007647793E+02  0.89999907944E+02 0.  0.
        -12    1    1    2    0    0  0.88906477053E-01  0.88946751320E+00 -0.77082716239E+00  0.11803522072E+01  0.00000000000E+00 0.  1.
         11    1    3    3    0    0 -0.11641826647E+02  0.31820341747E+02 -0.76363442547E+01  0.34732981882E+02  0.51100000000E-03 0. -1.
        -11    1    3    3    0    0  0.13101665734E+01  0.81050984053E+01 -0.66663399105E+01  0.10575880326E+02  0.51100000000E-03 0.  1.
        -12    1    3    3    0    0  0.10242753597E+02 -0.40814907666E+02  0.15073511328E+02  0.44698785585E+02  0.00000000000E+00 0.  1.
</event>
<event>
 7    1  0.1756449E-015  0.9000749E+02  0.7816164E-02  0.1186340E+00
        -11   -1    0    0    0    0  0.00000000000E+00  0.00000000000E+00  0.45593999997E+02  0.45594000000E+02  0.51100000000E-03 0.  1.
         11   -1    0    0    0    0 -0.00000000000E+00 -0.00000000000E+00 -0.45593999997E+02  0.45594000000E+02  0.51100000000E-03 0. -1.
    9900012    2    1    2    0    0 -0.10516973100E+01 -0.37498956005E+00  0.38330230182E+00  0.90007489493E+02  0.89999747554E+02 0.  0.
        -12    1    1    2    0    0  0.10516973100E+01  0.37498956005E+00 -0.38330230182E+00  0.11805105067E+01  0.00000000000E+00 0.  1.
         11    1    3    3    0    0  0.62624611316E+01  0.46177460923E+01 -0.48878807371E+01  0.91887636143E+01  0.51100000000E-03 0. -1.
        -11    1    3    3    0    0  0.26979078818E+02 -0.21150270396E+02  0.20524904824E+02  0.39955930098E+02  0.51100000000E-03 0.  1.
         12    1    3    3    0    0 -0.34293237260E+02  0.16157534743E+02 -0.15253721785E+02  0.40862795781E+02  0.00000000000E+00 0. -1.
</event>
<event>
 7    1  0.1756449E-015  0.9000795E+02  0.7816164E-02  0.1186339E+00
        -11   -1    0    0    0    0  0.00000000000E+00  0.00000000000E+00  0.45593999997E+02  0.45594000000E+02  0.51100000000E-03 0.  1.
         11   -1    0    0    0    0 -0.00000000000E+00 -0.00000000000E+00 -0.45593999997E+02  0.45594000000E+02  0.51100000000E-03 0. -1.
    9900012    2    1    2    0    0 -0.47552440331E+00 -0.85521495078E+00 -0.65954505185E+00  0.90007950956E+02  0.90000215109E+02 0.  0.
        -12    1    1    2    0    0  0.47552440331E+00  0.85521495078E+00  0.65954505185E+00  0.11800490437E+01  0.00000000000E+00 0.  1.
         11    1    3    3    0    0 -0.95029586822E+01  0.87872702082E-01  0.23370443347E+01  0.97865071303E+01  0.51100000000E-03 0. -1.
        -11    1    3    3    0    0 -0.24563571295E+02 -0.81864286337E+01 -0.27687506422E+02  0.37907580517E+02  0.51100000000E-03 0.  1.
         12    1    3    3    0    0  0.33591005574E+02  0.72433409809E+01  0.24690917036E+02  0.42313863309E+02  0.00000000000E+00 0. -1.
</event>
<event>
 7    1  0.1756449E-015  0.9000759E+02  0.7816164E-02  0.1186339E+00
        -11   -1    0    0    0    0  0.00000000000E+00  0.00000000000E+00  0.45593999997E+02  0.45594000000E+02  0.51100000000E-03 0.  1.
         11   -1    0    0    0    0 -0.00000000000E+00 -0.00000000000E+00 -0.45593999997E+02  0.45594000000E+02  0.51100000000E-03 0. -1.
    9900012    2    1    2    0    0 -0.32297254874E+00  0.55503436584E+00 -0.99045412293E+00  0.90007587452E+02  0.89999846806E+02 0.  0.
        -12    1    1    2    0    0  0.32297254874E+00 -0.55503436584E+00  0.99045412293E+00  0.11804125483E+01  0.00000000000E+00 0.  1.
         11    1    3    3    0    0  0.89813080938E+01 -0.39950359888E+02 -0.14088411879E+02  0.43303331279E+02  0.51100000000E-03 0. -1.
        -11    1    3    3    0    0 -0.30217930422E+01  0.91987544239E+01 -0.40091285127E+01  0.10479571930E+02  0.51100000000E-03 0.  1.
        -12    1    3    3    0    0 -0.62824876003E+01  0.31306639830E+02  0.17107086269E+02  0.36224684243E+02  0.00000000000E+00 0.  1.
</event>
<event>
 7    1  0.1756449E-015  0.9000778E+02  0.7816164E-02  0.1186339E+00
        -11   -1    0    0    0    0  0.00000000000E+00  0.00000000000E+00  0.45593999997E+02  0.45594000000E+02  0.51100000000E-03 0.  1.
         11   -1    0    0    0    0 -0.00000000000E+00 -0.00000000000E+00 -0.45593999997E+02  0.45594000000E+02  0.51100000000E-03 0. -1.
    9900012    2    1    2    0    0 -0.21111646407E+00 -0.61875738621E+00  0.98259368871E+00  0.90007779164E+02  0.90000041049E+02 0.  0.
        -12    1    1    2    0    0  0.21111646407E+00  0.61875738621E+00 -0.98259368871E+00  0.11802208359E+01  0.00000000000E+00 0.  1.
         11    1    3    3    0    0  0.12055425779E+01  0.27393925455E+01  0.64220634338E+01  0.70852313607E+01  0.51100000000E-03 0. -1.
        -11    1    3    3    0    0 -0.24925904897E+02  0.21235370249E+02  0.21800918478E+02  0.39338552735E+02  0.51100000000E-03 0.  1.
         12    1    3    3    0    0  0.23509245855E+02 -0.24593520180E+02 -0.27240388223E+02  0.43583995068E+02  0.00000000000E+00 0. -1.
</event>
<event>
 7    1  0.1756449E-015  0.9000781E+02  0.7816164E-02  0.1186339E+00
        -11   -1    0    0    0    0  0.00000000000E+00  0.00000000000E+00  0.45593999997E+02  0.45594000000E+02  0.51100000000E-03 0. -1.
         11   -1    0    0    0    0 -0.00000000000E+00 -0.00000000000E+00 -0.45593999997E+02  0.45594000000E+02  0.51100000000E-03 0.  1.
    9900012    2    1    2    0    0 -0.86881536577E+00  0.76294205064E+00  0.23651074360E+00  0.90007805929E+02  0.90000068168E+02 0.  0.
        -12    1    1    2    0    0  0.86881536577E+00 -0.76294205064E+00 -0.23651074360E+00  0.11801940706E+01  0.00000000000E+00 0.  1.
         11    1    3    3    0    0 -0.20587980082E+02 -0.15380793435E+02  0.26064655975E+02  0.36603278841E+02  0.51100000000E-03 0. -1.
        -11    1    3    3    0    0  0.16131845700E+01 -0.20038645587E+00  0.99615628026E+01  0.10093327148E+02  0.51100000000E-03 0.  1.
        -12    1    3    3    0    0  0.18105980146E+02  0.16344121942E+02 -0.35789708034E+02  0.43311199940E+02  0.00000000000E+00 0.  1.
</event>
<event>
 7    1  0.2161986E-015  0.9000775E+02  0.7816164E-02  0.1186339E+00
        -11   -1    0    0    0    0  0.00000000000E+00  0.00000000000E+00  0.45593999997E+02  0.45594000000E+02  0.51100000000E-03 0.  1.
         11   -1    0    0    0    0 -0.00000000000E+00 -0.00000000000E+00 -0.45593999997E+02  0.45594000000E+02  0.51100000000E-03 0. -1.
    9900012    2    1    2    0    0 -0.25696866923E+00 -0.76663438601E+00 -0.85977839350E+00  0.90007754235E+02  0.90000015791E+02 0.  0.
        -12    1    1    2    0    0  0.25696866923E+00  0.76663438601E+00  0.85977839350E+00  0.11802457645E+01  0.00000000000E+00 0.  1.
         11    1    3    3    0    0  0.15586006016E+01  0.69434449569E+01  0.66685154533E+01  0.97524234073E+01  0.51100000000E-03 0. -1.
        -11    1    3    3    0    0  0.32769150497E+02  0.10380980891E+01  0.17030693294E+02  0.36945086091E+02  0.51100000000E-03 0.  1.
         12    1    3    3    0    0 -0.34584719768E+02 -0.87481774319E+01 -0.24558987141E+02  0.43310244737E+02  0.00000000000E+00 0. -1.
</event>
<event>
 7    1  0.1756449E-015  0.9000778E+02  0.7816164E-02  0.1186339E+00
        -11   -1    0    0    0    0  0.00000000000E+00  0.00000000000E+00  0.45593999997E+02  0.45594000000E+02  0.51100000000E-03 0.  1.
         11   -1    0    0    0    0 -0.00000000000E+00 -0.00000000000E+00 -0.45593999997E+02  0.45594000000E+02  0.51100000000E-03 0. -1.
    9900012    2    1    2    0    0  0.48197294455E+00 -0.65843089650E+00 -0.85269889563E+00  0.90007777745E+02  0.90000039611E+02 0.  0.
        -12    1    1    2    0    0 -0.48197294455E+00  0.65843089650E+00  0.85269889563E+00  0.11802222551E+01  0.00000000000E+00 0.  1.
         11    1    3    3    0    0 -0.75858326598E+01 -0.30112776757E+02  0.20438365566E+02  0.37175946100E+02  0.51100000000E-03 0. -1.
        -11    1    3    3    0    0 -0.39488950608E+01 -0.47724964120E+01 -0.14714881394E+02  0.15965532528E+02  0.51100000000E-03 0.  1.
        -12    1    3    3    0    0  0.12016700665E+02  0.34226842272E+02 -0.65761830674E+01  0.36866299117E+02  0.00000000000E+00 0.  1.
</event>
<event>
 7    1  0.1756449E-015  0.9000771E+02  0.7816164E-02  0.1186339E+00
        -11   -1    0    0    0    0  0.00000000000E+00  0.00000000000E+00  0.45593999997E+02  0.45594000000E+02  0.51100000000E-03 0.  1.
         11   -1    0    0    0    0 -0.00000000000E+00 -0.00000000000E+00 -0.45593999997E+02  0.45594000000E+02  0.51100000000E-03 0. -1.
    9900012    2    1    2    0    0  0.25127205845E+00 -0.10132125310E+01 -0.55076221253E+00  0.90007713469E+02  0.89999974487E+02 0.  0.
        -12    1    1    2    0    0 -0.25127205845E+00  0.10132125310E+01  0.55076221253E+00  0.11802865309E+01  0.00000000000E+00 0.  1.
         11    1    3    3    0    0 -0.16190422029E+02  0.30638552442E+02 -0.24991734049E+01  0.34743294737E+02  0.51100000000E-03 0. -1.
        -11    1    3    3    0    0 -0.43754650097E+01  0.87305528305E+01 -0.37527732312E+00  0.97728235483E+01  0.51100000000E-03 0.  1.
        -12    1    3    3    0    0  0.20817159097E+02 -0.40382317803E+02  0.23236885155E+01  0.45491595184E+02  0.00000000000E+00 0.  1.
</event>
<event>
 7    1  0.1756449E-015  0.9000751E+02  0.7816164E-02  0.1186340E+00
        -11   -1    0    0    0    0  0.00000000000E+00  0.00000000000E+00  0.45593999997E+02  0.45594000000E+02  0.51100000000E-03 0.  1.
         11   -1    0    0    0    0 -0.00000000000E+00 -0.00000000000E+00 -0.45593999997E+02  0.45594000000E+02  0.51100000000E-03 0. -1.
    9900012    2    1    2    0    0  0.51368364736E+00  0.10533853178E+01 -0.14169135127E+00  0.90007505207E+02  0.89999763475E+02 0.  0.
        -12    1    1    2    0    0 -0.51368364736E+00 -0.10533853178E+01  0.14169135127E+00  0.11804947930E+01  0.00000000000E+00 0.  1.
         11    1    3    3    0    0 -0.35957270147E+01  0.80181462248E+01  0.38890944952E+00  0.87960884755E+01  0.51100000000E-03 0. -1.
        -11    1    3    3    0    0 -0.36933187343E+02 -0.12049323495E+02  0.61060322111E+01  0.39325947587E+02  0.51100000000E-03 0.  1.
         12    1    3    3    0    0  0.41042598005E+02  0.50845625883E+01 -0.66366330119E+01  0.41885469144E+02  0.00000000000E+00 0. -1.
</event>
<event>
 7    1  0.1756449E-015  0.9000775E+02  0.7816164E-02  0.1186339E+00
        -11   -1    0    0    0    0  0.00000000000E+00  0.00000000000E+00  0.45593999997E+02  0.45594000000E+02  0.51100000000E-03 0.  1.
         11   -1    0    0    0    0 -0.00000000000E+00 -0.00000000000E+00 -0.45593999997E+02  0.45594000000E+02  0.51100000000E-03 0. -1.
    9900012    2    1    2    0    0  0.32894997050E+00  0.51412623018E+00 -0.10101788969E+01  0.90007747795E+02  0.90000009266E+02 0.  0.
        -12    1    1    2    0    0 -0.32894997050E+00 -0.51412623018E+00  0.10101788969E+01  0.11802522050E+01  0.00000000000E+00 0.  1.
         11    1    3    3    0    0 -0.35964039846E+02 -0.83863035207E+01 -0.23011421990E+02  0.43511697175E+02  0.51100000000E-03 0. -1.
        -11    1    3    3    0    0  0.91299132224E+01  0.35697067089E+01 -0.18268214812E+01  0.99717299613E+01  0.51100000000E-03 0.  1.
        -12    1    3    3    0    0  0.27163076594E+02  0.53307230420E+01  0.23828064574E+02  0.36524320659E+02  0.00000000000E+00 0.  1.
</event>
<event>
 7    1  0.1756449E-015  0.9000783E+02  0.7816164E-02  0.1186339E+00
        -11   -1    0    0    0    0  0.00000000000E+00  0.00000000000E+00  0.45593999997E+02  0.45594000000E+02  0.51100000000E-03 0. -1.
         11   -1    0    0    0    0 -0.00000000000E+00 -0.00000000000E+00 -0.45593999997E+02  0.45594000000E+02  0.51100000000E-03 0.  1.
    9900012    2    1    2    0    0 -0.24796629176E+00  0.10118518778E+01  0.55449536033E+00  0.90007831957E+02  0.90000094539E+02 0.  0.
        -12    1    1    2    0    0  0.24796629176E+00 -0.10118518778E+01 -0.55449536033E+00  0.11801680427E+01  0.00000000000E+00 0.  1.
         11    1    3    3    0    0 -0.33433233134E+02  0.13640004911E+02 -0.89715377363E+01  0.37206441665E+02  0.51100000000E-03 0. -1.
        -11    1    3    3    0    0 -0.64098132305E+01  0.37727999895E+01  0.64307434120E+01  0.98323032145E+01  0.51100000000E-03 0.  1.
        -12    1    3    3    0    0  0.39595080073E+02 -0.16400953023E+02  0.30952896847E+01  0.42969087077E+02  0.00000000000E+00 0.  1.
</event>
<event>
 7    1  0.1756449E-015  0.9000753E+02  0.7816164E-02  0.1186339E+00
        -11   -1    0    0    0    0  0.00000000000E+00  0.00000000000E+00  0.45593999997E+02  0.45594000000E+02  0.51100000000E-03 0. -1.
         11   -1    0    0    0    0 -0.00000000000E+00 -0.00000000000E+00 -0.45593999997E+02  0.45594000000E+02  0.51100000000E-03 0.  1.
    9900012    2    1    2    0    0  0.11478266051E+00 -0.43556416307E+00  0.10911492729E+01  0.90007534865E+02  0.89999793525E+02 0.  0.
        -12    1    1    2    0    0 -0.11478266051E+00  0.43556416307E+00 -0.10911492729E+01  0.11804651351E+01  0.00000000000E+00 0.  1.
         11    1    3    3    0    0  0.59929031244E+01  0.19833251543E+01 -0.10202200548E+02  0.11997223129E+02  0.51100000000E-03 0. -1.
        -11    1    3    3    0    0  0.15331752283E+02  0.31244484109E+02 -0.47175590064E+01  0.35121728012E+02  0.51100000000E-03 0.  1.
         12    1    3    3    0    0 -0.21209872747E+02 -0.33663373426E+02  0.16010908827E+02  0.42888583724E+02  0.00000000000E+00 0. -1.
</event>
<event>
 7    1  0.1756449E-015  0.9000776E+02  0.7816164E-02  0.1186339E+00
        -11   -1    0    0    0    0  0.00000000000E+00  0.00000000000E+00  0.45593999997E+02  0.45594000000E+02  0.51100000000E-03 0.  1.
         11   -1    0    0    0    0 -0.00000000000E+00 -0.00000000000E+00 -0.45593999997E+02  0.45594000000E+02  0.51100000000E-03 0. -1.
    9900012    2    1    2    0    0 -0.11726430136E+01  0.76161814335E-01 -0.10985330283E+00  0.90007762733E+02  0.90000024401E+02 0.  0.
        -12    1    1    2    0    0  0.11726430136E+01 -0.76161814335E-01  0.10985330283E+00  0.11802372674E+01  0.00000000000E+00 0.  1.
         11    1    3    3    0    0 -0.72341034273E+01  0.29057992425E+01  0.53534954476E+01  0.94570521518E+01  0.51100000000E-03 0. -1.
        -11    1    3    3    0    0 -0.30283350425E+02  0.21032985798E+02 -0.17093826072E+01  0.36910564798E+02  0.51100000000E-03 0.  1.
         12    1    3    3    0    0  0.36344810839E+02 -0.23862623226E+02 -0.37539661433E+01  0.43640145783E+02  0.00000000000E+00 0. -1.
</event>
<event>
 7    1  0.1756449E-015  0.9000789E+02  0.7816164E-02  0.1186339E+00
        -11   -1    0    0    0    0  0.00000000000E+00  0.00000000000E+00  0.45593999997E+02  0.45594000000E+02  0.51100000000E-03 0. -1.
         11   -1    0    0    0    0 -0.00000000000E+00 -0.00000000000E+00 -0.45593999997E+02  0.45594000000E+02  0.51100000000E-03 0.  1.
    9900012    2    1    2    0    0  0.31899739371E+00 -0.10708261207E+01  0.37979151517E+00  0.90007885805E+02  0.90000149098E+02 0.  0.
        -12    1    1    2    0    0 -0.31899739371E+00  0.10708261207E+01 -0.37979151517E+00  0.11801141949E+01  0.00000000000E+00 0.  1.
         11    1    3    3    0    0 -0.33217674418E+01 -0.59778833616E+01 -0.23699974046E+01  0.72378253903E+01  0.51100000000E-03 0. -1.
        -11    1    3    3    0    0  0.54193650739E+01  0.34371511344E+02 -0.24532677827E+02  0.42574905655E+02  0.51100000000E-03 0.  1.
         12    1    3    3    0    0 -0.17786002384E+01 -0.29464454103E+02  0.27282466747E+02  0.40195154760E+02  0.00000000000E+00 0. -1.
</event>
<event>
 7    1  0.1756449E-015  0.9000779E+02  0.7816164E-02  0.1186339E+00
        -11   -1    0    0    0    0  0.00000000000E+00  0.00000000000E+00  0.45593999997E+02  0.45594000000E+02  0.51100000000E-03 0.  1.
         11   -1    0    0    0    0 -0.00000000000E+00 -0.00000000000E+00 -0.45593999997E+02  0.45594000000E+02  0.51100000000E-03 0. -1.
    9900012    2    1    2    0    0  0.30538843198E+00  0.47595124566E+00 -0.10359039887E+01  0.90007792918E+02  0.90000054984E+02 0.  0.
        -12    1    1    2    0    0 -0.30538843198E+00 -0.47595124566E+00  0.10359039887E+01  0.11802070820E+01  0.00000000000E+00 0.  1.
         11    1    3    3    0    0 -0.13117618914E+02 -0.27382958265E+02 -0.23454610169E+02  0.38366874616E+02  0.51100000000E-03 0. -1.
        -11    1    3    3    0    0  0.28188621724E+01  0.53232710322E+01 -0.94426065605E+01  0.11200268628E+02  0.51100000000E-03 0.  1.
        -12    1    3    3    0    0  0.10604145174E+02  0.22535638478E+02  0.31861312741E+02  0.40440649674E+02  0.00000000000E+00 0.  1.
</event>
<event>
 7    1  0.1756449E-015  0.9000775E+02  0.7816164E-02  0.1186339E+00
        -11   -1    0    0    0    0  0.00000000000E+00  0.00000000000E+00  0.45593999997E+02  0.45594000000E+02  0.51100000000E-03 0.  1.
         11   -1    0    0    0    0 -0.00000000000E+00 -0.00000000000E+00 -0.45593999997E+02  0.45594000000E+02  0.51100000000E-03 0. -1.
    9900012    2    1    2    0    0  0.10947368255E+01  0.15111662832E+00  0.41437244375E+00  0.90007750249E+02  0.90000011752E+02 0.  0.
        -12    1    1    2    0    0 -0.10947368255E+01 -0.15111662832E+00 -0.41437244375E+00  0.11802497509E+01  0.00000000000E+00 0.  1.
         11    1    3    3    0    0  0.21871564628E+01 -0.34936324401E+01 -0.85293868936E+01  0.94730967514E+01  0.51100000000E-03 0. -1.
        -11    1    3    3    0    0  0.20492408946E+02 -0.21305387532E+02  0.29419683821E+02  0.41705828833E+02  0.51100000000E-03 0.  1.
         12    1    3    3    0    0 -0.21584828583E+02  0.24950136600E+02 -0.20475924484E+02  0.38828824664E+02  0.00000000000E+00 0. -1.
</event>
<event>
 7    1  0.1756449E-015  0.9000729E+02  0.7816164E-02  0.1186340E+00
        -11   -1    0    0    0    0  0.00000000000E+00  0.00000000000E+00  0.45593999997E+02  0.45594000000E+02  0.51100000000E-03 0. -1.
         11   -1    0    0    0    0 -0.00000000000E+00 -0.00000000000E+00 -0.45593999997E+02  0.45594000000E+02  0.51100000000E-03 0.  1.
    9900012    2    1    2    0    0 -0.10908317162E+01  0.30510121595E+00 -0.33328333825E+00  0.90007289041E+02  0.89999544455E+02 0.  0.
        -12    1    1    2    0    0  0.10908317162E+01 -0.30510121595E+00  0.33328333825E+00  0.11807109589E+01  0.00000000000E+00 0.  1.
         11    1    3    3    0    0  0.14538688805E+02  0.33942366093E+02  0.20156581920E+02  0.42068343004E+02  0.51100000000E-03 0. -1.
        -11    1    3    3    0    0  0.32512206312E+01 -0.86581519645E+01  0.19049788794E+01  0.94426148828E+01  0.51100000000E-03 0.  1.
        -12    1    3    3    0    0 -0.18880741153E+02 -0.24979112913E+02 -0.22394844137E+02  0.38496331154E+02  0.00000000000E+00 0.  1.
</event>
<event>
 7    1  0.1756449E-015  0.9000777E+02  0.7816164E-02  0.1186339E+00
        -11   -1    0    0    0    0  0.00000000000E+00  0.00000000000E+00  0.45593999997E+02  0.45594000000E+02  0.51100000000E-03 0.  1.
         11   -1    0    0    0    0 -0.00000000000E+00 -0.00000000000E+00 -0.45593999997E+02  0.45594000000E+02  0.51100000000E-03 0. -1.
    9900012    2    1    2    0    0 -0.92083936271E+00  0.45459532125E+00 -0.58166131149E+00  0.90007774632E+02  0.90000036457E+02 0.  0.
        -12    1    1    2    0    0  0.92083936271E+00 -0.45459532125E+00  0.58166131149E+00  0.11802253680E+01  0.00000000000E+00 0.  1.
         11    1    3    3    0    0  0.27488670857E+00  0.37755215046E+02 -0.13673849019E+02  0.40156020384E+02  0.51100000000E-03 0. -1.
        -11    1    3    3    0    0 -0.10108139706E+01  0.37222264905E+01  0.75204363016E+01  0.84518446127E+01  0.51100000000E-03 0.  1.
        -12    1    3    3    0    0 -0.18491210063E+00 -0.41022846215E+02  0.55717514060E+01  0.41399909635E+02  0.00000000000E+00 0.  1.
</event>
<event>
 7    1  0.1756449E-015  0.9000775E+02  0.7816164E-02  0.1186339E+00
        -11   -1    0    0    0    0  0.00000000000E+00  0.00000000000E+00  0.45593999997E+02  0.45594000000E+02  0.51100000000E-03 0.  1.
         11   -1    0    0    0    0 -0.00000000000E+00 -0.00000000000E+00 -0.45593999997E+02  0.45594000000E+02  0.51100000000E-03 0. -1.
    9900012    2    1    2    0    0  0.10045707123E+01 -0.52355592253E+00 -0.33123803101E+00  0.90007749284E+02  0.90000010774E+02 0.  0.
        -12    1    1    2    0    0 -0.10045707123E+01  0.52355592253E+00  0.33123803101E+00  0.11802507163E+01  0.00000000000E+00 0.  1.
         11    1    3    3    0    0  0.37725103349E+02 -0.12463448683E+02 -0.31810234238E+01  0.39857745621E+02  0.51100000000E-03 0. -1.
        -11    1    3    3    0    0  0.18680506406E+01 -0.20476558945E+01 -0.73508035198E+01  0.78560053784E+01  0.51100000000E-03 0.  1.
        -12    1    3    3    0    0 -0.38588583277E+02  0.13987548655E+02  0.10200588913E+02  0.42293998284E+02  0.00000000000E+00 0.  1.
</event>
<event>
 7    1  0.1756449E-015  0.9000755E+02  0.7816164E-02  0.1186339E+00
        -11   -1    0    0    0    0  0.00000000000E+00  0.00000000000E+00  0.45593999997E+02  0.45594000000E+02  0.51100000000E-03 0. -1.
         11   -1    0    0    0    0 -0.00000000000E+00 -0.00000000000E+00 -0.45593999997E+02  0.45594000000E+02  0.51100000000E-03 0.  1.
    9900012    2    1    2    0    0  0.95513208796E+00 -0.12304085662E+00  0.68266859638E+00  0.90007553995E+02  0.89999812908E+02 0.  0.
        -12    1    1    2    0    0 -0.95513208796E+00  0.12304085662E+00 -0.68266859638E+00  0.11804460048E+01  0.00000000000E+00 0.  1.
         11    1    3    3    0    0  0.42790356967E+01  0.19638749277E+01 -0.91295442989E+01  0.10272075282E+02  0.51100000000E-03 0. -1.
        -11    1    3    3    0    0  0.34881467493E+02 -0.74495050125E+01  0.18513404980E+02  0.40186540827E+02  0.51100000000E-03 0.  1.
         12    1    3    3    0    0 -0.38205371102E+02  0.53625892281E+01 -0.87011920849E+01  0.39548937887E+02  0.00000000000E+00 0. -1.
</event>
<event>
 7    1  0.1756449E-015  0.9000787E+02  0.7816164E-02  0.1186339E+00
        -11   -1    0    0    0    0  0.00000000000E+00  0.00000000000E+00  0.45593999997E+02  0.45594000000E+02  0.51100000000E-03 0.  1.
         11   -1    0    0    0    0 -0.00000000000E+00 -0.00000000000E+00 -0.45593999997E+02  0.45594000000E+02  0.51100000000E-03 0. -1.
    9900012    2    1    2    0    0  0.15042416666E+00 -0.89393758311E+00 -0.75561985665E+00  0.90007867296E+02  0.90000130344E+02 0.  0.
        -12    1    1    2    0    0 -0.15042416666E+00  0.89393758311E+00  0.75561985665E+00  0.11801327045E+01  0.00000000000E+00 0.  1.
         11    1    3    3    0    0  0.34048298445E+02  0.44970210102E+01 -0.24040805515E+02  0.41922191678E+02  0.51100000000E-03 0. -1.
        -11    1    3    3    0    0 -0.94996692721E+01  0.20808605163E+01 -0.41900494283E+01  0.10589155360E+02  0.51100000000E-03 0.  1.
        -12    1    3    3    0    0 -0.24398205007E+02 -0.74718191096E+01  0.27475235087E+02  0.37496520258E+02  0.00000000000E+00 0.  1.
</event>
<event>
 7    1  0.1756449E-015  0.9000755E+02  0.7816164E-02  0.1186339E+00
        -11   -1    0    0    0    0  0.00000000000E+00  0.00000000000E+00  0.45593999997E+02  0.45594000000E+02  0.51100000000E-03 0.  1.
         11   -1    0    0    0    0 -0.00000000000E+00 -0.00000000000E+00 -0.45593999997E+02  0.45594000000E+02  0.51100000000E-03 0. -1.
    9900012    2    1    2    0    0  0.76299963972E+00 -0.89554980733E+00 -0.96341329315E-01  0.90007551120E+02  0.89999809994E+02 0.  0.
        -12    1    1    2    0    0 -0.76299963972E+00  0.89554980733E+00  0.96341329315E-01  0.11804488804E+01  0.00000000000E+00 0.  1.
         11    1    3    3    0    0 -0.66608057063E+01  0.13421857585E+01  0.64008805109E+01  0.93348308417E+01  0.51100000000E-03 0. -1.
        -11    1    3    3    0    0 -0.26055545238E+02  0.23510327308E+02 -0.13985569914E+02  0.37778606298E+02  0.51100000000E-03 0.  1.
         12    1    3    3    0    0  0.33479350584E+02 -0.25748062874E+02  0.74883480739E+01  0.42894113980E+02  0.00000000000E+00 0. -1.
</event>
<event>
 7    1  0.1756449E-015  0.9000769E+02  0.7816164E-02  0.1186339E+00
        -11   -1    0    0    0    0  0.00000000000E+00  0.00000000000E+00  0.45593999997E+02  0.45594000000E+02  0.51100000000E-03 0.  1.
         11   -1    0    0    0    0 -0.00000000000E+00 -0.00000000000E+00 -0.45593999997E+02  0.45594000000E+02  0.51100000000E-03 0. -1.
    9900012    2    1    2    0    0  0.15117340888E-01 -0.59929137259E+00 -0.10167362129E+01  0.90007690206E+02  0.89999950917E+02 0.  0.
        -12    1    1    2    0    0 -0.15117340888E-01  0.59929137259E+00  0.10167362129E+01  0.11803097940E+01  0.00000000000E+00 0.  1.
         11    1    3    3    0    0  0.31780228848E+02 -0.15326043325E+02 -0.11707476193E+02  0.37174393723E+02  0.51100000000E-03 0. -1.
        -11    1    3    3    0    0  0.35194042446E+01  0.10062171684E+01 -0.93191151711E+01  0.10012221884E+02  0.51100000000E-03 0.  1.
        -12    1    3    3    0    0 -0.35284515752E+02  0.13720534784E+02  0.20009855151E+02  0.42821074598E+02  0.00000000000E+00 0.  1.
</event>
<event>
 7    1  0.1756449E-015  0.9000775E+02  0.7816164E-02  0.1186339E+00
        -11   -1    0    0    0    0  0.00000000000E+00  0.00000000000E+00  0.45593999997E+02  0.45594000000E+02  0.51100000000E-03 0. -1.
         11   -1    0    0    0    0 -0.00000000000E+00 -0.00000000000E+00 -0.45593999997E+02  0.45594000000E+02  0.51100000000E-03 0.  1.
    9900012    2    1    2    0    0  0.39562779656E+00  0.85262276389E+00 -0.71380082594E+00  0.90007746404E+02  0.90000007857E+02 0.  0.
        -12    1    1    2    0    0 -0.39562779656E+00 -0.85262276389E+00  0.71380082594E+00  0.11802535956E+01  0.00000000000E+00 0.  1.
         11    1    3    3    0    0 -0.21839595394E+02 -0.12385770598E+02  0.29635305663E+02  0.38841042498E+02  0.51100000000E-03 0. -1.
        -11    1    3    3    0    0  0.19541517951E+01  0.82218035752E+01  0.52074697780E+01  0.99264548061E+01  0.51100000000E-03 0.  1.
        -12    1    3    3    0    0  0.20281071395E+02  0.50165897872E+01 -0.35556576267E+02  0.41240249101E+02  0.00000000000E+00 0.  1.
</event>
<event>
 7    1  0.1756449E-015  0.9000775E+02  0.7816164E-02  0.1186339E+00
        -11   -1    0    0    0    0  0.00000000000E+00  0.00000000000E+00  0.45593999997E+02  0.45594000000E+02  0.51100000000E-03 0. -1.
         11   -1    0    0    0    0 -0.00000000000E+00 -0.00000000000E+00 -0.45593999997E+02  0.45594000000E+02  0.51100000000E-03 0.  1.
    9900012    2    1    2    0    0 -0.64292914607E+00 -0.21908828238E+00  0.96521337871E+00  0.90007748150E+02  0.90000009626E+02 0.  0.
        -12    1    1    2    0    0  0.64292914607E+00  0.21908828238E+00 -0.96521337871E+00  0.11802518497E+01  0.00000000000E+00 0.  1.
         11    1    3    3    0    0 -0.26934109613E+01 -0.82039221500E+01 -0.48928603992E+01  0.99246604172E+01  0.51100000000E-03 0. -1.
        -11    1    3    3    0    0 -0.20302161413E+02  0.33675149262E+02  0.18886951152E+02  0.43622360779E+02  0.51100000000E-03 0.  1.
         12    1    3    3    0    0  0.22352643228E+02 -0.25690315394E+02 -0.13028877374E+02  0.36460726954E+02  0.00000000000E+00 0. -1.
</event>
<event>
 7    1  0.1756449E-015  0.9000775E+02  0.7816164E-02  0.1186339E+00
        -11   -1    0    0    0    0  0.00000000000E+00  0.00000000000E+00  0.45593999997E+02  0.45594000000E+02  0.51100000000E-03 0. -1.
         11   -1    0    0    0    0 -0.00000000000E+00 -0.00000000000E+00 -0.45593999997E+02  0.45594000000E+02  0.51100000000E-03 0.  1.
    9900012    2    1    2    0    0 -0.22693616166E+00  0.91725139515E+00  0.70720509505E+00  0.90007750370E+02  0.90000011875E+02 0.  0.
        -12    1    1    2    0    0  0.22693616166E+00 -0.91725139515E+00 -0.70720509505E+00  0.11802496303E+01  0.00000000000E+00 0.  1.
         11    1    3    3    0    0  0.83660399781E+01  0.87925829368E+00  0.83874933866E+01  0.11879131518E+02  0.51100000000E-03 0. -1.
        -11    1    3    3    0    0  0.24594714961E+02 -0.44241267605E+00 -0.29498060150E+02  0.38408739707E+02  0.51100000000E-03 0.  1.
         12    1    3    3    0    0 -0.33187691101E+02  0.48040577752E+00  0.21817771859E+02  0.39719879144E+02  0.00000000000E+00 0. -1.
</event>
<event>
 7    1  0.1756449E-015  0.9000859E+02  0.7816164E-02  0.1186337E+00
        -11   -1    0    0    0    0  0.00000000000E+00  0.00000000000E+00  0.45593999997E+02  0.45594000000E+02  0.51100000000E-03 0.  1.
         11   -1    0    0    0    0 -0.00000000000E+00 -0.00000000000E+00 -0.45593999997E+02  0.45594000000E+02  0.51100000000E-03 0. -1.
    9900012    2    1    2    0    0 -0.34673197888E+00 -0.82521920493E+00 -0.76797935480E+00  0.90008592483E+02  0.90000865100E+02 0.  0.
        -12    1    1    2    0    0  0.34673197888E+00  0.82521920493E+00  0.76797935480E+00  0.11794075168E+01  0.00000000000E+00 0.  1.
         11    1    3    3    0    0  0.18667933427E+02 -0.24022389534E+02 -0.24319256880E+02  0.38948596802E+02  0.51100000000E-03 0. -1.
        -11    1    3    3    0    0 -0.35922650184E+01 -0.67543403180E+01 -0.29473865944E+01  0.81983272130E+01  0.51100000000E-03 0.  1.
        -12    1    3    3    0    0 -0.15422400388E+02  0.29951510647E+02  0.26498664120E+02  0.42861668468E+02  0.00000000000E+00 0.  1.
</event>
<event>
 7    1  0.1756449E-015  0.9000772E+02  0.7816164E-02  0.1186339E+00
        -11   -1    0    0    0    0  0.00000000000E+00  0.00000000000E+00  0.45593999997E+02  0.45594000000E+02  0.51100000000E-03 0.  1.
         11   -1    0    0    0    0 -0.00000000000E+00 -0.00000000000E+00 -0.45593999997E+02  0.45594000000E+02  0.51100000000E-03 0. -1.
    9900012    2    1    2    0    0  0.34982530262E+00 -0.40401523681E-01 -0.11265239656E+01  0.90007717716E+02  0.89999978790E+02 0.  0.
        -12    1    1    2    0    0 -0.34982530262E+00  0.40401523681E-01  0.11265239656E+01  0.11802822843E+01  0.00000000000E+00 0.  1.
         11    1    3    3    0    0 -0.17088029331E+02  0.24588082031E+02 -0.23226479952E+02  0.37895169819E+02  0.51100000000E-03 0. -1.
        -11    1    3    3    0    0 -0.59819290807E+01 -0.31835437446E+01 -0.64905745437E+01  0.93832821800E+01  0.51100000000E-03 0.  1.
        -12    1    3    3    0    0  0.23419783714E+02 -0.21444939810E+02  0.28590530530E+02  0.42729265717E+02  0.00000000000E+00 0.  1.
</event>
<event>
 7    1  0.1756449E-015  0.9000758E+02  0.7816164E-02  0.1186339E+00
        -11   -1    0    0    0    0  0.00000000000E+00  0.00000000000E+00  0.45593999997E+02  0.45594000000E+02  0.51100000000E-03 0. -1.
         11   -1    0    0    0    0 -0.00000000000E+00 -0.00000000000E+00 -0.45593999997E+02  0.45594000000E+02  0.51100000000E-03 0.  1.
    9900012    2    1    2    0    0  0.23024590022E+00 -0.74088813535E+00  0.88964612856E+00  0.90007576924E+02  0.89999836140E+02 0.  0.
        -12    1    1    2    0    0 -0.23024590022E+00  0.74088813535E+00 -0.88964612856E+00  0.11804230757E+01  0.00000000000E+00 0.  1.
         11    1    3    3    0    0  0.52229127214E+00 -0.80231015856E+01 -0.38671333397E+01  0.89217525046E+01  0.51100000000E-03 0. -1.
        -11    1    3    3    0    0  0.19255662557E+02 -0.10468663657E+02 -0.30176533168E+02  0.37296066998E+02  0.51100000000E-03 0.  1.
         12    1    3    3    0    0 -0.19547707929E+02  0.17750877107E+02  0.34933312636E+02  0.43789757422E+02  0.00000000000E+00 0. -1.
</event>
<event>
 7    1  0.1756449E-015  0.9000778E+02  0.7816164E-02  0.1186339E+00
        -11   -1    0    0    0    0  0.00000000000E+00  0.00000000000E+00  0.45593999997E+02  0.45594000000E+02  0.51100000000E-03 0. -1.
         11   -1    0    0    0    0 -0.00000000000E+00 -0.00000000000E+00 -0.45593999997E+02  0.45594000000E+02  0.51100000000E-03 0.  1.
    9900012    2    1    2    0    0  0.49645970688E+00 -0.15966381433E+00  0.10587528074E+01  0.90007778715E+02  0.90000040594E+02 0.  0.
        -12    1    1    2    0    0 -0.49645970688E+00  0.15966381433E+00 -0.10587528074E+01  0.11802212849E+01  0.00000000000E+00 0.  1.
         11    1    3    3    0    0 -0.81331498968E+01  0.16148714452E+00  0.69031565164E+01  0.10669010052E+02  0.51100000000E-03 0. -1.
        -11    1    3    3    0    0  0.18918582542E+02  0.25941136019E+02  0.22613389257E+02  0.39271117597E+02  0.51100000000E-03 0.  1.
         12    1    3    3    0    0 -0.10288972939E+02 -0.26262286978E+02 -0.28457792966E+02  0.40067651066E+02  0.00000000000E+00 0. -1.
</event>
<event>
 7    1  0.1756449E-015  0.9000772E+02  0.7816164E-02  0.1186339E+00
        -11   -1    0    0    0    0  0.00000000000E+00  0.00000000000E+00  0.45593999997E+02  0.45594000000E+02  0.51100000000E-03 0.  1.
         11   -1    0    0    0    0 -0.00000000000E+00 -0.00000000000E+00 -0.45593999997E+02  0.45594000000E+02  0.51100000000E-03 0. -1.
    9900012    2    1    2    0    0 -0.34704724625E+00  0.10729431964E+01  0.34842973613E+00  0.90007723687E+02  0.89999984840E+02 0.  0.
        -12    1    1    2    0    0  0.34704724625E+00 -0.10729431964E+01 -0.34842973613E+00  0.11802763130E+01  0.00000000000E+00 0.  1.
         11    1    3    3    0    0  0.44418393306E+01  0.82432812840E+01 -0.47873302330E-01  0.93639689812E+01  0.51100000000E-03 0. -1.
        -11    1    3    3    0    0 -0.31979970371E+02  0.16513476749E+02  0.18308154819E+02  0.40380712629E+02  0.51100000000E-03 0.  1.
         12    1    3    3    0    0  0.27191083794E+02 -0.23683814837E+02 -0.17911851781E+02  0.40263042077E+02  0.00000000000E+00 0. -1.
</event>
<event>
 7    1  0.1756449E-015  0.9000776E+02  0.7816164E-02  0.1186339E+00
        -11   -1    0    0    0    0  0.00000000000E+00  0.00000000000E+00  0.45593999997E+02  0.45594000000E+02  0.51100000000E-03 0. -1.
         11   -1    0    0    0    0 -0.00000000000E+00 -0.00000000000E+00 -0.45593999997E+02  0.45594000000E+02  0.51100000000E-03 0.  1.
    9900012    2    1    2    0    0  0.60862764101E+00 -0.70751042597E+00 -0.72247667684E+00  0.90007758009E+02  0.90000019615E+02 0.  0.
        -12    1    1    2    0    0 -0.60862764101E+00  0.70751042597E+00  0.72247667684E+00  0.11802419908E+01  0.00000000000E+00 0.  1.
         11    1    3    3    0    0 -0.31335002823E+02 -0.21979172614E+02  0.18685565870E+02  0.42592450069E+02  0.51100000000E-03 0. -1.
        -11    1    3    3    0    0  0.56258150956E+01 -0.38200747689E+01 -0.42565997007E+01  0.80225562013E+01  0.51100000000E-03 0.  1.
        -12    1    3    3    0    0  0.26317815369E+02  0.25091736956E+02 -0.15151442846E+02  0.39392751739E+02  0.00000000000E+00 0.  1.
</event>
<event>
 7    1  0.1756449E-015  0.9000763E+02  0.7816164E-02  0.1186339E+00
        -11   -1    0    0    0    0  0.00000000000E+00  0.00000000000E+00  0.45593999997E+02  0.45594000000E+02  0.51100000000E-03 0.  1.
         11   -1    0    0    0    0 -0.00000000000E+00 -0.00000000000E+00 -0.45593999997E+02  0.45594000000E+02  0.51100000000E-03 0. -1.
    9900012    2    1    2    0    0 -0.62429506465E+00 -0.83402970622E-01 -0.99828218268E+00  0.90007632388E+02  0.89999892335E+02 0.  0.
        -12    1    1    2    0    0  0.62429506465E+00  0.83402970622E-01  0.99828218268E+00  0.11803676120E+01  0.00000000000E+00 0.  1.
         11    1    3    3    0    0  0.10269540291E+02  0.29748852872E+01 -0.33668564258E+02  0.35325424551E+02  0.51100000000E-03 0. -1.
        -11    1    3    3    0    0  0.14860318406E+02  0.64609181765E+01  0.14608908931E+02  0.21817258013E+02  0.51100000000E-03 0.  1.
        -12    1    3    3    0    0 -0.25754153761E+02 -0.95192064344E+01  0.18061373144E+02  0.32864949824E+02  0.00000000000E+00 0.  1.
</event>
<event>
 7    1  0.1756449E-015  0.9000775E+02  0.7816164E-02  0.1186339E+00
        -11   -1    0    0    0    0  0.00000000000E+00  0.00000000000E+00  0.45593999997E+02  0.45594000000E+02  0.51100000000E-03 0.  1.
         11   -1    0    0    0    0 -0.00000000000E+00 -0.00000000000E+00 -0.45593999997E+02  0.45594000000E+02  0.51100000000E-03 0. -1.
    9900012    2    1    2    0    0  0.63974217032E+00  0.94366694720E+00 -0.30532323839E+00  0.90007745946E+02  0.90000007393E+02 0.  0.
        -12    1    1    2    0    0 -0.63974217032E+00 -0.94366694720E+00  0.30532323839E+00  0.11802540539E+01  0.00000000000E+00 0.  1.
         11    1    3    3    0    0 -0.94245404730E+01  0.33385152840E+02 -0.14777380595E+02  0.37706251084E+02  0.51100000000E-03 0. -1.
        -11    1    3    3    0    0 -0.27372496043E+01  0.72642027939E+01  0.58027214877E+01  0.96918911752E+01  0.51100000000E-03 0.  1.
        -12    1    3    3    0    0  0.12801532248E+02 -0.39705688687E+02  0.86693358693E+01  0.42609603687E+02  0.00000000000E+00 0.  1.
</event>
<event>
 7    1  0.1756449E-015  0.9000771E+02  0.7816164E-02  0.1186339E+00
        -11   -1    0    0    0    0  0.00000000000E+00  0.00000000000E+00  0.45593999997E+02  0.45594000000E+02  0.51100000000E-03 0.  1.
         11   -1    0    0    0    0 -0.00000000000E+00 -0.00000000000E+00 -0.45593999997E+02  0.45594000000E+02  0.51100000000E-03 0. -1.
    9900012    2    1    2    0    0  0.52691697743E+00 -0.49797645056E+00 -0.93137999568E+00  0.90007707349E+02  0.89999968286E+02 0.  0.
        -12    1    1    2    0    0 -0.52691697743E+00  0.49797645056E+00  0.93137999568E+00  0.11802926513E+01  0.00000000000E+00 0.  1.
         11    1    3    3    0    0 -0.52058108692E+01  0.90320082529E+01  0.23387782601E+01  0.10683984458E+02  0.51100000000E-03 0. -1.
        -11    1    3    3    0    0  0.97236150008E+01 -0.15971186479E+02  0.35337462258E+02  0.39979541335E+02  0.51100000000E-03 0.  1.
         12    1    3    3    0    0 -0.39908871542E+01  0.64412017751E+01 -0.38607620514E+02  0.39344181556E+02  0.00000000000E+00 0. -1.
</event>
<event>
 7    1  0.1756449E-015  0.9000773E+02  0.7816164E-02  0.1186339E+00
        -11   -1    0    0    0    0  0.00000000000E+00  0.00000000000E+00  0.45593999997E+02  0.45594000000E+02  0.51100000000E-03 0. -1.
         11   -1    0    0    0    0 -0.00000000000E+00 -0.00000000000E+00 -0.45593999997E+02  0.45594000000E+02  0.51100000000E-03 0.  1.
    9900012    2    1    2    0    0 -0.61728113301E+00  0.10053865317E+01  0.34788540085E-01  0.90007725321E+02  0.89999986495E+02 0.  0.
        -12    1    1    2    0    0  0.61728113301E+00 -0.10053865317E+01 -0.34788540085E-01  0.11802746790E+01  0.00000000000E+00 0.  1.
         11    1    3    3    0    0  0.22517142666E+01  0.33838377972E+01  0.76857944164E+01  0.86943666502E+01  0.51100000000E-03 0. -1.
        -11    1    3    3    0    0  0.13939463250E+02  0.12296710859E+02 -0.38784969046E+02  0.43009203176E+02  0.51100000000E-03 0.  1.
         12    1    3    3    0    0 -0.16808458650E+02 -0.14675162125E+02  0.31133963169E+02  0.38304155495E+02  0.00000000000E+00 0. -1.
</event>
<event>
 7    1  0.1756449E-015  0.9000772E+02  0.7816164E-02  0.1186339E+00
        -11   -1    0    0    0    0  0.00000000000E+00  0.00000000000E+00  0.45593999997E+02  0.45594000000E+02  0.51100000000E-03 0. -1.
         11   -1    0    0    0    0 -0.00000000000E+00 -0.00000000000E+00 -0.45593999997E+02  0.45594000000E+02  0.51100000000E-03 0.  1.
    9900012    2    1    2    0    0  0.47887435149E+00  0.36626721948E+00  0.10146890853E+01  0.90007717720E+02  0.89999978794E+02 0.  0.
        -12    1    1    2    0    0 -0.47887435149E+00 -0.36626721948E+00 -0.10146890853E+01  0.11802822800E+01  0.00000000000E+00 0.  1.
         11    1    3    3    0    0  0.65005696822E+01 -0.14519694268E+02  0.41932901850E+02  0.44849160368E+02  0.51100000000E-03 0. -1.
        -11    1    3    3    0    0 -0.51630399432E+01  0.13636140980E+01 -0.87152270793E+01  0.10221135366E+02  0.51100000000E-03 0.  1.
        -12    1    3    3    0    0 -0.85865538753E+00  0.13522347390E+02 -0.32202985686E+02  0.34937421987E+02  0.00000000000E+00 0.  1.
</event>
<event>
 7    1  0.1756449E-015  0.9000779E+02  0.7816164E-02  0.1186339E+00
        -11   -1    0    0    0    0  0.00000000000E+00  0.00000000000E+00  0.45593999997E+02  0.45594000000E+02  0.51100000000E-03 0.  1.
         11   -1    0    0    0    0 -0.00000000000E+00 -0.00000000000E+00 -0.45593999997E+02  0.45594000000E+02  0.51100000000E-03 0. -1.
    9900012    2    1    2    0    0 -0.64320030092E+00  0.57641171577E+00 -0.80432482166E+00  0.90007790056E+02  0.90000052085E+02 0.  0.
        -12    1    1    2    0    0  0.64320030092E+00 -0.57641171577E+00  0.80432482166E+00  0.11802099440E+01  0.00000000000E+00 0.  1.
         11    1    3    3    0    0 -0.51833588272E+01  0.32121571141E+02 -0.22655953381E+02  0.39647884750E+02  0.51100000000E-03 0. -1.
        -11    1    3    3    0    0  0.67512696916E+01  0.21134684323E+01 -0.37560465475E+01  0.80096365206E+01  0.51100000000E-03 0.  1.
        -12    1    3    3    0    0 -0.22111111653E+01 -0.33658627857E+02  0.25607675107E+02  0.42350268785E+02  0.00000000000E+00 0.  1.
</event>
<event>
 7    1  0.1756449E-015  0.9000738E+02  0.7816164E-02  0.1186340E+00
        -11   -1    0    0    0    0  0.00000000000E+00  0.00000000000E+00  0.45593999997E+02  0.45594000000E+02  0.51100000000E-03 0. -1.
         11   -1    0    0    0    0 -0.00000000000E+00 -0.00000000000E+00 -0.45593999997E+02  0.45594000000E+02  0.51100000000E-03 0.  1.
    9900012    2    1    2    0    0  0.70258139730E+00  0.20833030519E+00  0.92566205263E+00  0.90007376279E+02  0.89999632845E+02 0.  0.
        -12    1    1    2    0    0 -0.70258139730E+00 -0.20833030519E+00 -0.92566205263E+00  0.11806237214E+01  0.00000000000E+00 0.  1.
         11    1    3    3    0    0  0.41342190342E+01 -0.11092935432E+01  0.69706016525E+01  0.81799502961E+01  0.51100000000E-03 0. -1.
        -11    1    3    3    0    0 -0.15342295881E+02 -0.33647922459E+02 -0.20356671483E+02  0.42213301255E+02  0.51100000000E-03 0.  1.
         12    1    3    3    0    0  0.11910658245E+02  0.34965546308E+02  0.14311731883E+02  0.39614124727E+02  0.00000000000E+00 0. -1.
</event>
<event>
 7    1  0.3286907E-015  0.9000773E+02  0.7816164E-02  0.1186339E+00
        -11   -1    0    0    0    0  0.00000000000E+00  0.00000000000E+00  0.45593999997E+02  0.45594000000E+02  0.51100000000E-03 0. -1.
         11   -1    0    0    0    0 -0.00000000000E+00 -0.00000000000E+00 -0.45593999997E+02  0.45594000000E+02  0.51100000000E-03 0.  1.
    9900012    2    1    2    0    0  0.32515235706E+00  0.74906289563E+00  0.85218197432E+00  0.90007731643E+02  0.89999992901E+02 0.  0.
        -12    1    1    2    0    0 -0.32515235706E+00 -0.74906289563E+00 -0.85218197432E+00  0.11802683569E+01  0.00000000000E+00 0.  1.
         11    1    3    3    0    0 -0.55127604104E+01 -0.51696190221E+01 -0.59907151925E+01  0.96438662867E+01  0.51100000000E-03 0. -1.
        -11    1    3    3    0    0  0.24198568072E+01  0.32025479841E+02 -0.23791767547E+02  0.39969178992E+02  0.51100000000E-03 0.  1.
         12    1    3    3    0    0  0.34180559603E+01 -0.26106797923E+02  0.30634664714E+02  0.40394686364E+02  0.00000000000E+00 0. -1.
</event>
<event>
 7    1  0.1756449E-015  0.9000775E+02  0.7816164E-02  0.1186339E+00
        -11   -1    0    0    0    0  0.00000000000E+00  0.00000000000E+00  0.45593999997E+02  0.45594000000E+02  0.51100000000E-03 0. -1.
         11   -1    0    0    0    0 -0.00000000000E+00 -0.00000000000E+00 -0.45593999997E+02  0.45594000000E+02  0.51100000000E-03 0.  1.
    9900012    2    1    2    0    0  0.62158615539E+00  0.79443903722E-01  0.10001511390E+01  0.90007752999E+02  0.90000014539E+02 0.  0.
        -12    1    1    2    0    0 -0.62158615539E+00 -0.79443903722E-01 -0.10001511390E+01  0.11802470009E+01  0.00000000000E+00 0.  1.
         11    1    3    3    0    0 -0.87140069195E+01 -0.33703537177E+02 -0.37790144416E+01  0.35016328837E+02  0.51100000000E-03 0. -1.
        -11    1    3    3    0    0 -0.52025779696E+01 -0.70705963208E+01  0.74956136445E+01  0.11543152690E+02  0.51100000000E-03 0.  1.
        -12    1    3    3    0    0  0.14538171045E+02  0.40853577401E+02 -0.27164480639E+01  0.43448271472E+02  0.00000000000E+00 0.  1.
</event>
<event>
 7    1  0.1756449E-015  0.9000774E+02  0.7816164E-02  0.1186339E+00
        -11   -1    0    0    0    0  0.00000000000E+00  0.00000000000E+00  0.45593999997E+02  0.45594000000E+02  0.51100000000E-03 0.  1.
         11   -1    0    0    0    0 -0.00000000000E+00 -0.00000000000E+00 -0.45593999997E+02  0.45594000000E+02  0.51100000000E-03 0. -1.
    9900012    2    1    2    0    0 -0.68385548643E+00  0.80767128033E+00  0.52250751180E+00  0.90007743535E+02  0.90000004950E+02 0.  0.
        -12    1    1    2    0    0  0.68385548643E+00 -0.80767128033E+00 -0.52250751180E+00  0.11802564650E+01  0.00000000000E+00 0.  1.
         11    1    3    3    0    0 -0.19467332967E+01  0.13207741496E+02  0.24322254273E+02  0.27745382663E+02  0.51100000000E-03 0. -1.
        -11    1    3    3    0    0 -0.11834153218E+02  0.65948240067E+01  0.13033630980E+02  0.18799319744E+02  0.51100000000E-03 0.  1.
         12    1    3    3    0    0  0.13097031028E+02 -0.18994894222E+02 -0.36833377741E+02  0.43463041128E+02  0.00000000000E+00 0. -1.
</event>
<event>
 7    1  0.1756449E-015  0.9000760E+02  0.7816164E-02  0.1186339E+00
        -11   -1    0    0    0    0  0.00000000000E+00  0.00000000000E+00  0.45593999997E+02  0.45594000000E+02  0.51100000000E-03 0. -1.
         11   -1    0    0    0    0 -0.00000000000E+00 -0.00000000000E+00 -0.45593999997E+02  0.45594000000E+02  0.51100000000E-03 0.  1.
    9900012    2    1    2    0    0 -0.94884809576E+00  0.59527560303E+00  0.37239840820E+00  0.90007599082E+02  0.89999858590E+02 0.  0.
        -12    1    1    2    0    0  0.94884809576E+00 -0.59527560303E+00 -0.37239840820E+00  0.11804009178E+01  0.00000000000E+00 0.  1.
         11    1    3    3    0    0  0.22223046151E+02 -0.12757005971E+01 -0.57535691126E+01  0.22991188530E+02  0.51100000000E-03 0. -1.
        -11    1    3    3    0    0  0.12273983494E+02  0.16173920815E+02 -0.13167985200E+02  0.24200045865E+02  0.51100000000E-03 0.  1.
         12    1    3    3    0    0 -0.35445877740E+02 -0.14302944615E+02  0.19293952721E+02  0.42816364688E+02  0.00000000000E+00 0. -1.
</event>
<event>
 7    1  0.1756449E-015  0.9000767E+02  0.7816164E-02  0.1186339E+00
        -11   -1    0    0    0    0  0.00000000000E+00  0.00000000000E+00  0.45593999997E+02  0.45594000000E+02  0.51100000000E-03 0.  1.
         11   -1    0    0    0    0 -0.00000000000E+00 -0.00000000000E+00 -0.45593999997E+02  0.45594000000E+02  0.51100000000E-03 0. -1.
    9900012    2    1    2    0    0  0.82095269644E-01 -0.11570181479E+01 -0.21851632603E+00  0.90007669532E+02  0.89999929970E+02 0.  0.
        -12    1    1    2    0    0 -0.82095269644E-01  0.11570181479E+01  0.21851632603E+00  0.11803304675E+01  0.00000000000E+00 0.  1.
         11    1    3    3    0    0  0.10053328651E+02 -0.40455067556E+02 -0.85608626423E+01  0.42555496441E+02  0.51100000000E-03 0. -1.
        -11    1    3    3    0    0 -0.40613449373E+01  0.15912897294E+01  0.81963968574E+01  0.92848073436E+01  0.51100000000E-03 0.  1.
        -12    1    3    3    0    0 -0.59098884441E+01  0.37706759679E+02  0.14594945885E+00  0.38167365748E+02  0.00000000000E+00 0.  1.
</event>
<event>
 7    1  0.1756449E-015  0.9000774E+02  0.7816164E-02  0.1186339E+00
        -11   -1    0    0    0    0  0.00000000000E+00  0.00000000000E+00  0.45593999997E+02  0.45594000000E+02  0.51100000000E-03 0.  1.
         11   -1    0    0    0    0 -0.00000000000E+00 -0.00000000000E+00 -0.45593999997E+02  0.45594000000E+02  0.51100000000E-03 0. -1.
    9900012    2    1    2    0    0 -0.63589785816E+00 -0.99110090675E+00 -0.79759258188E-01  0.90007742133E+02  0.90000003529E+02 0.  0.
        -12    1    1    2    0    0  0.63589785816E+00  0.99110090675E+00  0.79759258188E-01  0.11802578670E+01  0.00000000000E+00 0.  1.
         11    1    3    3    0    0 -0.40048625191E+01  0.26009417974E+01  0.88497311238E+01  0.10055921800E+02  0.51100000000E-03 0. -1.
        -11    1    3    3    0    0 -0.36057926885E+02 -0.26425923140E+01  0.80070088709E+01  0.37030657255E+02  0.51100000000E-03 0.  1.
         12    1    3    3    0    0  0.39426891546E+02 -0.94945039015E+00 -0.16936499253E+02  0.42921163078E+02  0.00000000000E+00 0. -1.
</event>
<event>
 7    1  0.1756449E-015  0.9000772E+02  0.7816164E-02  0.1186339E+00
        -11   -1    0    0    0    0  0.00000000000E+00  0.00000000000E+00  0.45593999997E+02  0.45594000000E+02  0.51100000000E-03 0. -1.
         11   -1    0    0    0    0 -0.00000000000E+00 -0.00000000000E+00 -0.45593999997E+02  0.45594000000E+02  0.51100000000E-03 0.  1.
    9900012    2    1    2    0    0  0.92683366651E+00  0.72847699522E+00 -0.57936908854E-01  0.90007722040E+02  0.89999983171E+02 0.  0.
        -12    1    1    2    0    0 -0.92683366651E+00 -0.72847699522E+00  0.57936908854E-01  0.11802779602E+01  0.00000000000E+00 0.  1.
         11    1    3    3    0    0  0.33173712552E+01  0.18602345219E+02  0.35117268840E+02  0.39878249344E+02  0.51100000000E-03 0. -1.
        -11    1    3    3    0    0 -0.22014510235E+01 -0.87348744392E+01  0.40331341884E+01  0.98696803251E+01  0.51100000000E-03 0.  1.
        -12    1    3    3    0    0 -0.18908656523E+00 -0.91389937848E+01 -0.39208339937E+02  0.40259792371E+02  0.00000000000E+00 0.  1.
</event>
<event>
 7    1  0.1756449E-015  0.9000766E+02  0.7816164E-02  0.1186339E+00
        -11   -1    0    0    0    0  0.00000000000E+00  0.00000000000E+00  0.45593999997E+02  0.45594000000E+02  0.51100000000E-03 0.  1.
         11   -1    0    0    0    0 -0.00000000000E+00 -0.00000000000E+00 -0.45593999997E+02  0.45594000000E+02  0.51100000000E-03 0. -1.
    9900012    2    1    2    0    0  0.16395288012E+00 -0.87922208320E-01 -0.11655851147E+01  0.90007661268E+02  0.89999921597E+02 0.  0.
        -12    1    1    2    0    0 -0.16395288012E+00  0.87922208320E-01  0.11655851147E+01  0.11803387316E+01  0.00000000000E+00 0.  1.
         11    1    3    3    0    0  0.23081068383E+02 -0.27029962321E+02 -0.16574507950E+02  0.39218221464E+02  0.51100000000E-03 0. -1.
        -11    1    3    3    0    0 -0.22672740124E+01  0.11709327258E+01 -0.92368733014E+01  0.95828724057E+01  0.51100000000E-03 0.  1.
        -12    1    3    3    0    0 -0.20649841491E+02  0.25771107387E+02  0.24645796137E+02  0.41206567398E+02  0.00000000000E+00 0.  1.
</event>
<event>
 7    1  0.1756449E-015  0.9000774E+02  0.7816164E-02  0.1186339E+00
        -11   -1    0    0    0    0  0.00000000000E+00  0.00000000000E+00  0.45593999997E+02  0.45594000000E+02  0.51100000000E-03 0. -1.
         11   -1    0    0    0    0 -0.00000000000E+00 -0.00000000000E+00 -0.45593999997E+02  0.45594000000E+02  0.51100000000E-03 0.  1.
    9900012    2    1    2    0    0 -0.98416274638E+00 -0.56131207124E+00  0.33070620897E+00  0.90007739796E+02  0.90000001161E+02 0.  0.
        -12    1    1    2    0    0  0.98416274638E+00  0.56131207124E+00 -0.33070620897E+00  0.11802602041E+01  0.00000000000E+00 0.  1.
         11    1    3    3    0    0  0.98982375981E+01  0.31250873464E+02  0.68700926588E+01  0.33493139196E+02  0.51100000000E-03 0. -1.
        -11    1    3    3    0    0  0.14222356286E+02 -0.15610067991E-01 -0.73177216962E+01  0.15994521346E+02  0.51100000000E-03 0.  1.
        -12    1    3    3    0    0 -0.25104756631E+02 -0.31796575467E+02  0.77833524630E+00  0.40520079253E+02  0.00000000000E+00 0.  1.
</event>
<event>
 7    1  0.1756449E-015  0.9000772E+02  0.7816164E-02  0.1186339E+00
        -11   -1    0    0    0    0  0.00000000000E+00  0.00000000000E+00  0.45593999997E+02  0.45594000000E+02  0.51100000000E-03 0. -1.
         11   -1    0    0    0    0 -0.00000000000E+00 -0.00000000000E+00 -0.45593999997E+02  0.45594000000E+02  0.51100000000E-03 0.  1.
    9900012    2    1    2    0    0  0.46069640116E+00  0.43598199670E+00  0.99536056932E+00  0.90007718619E+02  0.89999979705E+02 0.  0.
        -12    1    1    2    0    0 -0.46069640116E+00 -0.43598199670E+00 -0.99536056932E+00  0.11802813810E+01  0.00000000000E+00 0.  1.
         11    1    3    3    0    0 -0.34340553506E+01 -0.12923150433E+01  0.68904212457E+01  0.78064537100E+01  0.51100000000E-03 0. -1.
        -11    1    3    3    0    0  0.33545238468E+02 -0.25161911055E+02 -0.19355634475E+01  0.41977984682E+02  0.51100000000E-03 0.  1.
         12    1    3    3    0    0 -0.29650486716E+02  0.26890208095E+02 -0.39594972289E+01  0.40223280227E+02  0.00000000000E+00 0. -1.
</event>
<event>
 7    1  0.1756449E-015  0.9000772E+02  0.7816164E-02  0.1186339E+00
        -11   -1    0    0    0    0  0.00000000000E+00  0.00000000000E+00  0.45593999997E+02  0.45594000000E+02  0.51100000000E-03 0.  1.
         11   -1    0    0    0    0 -0.00000000000E+00 -0.00000000000E+00 -0.45593999997E+02  0.45594000000E+02  0.51100000000E-03 0. -1.
    9900012    2    1    2    0    0 -0.57170620730E+00  0.54888224392E+00 -0.87461487015E+00  0.90007715765E+02  0.89999976813E+02 0.  0.
        -12    1    1    2    0    0  0.57170620730E+00 -0.54888224392E+00  0.87461487015E+00  0.11802842354E+01  0.00000000000E+00 0.  1.
         11    1    3    3    0    0  0.13168071860E+02 -0.99867372348E+01 -0.27266049831E+02  0.31883702902E+02  0.51100000000E-03 0. -1.
        -11    1    3    3    0    0 -0.11317568816E+02 -0.17167833767E+02  0.21747985274E+02  0.29929863746E+02  0.51100000000E-03 0.  1.
         12    1    3    3    0    0 -0.24222092509E+01  0.27703453246E+02  0.46434496872E+01  0.28194149116E+02  0.00000000000E+00 0. -1.
</event>
<event>
 7    1  0.1756449E-015  0.9000770E+02  0.7816164E-02  0.1186339E+00
        -11   -1    0    0    0    0  0.00000000000E+00  0.00000000000E+00  0.45593999997E+02  0.45594000000E+02  0.51100000000E-03 0. -1.
         11   -1    0    0    0    0 -0.00000000000E+00 -0.00000000000E+00 -0.45593999997E+02  0.45594000000E+02  0.51100000000E-03 0.  1.
    9900012    2    1    2    0    0  0.29799894295E+00 -0.90588998978E+00  0.69546277522E+00  0.90007699820E+02  0.89999960657E+02 0.  0.
        -12    1    1    2    0    0 -0.29799894295E+00  0.90588998978E+00 -0.69546277522E+00  0.11803001802E+01  0.00000000000E+00 0.  1.
         11    1    3    3    0    0  0.20501150855E+02  0.18539302181E+02  0.26259711385E+02  0.38125783324E+02  0.51100000000E-03 0. -1.
        -11    1    3    3    0    0  0.75588876272E+01 -0.75754205995E+01  0.21297461310E+01  0.10911443455E+02  0.51100000000E-03 0.  1.
        -12    1    3    3    0    0 -0.27762039539E+02 -0.11869771572E+02 -0.27693994741E+02  0.40970473042E+02  0.00000000000E+00 0.  1.
</event>
<event>
 7    1  0.1756449E-015  0.9000743E+02  0.7816164E-02  0.1186340E+00
        -11   -1    0    0    0    0  0.00000000000E+00  0.00000000000E+00  0.45593999997E+02  0.45594000000E+02  0.51100000000E-03 0. -1.
         11   -1    0    0    0    0 -0.00000000000E+00 -0.00000000000E+00 -0.45593999997E+02  0.45594000000E+02  0.51100000000E-03 0.  1.
    9900012    2    1    2    0    0  0.30819104929E+00 -0.28027289391E+00  0.11046356290E+01  0.90007426203E+02  0.89999683428E+02 0.  0.
        -12    1    1    2    0    0 -0.30819104929E+00  0.28027289391E+00 -0.11046356290E+01  0.11805737973E+01  0.00000000000E+00 0.  1.
         11    1    3    3    0    0  0.10761439005E+02  0.27255611382E+02  0.25171828057E+02  0.38630271152E+02  0.51100000000E-03 0. -1.
        -11    1    3    3    0    0 -0.21295666337E+01  0.82686914094E+01 -0.32764005874E+01  0.91455515275E+01  0.51100000000E-03 0.  1.
        -12    1    3    3    0    0 -0.83236813216E+01 -0.35804575686E+02 -0.20790791841E+02  0.42231603523E+02  0.00000000000E+00 0.  1.
</event>
<event>
 7    1  0.1756449E-015  0.9000773E+02  0.7816164E-02  0.1186339E+00
        -11   -1    0    0    0    0  0.00000000000E+00  0.00000000000E+00  0.45593999997E+02  0.45594000000E+02  0.51100000000E-03 0.  1.
         11   -1    0    0    0    0 -0.00000000000E+00 -0.00000000000E+00 -0.45593999997E+02  0.45594000000E+02  0.51100000000E-03 0. -1.
    9900012    2    1    2    0    0 -0.11720079811E+01  0.98789959140E-01  0.98307276290E-01  0.90007734570E+02  0.89999995867E+02 0.  0.
        -12    1    1    2    0    0  0.11720079811E+01 -0.98789959140E-01 -0.98307276290E-01  0.11802654296E+01  0.00000000000E+00 0.  1.
         11    1    3    3    0    0  0.67534437606E+01 -0.13102882407E+01  0.62567844660E+01  0.92990972688E+01  0.51100000000E-03 0. -1.
        -11    1    3    3    0    0  0.11767971768E+02 -0.21898112161E+02  0.26279298246E+02  0.36174770107E+02  0.51100000000E-03 0.  1.
         12    1    3    3    0    0 -0.19693423510E+02  0.23307190361E+02 -0.32437775435E+02  0.44533867194E+02  0.00000000000E+00 0. -1.
</event>
<event>
 7    1  0.1756449E-015  0.9000756E+02  0.7816164E-02  0.1186339E+00
        -11   -1    0    0    0    0  0.00000000000E+00  0.00000000000E+00  0.45593999997E+02  0.45594000000E+02  0.51100000000E-03 0. -1.
         11   -1    0    0    0    0 -0.00000000000E+00 -0.00000000000E+00 -0.45593999997E+02  0.45594000000E+02  0.51100000000E-03 0.  1.
    9900012    2    1    2    0    0  0.68501424864E+00  0.83850120849E+00  0.47022243091E+00  0.90007560280E+02  0.89999819276E+02 0.  0.
        -12    1    1    2    0    0 -0.68501424864E+00 -0.83850120849E+00 -0.47022243091E+00  0.11804397198E+01  0.00000000000E+00 0.  1.
         11    1    3    3    0    0  0.35842114209E+01 -0.28059698383E+01  0.93661314082E+01  0.10413666792E+02  0.51100000000E-03 0. -1.
        -11    1    3    3    0    0  0.24811484506E+02 -0.25204751414E+02  0.78492987733E+01  0.36228452198E+02  0.51100000000E-03 0.  1.
         12    1    3    3    0    0 -0.27710681678E+02  0.28849222461E+02 -0.16745207751E+02  0.43365441290E+02  0.00000000000E+00 0. -1.
</event>
<event>
 7    1  0.1756449E-015  0.9000783E+02  0.7816164E-02  0.1186339E+00
        -11   -1    0    0    0    0  0.00000000000E+00  0.00000000000E+00  0.45593999997E+02  0.45594000000E+02  0.51100000000E-03 0. -1.
         11   -1    0    0    0    0 -0.00000000000E+00 -0.00000000000E+00 -0.45593999997E+02  0.45594000000E+02  0.51100000000E-03 0.  1.
    9900012    2    1    2    0    0  0.57733172840E+00  0.10270606931E+01  0.68103365109E-01  0.90007828970E+02  0.90000091512E+02 0.  0.
        -12    1    1    2    0    0 -0.57733172840E+00 -0.10270606931E+01 -0.68103365109E-01  0.11801710301E+01  0.00000000000E+00 0.  1.
         11    1    3    3    0    0  0.10720184893E+02 -0.78281251640E+01  0.38395870463E+02  0.40625666476E+02  0.51100000000E-03 0. -1.
        -11    1    3    3    0    0  0.53147023209E+01 -0.41262937459E+01 -0.80757068206E+00  0.67767640880E+01  0.51100000000E-03 0.  1.
        -12    1    3    3    0    0 -0.15457555485E+02  0.12981479603E+02 -0.37520196416E+02  0.42605398406E+02  0.00000000000E+00 0.  1.
</event>
<event>
 7    1  0.1756449E-015  0.9000773E+02  0.7816164E-02  0.1186339E+00
        -11   -1    0    0    0    0  0.00000000000E+00  0.00000000000E+00  0.45593999997E+02  0.45594000000E+02  0.51100000000E-03 0.  1.
         11   -1    0    0    0    0 -0.00000000000E+00 -0.00000000000E+00 -0.45593999997E+02  0.45594000000E+02  0.51100000000E-03 0. -1.
    9900012    2    1    2    0    0 -0.79444895159E+00  0.69185289839E+00 -0.53218427390E+00  0.90007733220E+02  0.89999994499E+02 0.  0.
        -12    1    1    2    0    0  0.79444895159E+00 -0.69185289839E+00  0.53218427390E+00  0.11802667796E+01  0.00000000000E+00 0.  1.
         11    1    3    3    0    0 -0.79896032558E+01 -0.66317984927E+01 -0.35323210107E+02  0.36817708836E+02  0.51100000000E-03 0. -1.
        -11    1    3    3    0    0 -0.62597179854E+01 -0.11315326821E+02  0.19123194392E+01  0.13072018062E+02  0.51100000000E-03 0.  1.
        -12    1    3    3    0    0  0.13454872290E+02  0.18638978212E+02  0.32878706394E+02  0.40118006322E+02  0.00000000000E+00 0.  1.
</event>
<event>
 7    1  0.1756449E-015  0.9000773E+02  0.7816164E-02  0.1186339E+00
        -11   -1    0    0    0    0  0.00000000000E+00  0.00000000000E+00  0.45593999997E+02  0.45594000000E+02  0.51100000000E-03 0. -1.
         11   -1    0    0    0    0 -0.00000000000E+00 -0.00000000000E+00 -0.45593999997E+02  0.45594000000E+02  0.51100000000E-03 0.  1.
    9900012    2    1    2    0    0  0.77752292348E+00  0.53910718352E+00  0.70558483951E+00  0.90007733751E+02  0.89999995037E+02 0.  0.
        -12    1    1    2    0    0 -0.77752292348E+00 -0.53910718352E+00 -0.70558483951E+00  0.11802662486E+01  0.00000000000E+00 0.  1.
         11    1    3    3    0    0 -0.13199856540E+02  0.36388819681E+01  0.17268431862E+02  0.22038067381E+02  0.51100000000E-03 0. -1.
        -11    1    3    3    0    0  0.24543701149E+02  0.23223618322E+02 -0.20208431284E+02  0.39371441544E+02  0.51100000000E-03 0.  1.
         12    1    3    3    0    0 -0.10566321685E+02 -0.26323393106E+02  0.36455842610E+01  0.28598224826E+02  0.00000000000E+00 0. -1.
</event>
<event>
 7    1  0.1756449E-015  0.9000774E+02  0.7816164E-02  0.1186339E+00
        -11   -1    0    0    0    0  0.00000000000E+00  0.00000000000E+00  0.45593999997E+02  0.45594000000E+02  0.51100000000E-03 0. -1.
         11   -1    0    0    0    0 -0.00000000000E+00 -0.00000000000E+00 -0.45593999997E+02  0.45594000000E+02  0.51100000000E-03 0.  1.
    9900012    2    1    2    0    0 -0.16774043064E+00  0.10546792824E+01  0.50251622418E+00  0.90007742487E+02  0.90000003888E+02 0.  0.
        -12    1    1    2    0    0  0.16774043064E+00 -0.10546792824E+01 -0.50251622418E+00  0.11802575128E+01  0.00000000000E+00 0.  1.
         11    1    3    3    0    0 -0.57180748355E+01 -0.84404008457E+00 -0.48881055015E+01  0.75698321740E+01  0.51100000000E-03 0. -1.
        -11    1    3    3    0    0  0.20803052323E+02 -0.13724459406E+02 -0.31136556654E+02  0.39882489046E+02  0.51100000000E-03 0.  1.
         12    1    3    3    0    0 -0.15252717918E+02  0.15623178773E+02  0.36527178380E+02  0.42555421267E+02  0.00000000000E+00 0. -1.
</event>
<event>
 7    1  0.1756449E-015  0.9000688E+02  0.7816164E-02  0.1186341E+00
        -11   -1    0    0    0    0  0.00000000000E+00  0.00000000000E+00  0.45593999997E+02  0.45594000000E+02  0.51100000000E-03 0. -1.
         11   -1    0    0    0    0 -0.00000000000E+00 -0.00000000000E+00 -0.45593999997E+02  0.45594000000E+02  0.51100000000E-03 0.  1.
    9900012    2    1    2    0    0 -0.10368189763E+00 -0.79650576477E+00 -0.86595493736E+00  0.90006877939E+02  0.89999127924E+02 0.  0.
        -12    1    1    2    0    0  0.10368189763E+00  0.79650576477E+00  0.86595493736E+00  0.11811220609E+01  0.00000000000E+00 0.  1.
         11    1    3    3    0    0  0.14834123746E+02 -0.28831241917E+01  0.15572158555E+00  0.15112507465E+02  0.51100000000E-03 0. -1.
        -11    1    3    3    0    0  0.10154322187E+02  0.27929393788E+02 -0.18345683918E+02  0.34924567501E+02  0.51100000000E-03 0.  1.
         12    1    3    3    0    0 -0.25092127830E+02 -0.25842775362E+02  0.17324007395E+02  0.39969802973E+02  0.00000000000E+00 0. -1.
</event>
<event>
 7    1  0.1932247E-015  0.9000770E+02  0.7816164E-02  0.1186339E+00
        -11   -1    0    0    0    0  0.00000000000E+00  0.00000000000E+00  0.45593999997E+02  0.45594000000E+02  0.51100000000E-03 0.  1.
         11   -1    0    0    0    0 -0.00000000000E+00 -0.00000000000E+00 -0.45593999997E+02  0.45594000000E+02  0.51100000000E-03 0. -1.
    9900012    2    1    2    0    0  0.62269483827E+00 -0.43763915450E+00 -0.90212039890E+00  0.90007704230E+02  0.89999965126E+02 0.  0.
        -12    1    1    2    0    0 -0.62269483827E+00  0.43763915450E+00  0.90212039890E+00  0.11802957702E+01  0.00000000000E+00 0.  1.
         11    1    3    3    0    0  0.16213091018E+01  0.74837803774E+01  0.60834318899E+01  0.97797625616E+01  0.51100000000E-03 0. -1.
        -11    1    3    3    0    0 -0.97978782155E+01  0.10208465520E+02  0.32749043332E+02  0.35675075686E+02  0.51100000000E-03 0.  1.
         12    1    3    3    0    0  0.87992639520E+01 -0.18129885052E+02 -0.39734595620E+02  0.44552865982E+02  0.00000000000E+00 0. -1.
</event>
<event>
 7    1  0.1756449E-015  0.9000776E+02  0.7816164E-02  0.1186339E+00
        -11   -1    0    0    0    0  0.00000000000E+00  0.00000000000E+00  0.45593999997E+02  0.45594000000E+02  0.51100000000E-03 0. -1.
         11   -1    0    0    0    0 -0.00000000000E+00 -0.00000000000E+00 -0.45593999997E+02  0.45594000000E+02  0.51100000000E-03 0.  1.
    9900012    2    1    2    0    0  0.48939156758E+00  0.50036266158E+00  0.95031486397E+00  0.90007760516E+02  0.90000022155E+02 0.  0.
        -12    1    1    2    0    0 -0.48939156758E+00 -0.50036266158E+00 -0.95031486397E+00  0.11802394843E+01  0.00000000000E+00 0.  1.
         11    1    3    3    0    0 -0.11777812075E+02  0.18922687160E+01  0.24683379990E+01  0.12181552894E+02  0.51100000000E-03 0. -1.
        -11    1    3    3    0    0 -0.10615281471E+02  0.24469797360E+02 -0.24604316928E+02  0.36288119203E+02  0.51100000000E-03 0.  1.
         12    1    3    3    0    0  0.22882485113E+02 -0.25861703414E+02  0.23086293793E+02  0.41538088419E+02  0.00000000000E+00 0. -1.
</event>
<event>
 7    1  0.1756449E-015  0.9000776E+02  0.7816164E-02  0.1186339E+00
        -11   -1    0    0    0    0  0.00000000000E+00  0.00000000000E+00  0.45593999997E+02  0.45594000000E+02  0.51100000000E-03 0. -1.
         11   -1    0    0    0    0 -0.00000000000E+00 -0.00000000000E+00 -0.45593999997E+02  0.45594000000E+02  0.51100000000E-03 0.  1.
    9900012    2    1    2    0    0 -0.17063006683E+00  0.66337977136E-01  0.11659558082E+01  0.90007759222E+02  0.90000020844E+02 0.  0.
        -12    1    1    2    0    0  0.17063006683E+00 -0.66337977136E-01 -0.11659558082E+01  0.11802407778E+01  0.00000000000E+00 0.  1.
         11    1    3    3    0    0 -0.29223879160E+01  0.11453141314E+02  0.29323427164E+01  0.12178400189E+02  0.51100000000E-03 0. -1.
        -11    1    3    3    0    0 -0.16882021901E+02  0.23791585975E+02 -0.18128913525E+02  0.34346757235E+02  0.51100000000E-03 0.  1.
         12    1    3    3    0    0  0.19633779751E+02 -0.35178389312E+02  0.16362526617E+02  0.43482601799E+02  0.00000000000E+00 0. -1.
</event>
<event>
 7    1  0.1756449E-015  0.9000776E+02  0.7816164E-02  0.1186339E+00
        -11   -1    0    0    0    0  0.00000000000E+00  0.00000000000E+00  0.45593999997E+02  0.45594000000E+02  0.51100000000E-03 0.  1.
         11   -1    0    0    0    0 -0.00000000000E+00 -0.00000000000E+00 -0.45593999997E+02  0.45594000000E+02  0.51100000000E-03 0. -1.
    9900012    2    1    2    0    0  0.39523675652E-01 -0.73954401826E+00 -0.91896135607E+00  0.90007755343E+02  0.90000016914E+02 0.  0.
        -12    1    1    2    0    0 -0.39523675652E-01  0.73954401826E+00  0.91896135607E+00  0.11802446568E+01  0.00000000000E+00 0.  1.
         11    1    3    3    0    0  0.34303363294E+02 -0.27494545344E+01  0.14623141868E+01  0.34444427656E+02  0.51100000000E-03 0. -1.
        -11    1    3    3    0    0 -0.10349702849E+01 -0.11665690760E+02  0.12083992182E+02  0.16828023405E+02  0.51100000000E-03 0.  1.
        -12    1    3    3    0    0 -0.33228869334E+02  0.13675601276E+02 -0.14465267725E+02  0.38735304282E+02  0.00000000000E+00 0.  1.
</event>
<event>
 7    1  0.1756449E-015  0.9000765E+02  0.7816164E-02  0.1186339E+00
        -11   -1    0    0    0    0  0.00000000000E+00  0.00000000000E+00  0.45593999997E+02  0.45594000000E+02  0.51100000000E-03 0.  1.
         11   -1    0    0    0    0 -0.00000000000E+00 -0.00000000000E+00 -0.45593999997E+02  0.45594000000E+02  0.51100000000E-03 0. -1.
    9900012    2    1    2    0    0 -0.69468558855E+00  0.24474674878E+00 -0.92235163538E+00  0.90007651925E+02  0.89999912131E+02 0.  0.
        -12    1    1    2    0    0  0.69468558855E+00 -0.24474674878E+00  0.92235163538E+00  0.11803480746E+01  0.00000000000E+00 0.  1.
         11    1    3    3    0    0  0.74565716053E+01 -0.10657456842E+01  0.68094073673E+01  0.10154028901E+02  0.51100000000E-03 0. -1.
        -11    1    3    3    0    0  0.24815518701E+02 -0.20634042138E+02  0.13424587309E+02  0.34954158666E+02  0.51100000000E-03 0.  1.
         12    1    3    3    0    0 -0.32966775895E+02  0.21944534571E+02 -0.21156346311E+02  0.44899464359E+02  0.00000000000E+00 0. -1.
</event>
<event>
 7    1  0.1756449E-015  0.9000777E+02  0.7816164E-02  0.1186339E+00
        -11   -1    0    0    0    0  0.00000000000E+00  0.00000000000E+00  0.45593999997E+02  0.45594000000E+02  0.51100000000E-03 0. -1.
         11   -1    0    0    0    0 -0.00000000000E+00 -0.00000000000E+00 -0.45593999997E+02  0.45594000000E+02  0.51100000000E-03 0.  1.
    9900012    2    1    2    0    0 -0.58558932086E+00 -0.10242664716E+01  0.29928311542E-01  0.90007774445E+02  0.90000036267E+02 0.  0.
        -12    1    1    2    0    0  0.58558932086E+00  0.10242664716E+01 -0.29928311542E-01  0.11802255553E+01  0.00000000000E+00 0.  1.
         11    1    3    3    0    0 -0.32045009476E+02  0.12400072179E+02 -0.19517586897E+02  0.39516839713E+02  0.51100000000E-03 0. -1.
        -11    1    3    3    0    0  0.64130117148E+00 -0.62009383201E+01 -0.68593047535E+01  0.92689247059E+01  0.51100000000E-03 0.  1.
        -12    1    3    3    0    0  0.30818118984E+02 -0.72234003309E+01  0.26406819962E+02  0.41222010026E+02  0.00000000000E+00 0.  1.
</event>
<event>
 7    1  0.1756449E-015  0.9000765E+02  0.7816164E-02  0.1186339E+00
        -11   -1    0    0    0    0  0.00000000000E+00  0.00000000000E+00  0.45593999997E+02  0.45594000000E+02  0.51100000000E-03 0. -1.
         11   -1    0    0    0    0 -0.00000000000E+00 -0.00000000000E+00 -0.45593999997E+02  0.45594000000E+02  0.51100000000E-03 0.  1.
    9900012    2    1    2    0    0  0.68737612835E+00  0.36499305767E+00  0.88742723166E+00  0.90007647101E+02  0.89999907243E+02 0.  0.
        -12    1    1    2    0    0 -0.68737612835E+00 -0.36499305767E+00 -0.88742723166E+00  0.11803528987E+01  0.00000000000E+00 0.  1.
         11    1    3    3    0    0  0.21179814456E+01  0.26764013609E+01 -0.11607664965E+02  0.12099043592E+02  0.51100000000E-03 0. -1.
        -11    1    3    3    0    0 -0.34311387238E+02  0.14130969166E+02 -0.45524602589E+01  0.37385565108E+02  0.51100000000E-03 0.  1.
         12    1    3    3    0    0  0.32880781921E+02 -0.16442377469E+02  0.17047552455E+02  0.40523038401E+02  0.00000000000E+00 0. -1.
</event>
<event>
 7    1  0.1756449E-015  0.9000773E+02  0.7816164E-02  0.1186339E+00
        -11   -1    0    0    0    0  0.00000000000E+00  0.00000000000E+00  0.45593999997E+02  0.45594000000E+02  0.51100000000E-03 0.  1.
         11   -1    0    0    0    0 -0.00000000000E+00 -0.00000000000E+00 -0.45593999997E+02  0.45594000000E+02  0.51100000000E-03 0. -1.
    9900012    2    1    2    0    0 -0.11159277725E+01 -0.37860999960E+00 -0.66268473160E-01  0.90007732303E+02  0.89999993570E+02 0.  0.
        -12    1    1    2    0    0  0.11159277725E+01  0.37860999960E+00  0.66268473160E-01  0.11802676967E+01  0.00000000000E+00 0.  1.
         11    1    3    3    0    0 -0.16293413740E+02 -0.10978243917E+02 -0.25340917619E+02  0.32064922842E+02  0.51100000000E-03 0. -1.
        -11    1    3    3    0    0  0.14372102445E+02 -0.17935621394E+02  0.15696934207E+02  0.27832311927E+02  0.51100000000E-03 0.  1.
        -12    1    3    3    0    0  0.80538352287E+00  0.28535255311E+02  0.95777149389E+01  0.30110497534E+02  0.00000000000E+00 0.  1.
</event>
<event>
 7    1  0.1756449E-015  0.9000772E+02  0.7816164E-02  0.1186339E+00
        -11   -1    0    0    0    0  0.00000000000E+00  0.00000000000E+00  0.45593999997E+02  0.45594000000E+02  0.51100000000E-03 0. -1.
         11   -1    0    0    0    0 -0.00000000000E+00 -0.00000000000E+00 -0.45593999997E+02  0.45594000000E+02  0.51100000000E-03 0.  1.
    9900012    2    1    2    0    0  0.38656887457E+00 -0.53128409424E+00  0.98049022528E+00  0.90007720641E+02  0.89999981753E+02 0.  0.
        -12    1    1    2    0    0 -0.38656887457E+00  0.53128409424E+00 -0.98049022528E+00  0.11802793591E+01  0.00000000000E+00 0.  1.
         11    1    3    3    0    0  0.42244432100E+01 -0.20502262054E+02  0.18667699980E+02  0.28047668220E+02  0.51100000000E-03 0. -1.
        -11    1    3    3    0    0 -0.12076211965E+02 -0.10155267912E+02  0.11253394294E+02  0.19380486196E+02  0.51100000000E-03 0.  1.
        -12    1    3    3    0    0  0.82383376300E+01  0.30126245871E+02 -0.28940604049E+02  0.42579566225E+02  0.00000000000E+00 0.  1.
</event>
<event>
 7    1  0.1756449E-015  0.9000774E+02  0.7816164E-02  0.1186339E+00
        -11   -1    0    0    0    0  0.00000000000E+00  0.00000000000E+00  0.45593999997E+02  0.45594000000E+02  0.51100000000E-03 0.  1.
         11   -1    0    0    0    0 -0.00000000000E+00 -0.00000000000E+00 -0.45593999997E+02  0.45594000000E+02  0.51100000000E-03 0. -1.
    9900012    2    1    2    0    0  0.85011526280E+00 -0.58775042945E+00 -0.56996468906E+00  0.90007743132E+02  0.90000004541E+02 0.  0.
        -12    1    1    2    0    0 -0.85011526280E+00  0.58775042945E+00  0.56996468906E+00  0.11802568679E+01  0.00000000000E+00 0.  1.
         11    1    3    3    0    0 -0.43032133568E+01 -0.62385081091E+01  0.49551273405E+01  0.90548283166E+01  0.51100000000E-03 0. -1.
        -11    1    3    3    0    0  0.37192265188E+02 -0.16904402650E+02 -0.82422132130E+01  0.41676822068E+02  0.51100000000E-03 0.  1.
         12    1    3    3    0    0 -0.32038936569E+02  0.22555160330E+02  0.27171211834E+01  0.39276092747E+02  0.00000000000E+00 0. -1.
</event>
<event>
 7    1  0.1756449E-015  0.9000779E+02  0.7816164E-02  0.1186339E+00
        -11   -1    0    0    0    0  0.00000000000E+00  0.00000000000E+00  0.45593999997E+02  0.45594000000E+02  0.51100000000E-03 0. -1.
         11   -1    0    0    0    0 -0.00000000000E+00 -0.00000000000E+00 -0.45593999997E+02  0.45594000000E+02  0.51100000000E-03 0.  1.
    9900012    2    1    2    0    0  0.54365885447E+00 -0.96869331003E+00  0.39870564969E+00  0.90007789055E+02  0.90000051071E+02 0.  0.
        -12    1    1    2    0    0 -0.54365885447E+00  0.96869331003E+00 -0.39870564969E+00  0.11802109447E+01  0.00000000000E+00 0.  1.
         11    1    3    3    0    0 -0.37065789525E+01 -0.97385975501E+01  0.54173703899E+00  0.10434198055E+02  0.51100000000E-03 0. -1.
        -11    1    3    3    0    0  0.49625552117E+01 -0.18445125489E+02  0.32113025784E+02  0.37364368505E+02  0.51100000000E-03 0.  1.
         12    1    3    3    0    0 -0.71231740473E+00  0.27215029729E+02 -0.32256057174E+02  0.42209222495E+02  0.00000000000E+00 0. -1.
</event>
<event>
 7    1  0.1756449E-015  0.9000780E+02  0.7816164E-02  0.1186339E+00
        -11   -1    0    0    0    0  0.00000000000E+00  0.00000000000E+00  0.45593999997E+02  0.45594000000E+02  0.51100000000E-03 0. -1.
         11   -1    0    0    0    0 -0.00000000000E+00 -0.00000000000E+00 -0.45593999997E+02  0.45594000000E+02  0.51100000000E-03 0.  1.
    9900012    2    1    2    0    0 -0.51193368304E+00  0.16755718249E+00  0.10501028982E+01  0.90007801880E+02  0.90000064065E+02 0.  0.
        -12    1    1    2    0    0  0.51193368304E+00 -0.16755718249E+00 -0.10501028982E+01  0.11801981198E+01  0.00000000000E+00 0.  1.
         11    1    3    3    0    0 -0.53173720378E+01  0.70785110209E+01 -0.65285530915E+01  0.11000080427E+02  0.51100000000E-03 0. -1.
        -11    1    3    3    0    0 -0.30354621007E+02  0.27222248116E+00  0.24804444530E+02  0.39201244754E+02  0.51100000000E-03 0.  1.
         12    1    3    3    0    0  0.35160059362E+02 -0.71831763195E+01 -0.17225788541E+02  0.39806476699E+02  0.00000000000E+00 0. -1.
</event>
<event>
 7    1  0.1756449E-015  0.9000776E+02  0.7816164E-02  0.1186339E+00
        -11   -1    0    0    0    0  0.00000000000E+00  0.00000000000E+00  0.45593999997E+02  0.45594000000E+02  0.51100000000E-03 0.  1.
         11   -1    0    0    0    0 -0.00000000000E+00 -0.00000000000E+00 -0.45593999997E+02  0.45594000000E+02  0.51100000000E-03 0. -1.
    9900012    2    1    2    0    0 -0.58202467809E+00 -0.65282007093E+00 -0.79249632319E+00  0.90007755452E+02  0.90000017024E+02 0.  0.
        -12    1    1    2    0    0  0.58202467809E+00  0.65282007093E+00  0.79249632319E+00  0.11802445480E+01  0.00000000000E+00 0.  1.
         11    1    3    3    0    0 -0.13217665060E+02 -0.32731741062E+02  0.94472922590E+01  0.36542097283E+02  0.51100000000E-03 0. -1.
        -11    1    3    3    0    0  0.43447482773E+01 -0.83770709945E+01  0.33136608527E+01  0.10001625095E+02  0.51100000000E-03 0.  1.
        -12    1    3    3    0    0  0.82908921041E+01  0.40455991986E+02 -0.13553449435E+02  0.43464033073E+02  0.00000000000E+00 0.  1.
</event>
<event>
 7    1  0.2642886E-015  0.9000773E+02  0.7816164E-02  0.1186339E+00
        -11   -1    0    0    0    0  0.00000000000E+00  0.00000000000E+00  0.45593999997E+02  0.45594000000E+02  0.51100000000E-03 0. -1.
         11   -1    0    0    0    0 -0.00000000000E+00 -0.00000000000E+00 -0.45593999997E+02  0.45594000000E+02  0.51100000000E-03 0.  1.
    9900012    2    1    2    0    0 -0.30087180846E+00  0.40615342592E+00  0.10665610119E+01  0.90007730182E+02  0.89999991421E+02 0.  0.
        -12    1    1    2    0    0  0.30087180846E+00 -0.40615342592E+00 -0.10665610119E+01  0.11802698178E+01  0.00000000000E+00 0.  1.
         11    1    3    3    0    0 -0.16827370968E+02 -0.11920365314E+01  0.34565868730E+02  0.38462717612E+02  0.51100000000E-03 0. -1.
        -11    1    3    3    0    0 -0.97991297537E+01  0.11456969414E+01 -0.12998178891E+01  0.99511352225E+01  0.51100000000E-03 0.  1.
        -12    1    3    3    0    0  0.26325628913E+02  0.45249301592E+00 -0.32199489829E+02  0.41593877348E+02  0.00000000000E+00 0.  1.
</event>
<event>
 7    1  0.1756449E-015  0.9000768E+02  0.7816164E-02  0.1186339E+00
        -11   -1    0    0    0    0  0.00000000000E+00  0.00000000000E+00  0.45593999997E+02  0.45594000000E+02  0.51100000000E-03 0. -1.
         11   -1    0    0    0    0 -0.00000000000E+00 -0.00000000000E+00 -0.45593999997E+02  0.45594000000E+02  0.51100000000E-03 0.  1.
    9900012    2    1    2    0    0  0.60429178020E+00  0.70710275425E+00  0.72662379827E+00  0.90007684362E+02  0.89999944996E+02 0.  0.
        -12    1    1    2    0    0 -0.60429178020E+00 -0.70710275425E+00 -0.72662379827E+00  0.11803156378E+01  0.00000000000E+00 0.  1.
         11    1    3    3    0    0  0.56421352014E+01 -0.23727142105E+01 -0.93761012373E+01  0.11197086095E+02  0.51100000000E-03 0. -1.
        -11    1    3    3    0    0 -0.34915721499E+02 -0.63092566326E+01 -0.15149236451E+02  0.38579964909E+02  0.51100000000E-03 0.  1.
         12    1    3    3    0    0  0.29877878078E+02  0.93890735974E+01  0.25251961486E+02  0.40230633358E+02  0.00000000000E+00 0. -1.
</event>
<event>
 7    1  0.1756449E-015  0.9000789E+02  0.7816164E-02  0.1186339E+00
        -11   -1    0    0    0    0  0.00000000000E+00  0.00000000000E+00  0.45593999997E+02  0.45594000000E+02  0.51100000000E-03 0. -1.
         11   -1    0    0    0    0 -0.00000000000E+00 -0.00000000000E+00 -0.45593999997E+02  0.45594000000E+02  0.51100000000E-03 0.  1.
    9900012    2    1    2    0    0  0.43437969200E+00  0.54270062261E+00  0.95364873062E+00  0.90007891707E+02  0.90000155077E+02 0.  0.
        -12    1    1    2    0    0 -0.43437969200E+00 -0.54270062261E+00 -0.95364873062E+00  0.11801082933E+01  0.00000000000E+00 0.  1.
         11    1    3    3    0    0 -0.19741004436E+02 -0.20851400626E+02  0.23225136565E+02  0.36930950880E+02  0.51100000000E-03 0. -1.
        -11    1    3    3    0    0 -0.73711305256E+01 -0.49035050772E+01  0.20432748898E+00  0.88554885383E+01  0.51100000000E-03 0.  1.
        -12    1    3    3    0    0  0.27546514653E+02  0.26297606326E+02 -0.22475815323E+02  0.44221452288E+02  0.00000000000E+00 0.  1.
</event>
<event>
 7    1  0.1756449E-015  0.9000776E+02  0.7816164E-02  0.1186339E+00
        -11   -1    0    0    0    0  0.00000000000E+00  0.00000000000E+00  0.45593999997E+02  0.45594000000E+02  0.51100000000E-03 0. -1.
         11   -1    0    0    0    0 -0.00000000000E+00 -0.00000000000E+00 -0.45593999997E+02  0.45594000000E+02  0.51100000000E-03 0.  1.
    9900012    2    1    2    0    0 -0.61466589311E+00  0.33623307787E+00  0.94979213884E+00  0.90007757673E+02  0.90000019275E+02 0.  0.
        -12    1    1    2    0    0  0.61466589311E+00 -0.33623307787E+00 -0.94979213884E+00  0.11802423267E+01  0.00000000000E+00 0.  1.
         11    1    3    3    0    0  0.23071829889E+01 -0.53742781427E+01 -0.82528610255E+01  0.10115121070E+02  0.51100000000E-03 0. -1.
        -11    1    3    3    0    0 -0.69023742677E+01  0.42146164063E+02  0.47761532011E+01  0.42973870612E+02  0.51100000000E-03 0.  1.
         12    1    3    3    0    0  0.39805253857E+01 -0.36435652842E+02  0.44264999633E+01  0.36918765991E+02  0.00000000000E+00 0. -1.
</event>
<event>
 7    1  0.1756449E-015  0.9000766E+02  0.7816164E-02  0.1186339E+00
        -11   -1    0    0    0    0  0.00000000000E+00  0.00000000000E+00  0.45593999997E+02  0.45594000000E+02  0.51100000000E-03 0. -1.
         11   -1    0    0    0    0 -0.00000000000E+00 -0.00000000000E+00 -0.45593999997E+02  0.45594000000E+02  0.51100000000E-03 0.  1.
    9900012    2    1    2    0    0 -0.23502509153E+00 -0.11560418979E+01  0.39229249113E-01  0.90007657424E+02  0.89999917702E+02 0.  0.
        -12    1    1    2    0    0  0.23502509153E+00  0.11560418979E+01 -0.39229249113E-01  0.11803425762E+01  0.00000000000E+00 0.  1.
         11    1    3    3    0    0  0.75464372768E+00 -0.51548497009E+01 -0.94461665564E+01  0.10787586638E+02  0.51100000000E-03 0. -1.
        -11    1    3    3    0    0  0.20914508978E+02 -0.25137781559E+02 -0.14304135664E+02  0.35692198656E+02  0.51100000000E-03 0.  1.
         12    1    3    3    0    0 -0.21904177797E+02  0.29136589363E+02  0.23789531470E+02  0.43527872130E+02  0.00000000000E+00 0. -1.
</event>
<event>
 7    1  0.2955174E-015  0.9000799E+02  0.7816164E-02  0.1186339E+00
        -11   -1    0    0    0    0  0.00000000000E+00  0.00000000000E+00  0.45593999997E+02  0.45594000000E+02  0.51100000000E-03 0. -1.
         11   -1    0    0    0    0 -0.00000000000E+00 -0.00000000000E+00 -0.45593999997E+02  0.45594000000E+02  0.51100000000E-03 0.  1.
    9900012    2    1    2    0    0 -0.66785403886E+00 -0.70997982747E+00  0.66508023287E+00  0.90007986403E+02  0.90000251023E+02 0.  0.
        -12    1    1    2    0    0  0.66785403886E+00  0.70997982747E+00 -0.66508023287E+00  0.11800135969E+01  0.00000000000E+00 0.  1.
         11    1    3    3    0    0 -0.27071140731E+00 -0.81576110655E+01 -0.46489335787E+01  0.93932149258E+01  0.51100000000E-03 0. -1.
        -11    1    3    3    0    0 -0.15489755739E+02 -0.16810685636E+02 -0.28378318315E+02  0.36439822105E+02  0.51100000000E-03 0.  1.
         12    1    3    3    0    0  0.15092613107E+02  0.24258316874E+02  0.33692332127E+02  0.44174949373E+02  0.00000000000E+00 0. -1.
</event>
<event>
 7    1  0.1756449E-015  0.9000757E+02  0.7816164E-02  0.1186339E+00
        -11   -1    0    0    0    0  0.00000000000E+00  0.00000000000E+00  0.45593999997E+02  0.45594000000E+02  0.51100000000E-03 0.  1.
         11   -1    0    0    0    0 -0.00000000000E+00 -0.00000000000E+00 -0.45593999997E+02  0.45594000000E+02  0.51100000000E-03 0. -1.
    9900012    2    1    2    0    0  0.48453817273E+00  0.29468688196E+00 -0.10352820829E+01  0.90007565084E+02  0.89999824143E+02 0.  0.
        -12    1    1    2    0    0 -0.48453817273E+00 -0.29468688196E+00  0.10352820829E+01  0.11804349158E+01  0.00000000000E+00 0.  1.
         11    1    3    3    0    0  0.22255290864E+01 -0.56671154940E+01 -0.34707021711E+02  0.35237005179E+02  0.51100000000E-03 0. -1.
        -11    1    3    3    0    0 -0.30312695698E+01  0.76383238851E+01 -0.89187749287E+01  0.12127536166E+02  0.51100000000E-03 0.  1.
        -12    1    3    3    0    0  0.12902786561E+01 -0.16765215092E+01  0.42590514556E+02  0.42643023738E+02  0.00000000000E+00 0.  1.
</event>
<event>
 7    1  0.1756449E-015  0.9000751E+02  0.7816164E-02  0.1186340E+00
        -11   -1    0    0    0    0  0.00000000000E+00  0.00000000000E+00  0.45593999997E+02  0.45594000000E+02  0.51100000000E-03 0.  1.
         11   -1    0    0    0    0 -0.00000000000E+00 -0.00000000000E+00 -0.45593999997E+02  0.45594000000E+02  0.51100000000E-03 0. -1.
    9900012    2    1    2    0    0  0.32272712827E+00  0.26613045241E+00 -0.11038957953E+01  0.90007506822E+02  0.89999765112E+02 0.  0.
        -12    1    1    2    0    0 -0.32272712827E+00 -0.26613045241E+00  0.11038957953E+01  0.11804931782E+01  0.00000000000E+00 0.  1.
         11    1    3    3    0    0 -0.61591648716E+01  0.60965107888E+01  0.54824584981E+01  0.10254760219E+02  0.51100000000E-03 0. -1.
        -11    1    3    3    0    0  0.23856208477E+02 -0.73134027377E+01  0.30121282754E+02  0.39113887783E+02  0.51100000000E-03 0.  1.
         12    1    3    3    0    0 -0.17374316478E+02  0.14830224013E+01 -0.36707637047E+02  0.40638858819E+02  0.00000000000E+00 0. -1.
</event>
<event>
 7    1  0.1756449E-015  0.9000775E+02  0.7816164E-02  0.1186339E+00
        -11   -1    0    0    0    0  0.00000000000E+00  0.00000000000E+00  0.45593999997E+02  0.45594000000E+02  0.51100000000E-03 0.  1.
         11   -1    0    0    0    0 -0.00000000000E+00 -0.00000000000E+00 -0.45593999997E+02  0.45594000000E+02  0.51100000000E-03 0. -1.
    9900012    2    1    2    0    0  0.48171297665E+00 -0.10770684955E+01 -0.29584579152E-01  0.90007746136E+02  0.90000007585E+02 0.  0.
        -12    1    1    2    0    0 -0.48171297665E+00  0.10770684955E+01  0.29584579152E-01  0.11802538639E+01  0.00000000000E+00 0.  1.
         11    1    3    3    0    0  0.31574385414E+02  0.65024507394E+01 -0.16815094238E+02  0.36358920149E+02  0.51100000000E-03 0. -1.
        -11    1    3    3    0    0 -0.69919979514E+00  0.67064055514E+01 -0.90442241351E+01  0.11281079126E+02  0.51100000000E-03 0.  1.
        -12    1    3    3    0    0 -0.30393472642E+02 -0.14285924786E+02  0.25829733794E+02  0.42367746862E+02  0.00000000000E+00 0.  1.
</event>
<event>
 7    1  0.1756449E-015  0.9000788E+02  0.7816164E-02  0.1186339E+00
        -11   -1    0    0    0    0  0.00000000000E+00  0.00000000000E+00  0.45593999997E+02  0.45594000000E+02  0.51100000000E-03 0. -1.
         11   -1    0    0    0    0 -0.00000000000E+00 -0.00000000000E+00 -0.45593999997E+02  0.45594000000E+02  0.51100000000E-03 0.  1.
    9900012    2    1    2    0    0  0.43845988369E+00 -0.77927912452E+00 -0.77017538876E+00  0.90007875789E+02  0.90000138949E+02 0.  0.
        -12    1    1    2    0    0 -0.43845988369E+00  0.77927912452E+00  0.77017538876E+00  0.11801242108E+01  0.00000000000E+00 0.  1.
         11    1    3    3    0    0 -0.29556589218E+02  0.21825915301E+02 -0.19919954890E+00  0.36742376429E+02  0.51100000000E-03 0. -1.
        -11    1    3    3    0    0 -0.14487723392E+01  0.71298784141E+01 -0.62833369163E+01  0.96132424579E+01  0.51100000000E-03 0.  1.
        -12    1    3    3    0    0  0.31443821441E+02 -0.29735072840E+02  0.57123610764E+01  0.43652256902E+02  0.00000000000E+00 0.  1.
</event>
<event>
 7    1  0.2255181E-015  0.9000775E+02  0.7816164E-02  0.1186339E+00
        -11   -1    0    0    0    0  0.00000000000E+00  0.00000000000E+00  0.45593999997E+02  0.45594000000E+02  0.51100000000E-03 0. -1.
         11   -1    0    0    0    0 -0.00000000000E+00 -0.00000000000E+00 -0.45593999997E+02  0.45594000000E+02  0.51100000000E-03 0.  1.
    9900012    2    1    2    0    0 -0.54759060177E+00 -0.36234977103E+00  0.98072776721E+00  0.90007754357E+02  0.90000015915E+02 0.  0.
        -12    1    1    2    0    0  0.54759060177E+00  0.36234977103E+00 -0.98072776721E+00  0.11802456427E+01  0.00000000000E+00 0.  1.
         11    1    3    3    0    0 -0.53390301217E+01 -0.30922241745E+02  0.21179159415E+02  0.37858249708E+02  0.51100000000E-03 0. -1.
        -11    1    3    3    0    0  0.73161061325E+01 -0.59272079425E+01  0.16309851071E+01  0.95560093981E+01  0.51100000000E-03 0.  1.
        -12    1    3    3    0    0 -0.25246666125E+01  0.36487099917E+02 -0.21829416755E+02  0.42593495251E+02  0.00000000000E+00 0.  1.
</event>
<event>
 7    1  0.1756449E-015  0.9000774E+02  0.7816164E-02  0.1186339E+00
        -11   -1    0    0    0    0  0.00000000000E+00  0.00000000000E+00  0.45593999997E+02  0.45594000000E+02  0.51100000000E-03 0.  1.
         11   -1    0    0    0    0 -0.00000000000E+00 -0.00000000000E+00 -0.45593999997E+02  0.45594000000E+02  0.51100000000E-03 0. -1.
    9900012    2    1    2    0    0 -0.20944997363E-01 -0.93369554821E+00 -0.72165855744E+00  0.90007738528E+02  0.89999999876E+02 0.  0.
        -12    1    1    2    0    0  0.20944997363E-01  0.93369554821E+00  0.72165855744E+00  0.11802614724E+01  0.00000000000E+00 0.  1.
         11    1    3    3    0    0  0.32785701383E+02  0.14662684938E+02 -0.20128176200E+02  0.41170863753E+02  0.51100000000E-03 0. -1.
        -11    1    3    3    0    0 -0.71658112727E+01 -0.26124030223E+01 -0.65925202070E+01  0.10081409806E+02  0.51100000000E-03 0.  1.
        -12    1    3    3    0    0 -0.25640835107E+02 -0.12983977464E+02  0.25999037850E+02  0.38755464968E+02  0.00000000000E+00 0.  1.
</event>
<event>
 7    1  0.1756449E-015  0.9000768E+02  0.7816164E-02  0.1186339E+00
        -11   -1    0    0    0    0  0.00000000000E+00  0.00000000000E+00  0.45593999997E+02  0.45594000000E+02  0.51100000000E-03 0.  1.
         11   -1    0    0    0    0 -0.00000000000E+00 -0.00000000000E+00 -0.45593999997E+02  0.45594000000E+02  0.51100000000E-03 0. -1.
    9900012    2    1    2    0    0 -0.86926161018E+00 -0.16832943532E+00  0.78051113366E+00  0.90007683019E+02  0.89999943635E+02 0.  0.
        -12    1    1    2    0    0  0.86926161018E+00  0.16832943532E+00 -0.78051113366E+00  0.11803169809E+01  0.00000000000E+00 0.  1.
         11    1    3    3    0    0  0.51467381589E+01  0.74560450521E+01  0.45880762597E+01  0.10155390958E+02  0.51100000000E-03 0. -1.
        -11    1    3    3    0    0  0.36414646772E+02  0.67442752195E+00  0.30863120628E+00  0.36422199350E+02  0.51100000000E-03 0.  1.
         12    1    3    3    0    0 -0.42430646541E+02 -0.82988020093E+01 -0.41161963323E+01  0.43430092711E+02  0.00000000000E+00 0. -1.
</event>
<event>
 7    1  0.1756449E-015  0.9000774E+02  0.7816164E-02  0.1186339E+00
        -11   -1    0    0    0    0  0.00000000000E+00  0.00000000000E+00  0.45593999997E+02  0.45594000000E+02  0.51100000000E-03 0. -1.
         11   -1    0    0    0    0 -0.00000000000E+00 -0.00000000000E+00 -0.45593999997E+02  0.45594000000E+02  0.51100000000E-03 0.  1.
    9900012    2    1    2    0    0  0.60051154967E+00  0.81471794170E+00  0.60715149543E+00  0.90007740544E+02  0.90000001919E+02 0.  0.
        -12    1    1    2    0    0 -0.60051154967E+00 -0.81471794170E+00 -0.60715149543E+00  0.11802594563E+01  0.00000000000E+00 0.  1.
         11    1    3    3    0    0 -0.98529988718E+01  0.13130218033E+01 -0.70173764426E+01  0.12167546401E+02  0.51100000000E-03 0. -1.
        -11    1    3    3    0    0  0.13293323624E+02  0.35544561460E+02 -0.74421450849E+01  0.38671873837E+02  0.51100000000E-03 0.  1.
         12    1    3    3    0    0 -0.28398132022E+01 -0.36042865321E+02  0.15066673023E+02  0.39168320306E+02  0.00000000000E+00 0. -1.
</event>
<event>
 7    1  0.1756449E-015  0.9000778E+02  0.7816164E-02  0.1186339E+00
        -11   -1    0    0    0    0  0.00000000000E+00  0.00000000000E+00  0.45593999997E+02  0.45594000000E+02  0.51100000000E-03 0.  1.
         11   -1    0    0    0    0 -0.00000000000E+00 -0.00000000000E+00 -0.45593999997E+02  0.45594000000E+02  0.51100000000E-03 0. -1.
    9900012    2    1    2    0    0  0.14563978634E+00  0.93290047888E+00 -0.70810637490E+00  0.90007775916E+02  0.90000037758E+02 0.  0.
        -12    1    1    2    0    0 -0.14563978634E+00 -0.93290047888E+00  0.70810637490E+00  0.11802240842E+01  0.00000000000E+00 0.  1.
         11    1    3    3    0    0  0.68118578014E+01 -0.51868042889E+01  0.25732795350E+00  0.85656618760E+01  0.51100000000E-03 0. -1.
        -11    1    3    3    0    0 -0.27164113192E+02 -0.11665279610E+02  0.28723460595E+02  0.41218988133E+02  0.51100000000E-03 0.  1.
         12    1    3    3    0    0  0.20497895177E+02  0.17784984378E+02 -0.29688894923E+02  0.40223125907E+02  0.00000000000E+00 0. -1.
</event>
<event>
 7    1  0.1756449E-015  0.9000773E+02  0.7816164E-02  0.1186339E+00
        -11   -1    0    0    0    0  0.00000000000E+00  0.00000000000E+00  0.45593999997E+02  0.45594000000E+02  0.51100000000E-03 0. -1.
         11   -1    0    0    0    0 -0.00000000000E+00 -0.00000000000E+00 -0.45593999997E+02  0.45594000000E+02  0.51100000000E-03 0.  1.
    9900012    2    1    2    0    0  0.90660801056E+00  0.41530298569E+00  0.63135711510E+00  0.90007734580E+02  0.89999995877E+02 0.  0.
        -12    1    1    2    0    0 -0.90660801056E+00 -0.41530298569E+00 -0.63135711510E+00  0.11802654199E+01  0.00000000000E+00 0.  1.
         11    1    3    3    0    0  0.48651436464E+01  0.32025032869E+01  0.37685799930E+01  0.69374235439E+01  0.51100000000E-03 0. -1.
        -11    1    3    3    0    0 -0.11300906396E+02  0.36550003713E+02 -0.15364761010E+02  0.41227286327E+02  0.51100000000E-03 0.  1.
         12    1    3    3    0    0  0.73423707600E+01 -0.39337204014E+02  0.12227538132E+02  0.41843024709E+02  0.00000000000E+00 0. -1.
</event>
<event>
 7    1  0.1756449E-015  0.9000786E+02  0.7816164E-02  0.1186339E+00
        -11   -1    0    0    0    0  0.00000000000E+00  0.00000000000E+00  0.45593999997E+02  0.45594000000E+02  0.51100000000E-03 0.  1.
         11   -1    0    0    0    0 -0.00000000000E+00 -0.00000000000E+00 -0.45593999997E+02  0.45594000000E+02  0.51100000000E-03 0. -1.
    9900012    2    1    2    0    0 -0.10221365745E+01  0.54421636256E+00 -0.22758774869E+00  0.90007859835E+02  0.90000122785E+02 0.  0.
        -12    1    1    2    0    0  0.10221365745E+01 -0.54421636256E+00  0.22758774869E+00  0.11801401652E+01  0.00000000000E+00 0.  1.
         11    1    3    3    0    0 -0.80531046597E+01 -0.65600380409E+01  0.78565460398E+00  0.10416517997E+02  0.51100000000E-03 0. -1.
        -11    1    3    3    0    0 -0.29277967822E+02  0.61705315372E+01  0.21512923120E+02  0.36852146758E+02  0.51100000000E-03 0.  1.
         12    1    3    3    0    0  0.36308935908E+02  0.93372286620E+00 -0.22526165473E+02  0.42739195080E+02  0.00000000000E+00 0. -1.
</event>
<event>
 7    1  0.1756449E-015  0.9000765E+02  0.7816164E-02  0.1186339E+00
        -11   -1    0    0    0    0  0.00000000000E+00  0.00000000000E+00  0.45593999997E+02  0.45594000000E+02  0.51100000000E-03 0. -1.
         11   -1    0    0    0    0 -0.00000000000E+00 -0.00000000000E+00 -0.45593999997E+02  0.45594000000E+02  0.51100000000E-03 0.  1.
    9900012    2    1    2    0    0 -0.53459894815E+00 -0.10449103000E+01 -0.12486222196E+00  0.90007650838E+02  0.89999911029E+02 0.  0.
        -12    1    1    2    0    0  0.53459894815E+00  0.10449103000E+01  0.12486222196E+00  0.11803491622E+01  0.00000000000E+00 0.  1.
         11    1    3    3    0    0 -0.61740768252E+01 -0.13689952790E+02 -0.48062331766E+00  0.15025479396E+02  0.51100000000E-03 0. -1.
        -11    1    3    3    0    0 -0.31083228953E+02 -0.24199703095E+01 -0.12005926856E+02  0.33409065512E+02  0.51100000000E-03 0.  1.
         12    1    3    3    0    0  0.36722706830E+02  0.15065012800E+02  0.12361687951E+02  0.41573105930E+02  0.00000000000E+00 0. -1.
</event>
<event>
 7    1  0.1756449E-015  0.9000774E+02  0.7816164E-02  0.1186339E+00
        -11   -1    0    0    0    0  0.00000000000E+00  0.00000000000E+00  0.45593999997E+02  0.45594000000E+02  0.51100000000E-03 0.  1.
         11   -1    0    0    0    0 -0.00000000000E+00 -0.00000000000E+00 -0.45593999997E+02  0.45594000000E+02  0.51100000000E-03 0. -1.
    9900012    2    1    2    0    0  0.63152653944E+00 -0.70083078058E+00 -0.70923529629E+00  0.90007743986E+02  0.90000005407E+02 0.  0.
        -12    1    1    2    0    0 -0.63152653944E+00  0.70083078058E+00  0.70923529629E+00  0.11802560140E+01  0.00000000000E+00 0.  1.
         11    1    3    3    0    0 -0.88251568326E+01  0.32459471019E+00  0.21301187224E+01  0.90843910571E+01  0.51100000000E-03 0. -1.
        -11    1    3    3    0    0 -0.32270347719E+02 -0.15886568904E+02 -0.62093626832E+01  0.36500884902E+02  0.51100000000E-03 0.  1.
         12    1    3    3    0    0  0.41727031091E+02  0.14861143414E+02  0.33700086645E+01  0.44422468027E+02  0.00000000000E+00 0. -1.
</event>
<event>
 7    1  0.1756449E-015  0.9000785E+02  0.7816164E-02  0.1186339E+00
        -11   -1    0    0    0    0  0.00000000000E+00  0.00000000000E+00  0.45593999997E+02  0.45594000000E+02  0.51100000000E-03 0. -1.
         11   -1    0    0    0    0 -0.00000000000E+00 -0.00000000000E+00 -0.45593999997E+02  0.45594000000E+02  0.51100000000E-03 0.  1.
    9900012    2    1    2    0    0 -0.73550789553E+00 -0.74006198635E+00  0.55144715730E+00  0.90007848495E+02  0.90000111295E+02 0.  0.
        -12    1    1    2    0    0  0.73550789553E+00  0.74006198635E+00 -0.55144715730E+00  0.11801515052E+01  0.00000000000E+00 0.  1.
         11    1    3    3    0    0 -0.10756297837E+01 -0.75349503888E+01  0.77327927147E+01  0.10850278348E+02  0.51100000000E-03 0. -1.
        -11    1    3    3    0    0  0.11258321138E+02  0.66341344221E+01 -0.41308473485E+02  0.43326106637E+02  0.51100000000E-03 0.  1.
         12    1    3    3    0    0 -0.10918199250E+02  0.16075398033E+00  0.34127127928E+02  0.35831463510E+02  0.00000000000E+00 0. -1.
</event>
<event>
 7    1  0.1756449E-015  0.9000764E+02  0.7816164E-02  0.1186339E+00
        -11   -1    0    0    0    0  0.00000000000E+00  0.00000000000E+00  0.45593999997E+02  0.45594000000E+02  0.51100000000E-03 0. -1.
         11   -1    0    0    0    0 -0.00000000000E+00 -0.00000000000E+00 -0.45593999997E+02  0.45594000000E+02  0.51100000000E-03 0.  1.
    9900012    2    1    2    0    0 -0.10470069724E+01 -0.49997734766E+00  0.21691206027E+00  0.90007639127E+02  0.89999899164E+02 0.  0.
        -12    1    1    2    0    0  0.10470069724E+01  0.49997734766E+00 -0.21691206027E+00  0.11803608729E+01  0.00000000000E+00 0.  1.
         11    1    3    3    0    0 -0.11932579781E+02  0.45406705949E+01  0.28130837659E+02  0.30892526238E+02  0.51100000000E-03 0. -1.
        -11    1    3    3    0    0  0.12229756114E+02  0.81734134942E+01  0.10759313123E+02  0.18224556013E+02  0.51100000000E-03 0.  1.
        -12    1    3    3    0    0 -0.13441833052E+01 -0.13214061437E+02 -0.38673238722E+02  0.40890556876E+02  0.00000000000E+00 0.  1.
</event>
<event>
 7    1  0.1756449E-015  0.9000772E+02  0.7816164E-02  0.1186339E+00
        -11   -1    0    0    0    0  0.00000000000E+00  0.00000000000E+00  0.45593999997E+02  0.45594000000E+02  0.51100000000E-03 0. -1.
         11   -1    0    0    0    0 -0.00000000000E+00 -0.00000000000E+00 -0.45593999997E+02  0.45594000000E+02  0.51100000000E-03 0.  1.
    9900012    2    1    2    0    0 -0.56321138320E+00 -0.91081330406E+00  0.49626284350E+00  0.90007718361E+02  0.89999979444E+02 0.  0.
        -12    1    1    2    0    0  0.56321138320E+00  0.91081330406E+00 -0.49626284350E+00  0.11802816388E+01  0.00000000000E+00 0.  1.
         11    1    3    3    0    0  0.72007021856E+00 -0.77037947558E+01 -0.59302066629E+01  0.97485540509E+01  0.51100000000E-03 0. -1.
        -11    1    3    3    0    0  0.31068457777E+02 -0.13851506586E+02 -0.13999451863E+02  0.36784479826E+02  0.51100000000E-03 0.  1.
         12    1    3    3    0    0 -0.32351739379E+02  0.20644488037E+02  0.20425921370E+02  0.43474684484E+02  0.00000000000E+00 0. -1.
</event>
<event>
 7    1  0.1756449E-015  0.9000770E+02  0.7816164E-02  0.1186339E+00
        -11   -1    0    0    0    0  0.00000000000E+00  0.00000000000E+00  0.45593999997E+02  0.45594000000E+02  0.51100000000E-03 0.  1.
         11   -1    0    0    0    0 -0.00000000000E+00 -0.00000000000E+00 -0.45593999997E+02  0.45594000000E+02  0.51100000000E-03 0. -1.
    9900012    2    1    2    0    0 -0.10746645261E+00  0.19408020213E+00 -0.11592654439E+01  0.90007698118E+02  0.89999958933E+02 0.  0.
        -12    1    1    2    0    0  0.10746645261E+00 -0.19408020213E+00  0.11592654439E+01  0.11803018820E+01  0.00000000000E+00 0.  1.
         11    1    3    3    0    0  0.35532550142E+01  0.81006543125E+01 -0.73868645670E+00  0.88764789995E+01  0.51100000000E-03 0. -1.
        -11    1    3    3    0    0 -0.33113927742E+02  0.92688986761E+01  0.21539609419E+02  0.40575848326E+02  0.51100000000E-03 0.  1.
         12    1    3    3    0    0  0.29453206275E+02 -0.17175472786E+02 -0.21960188407E+02  0.40555370793E+02  0.00000000000E+00 0. -1.
</event>
<event>
 7    1  0.1756449E-015  0.9000779E+02  0.7816164E-02  0.1186339E+00
        -11   -1    0    0    0    0  0.00000000000E+00  0.00000000000E+00  0.45593999997E+02  0.45594000000E+02  0.51100000000E-03 0. -1.
         11   -1    0    0    0    0 -0.00000000000E+00 -0.00000000000E+00 -0.45593999997E+02  0.45594000000E+02  0.51100000000E-03 0.  1.
    9900012    2    1    2    0    0  0.57113435292E+00 -0.44426088978E+00  0.93237712084E+00  0.90007792695E+02  0.90000054759E+02 0.  0.
        -12    1    1    2    0    0 -0.57113435292E+00  0.44426088978E+00 -0.93237712084E+00  0.11802073050E+01  0.00000000000E+00 0.  1.
         11    1    3    3    0    0 -0.38019352164E+01  0.10440745903E+02 -0.31732997068E+01  0.11555679024E+02  0.51100000000E-03 0. -1.
        -11    1    3    3    0    0  0.20612818486E+02 -0.13000717435E+02 -0.31166536333E+02  0.39563365972E+02  0.51100000000E-03 0.  1.
         12    1    3    3    0    0 -0.16239748917E+02  0.21157106419E+01  0.35272213161E+02  0.38888747700E+02  0.00000000000E+00 0. -1.
</event>
<event>
 7    1  0.1756449E-015  0.9000773E+02  0.7816164E-02  0.1186339E+00
        -11   -1    0    0    0    0  0.00000000000E+00  0.00000000000E+00  0.45593999997E+02  0.45594000000E+02  0.51100000000E-03 0. -1.
         11   -1    0    0    0    0 -0.00000000000E+00 -0.00000000000E+00 -0.45593999997E+02  0.45594000000E+02  0.51100000000E-03 0.  1.
    9900012    2    1    2    0    0 -0.21072391653E+00 -0.51619242559E+00  0.10402743635E+01  0.90007733106E+02  0.89999994383E+02 0.  0.
        -12    1    1    2    0    0  0.21072391653E+00  0.51619242559E+00 -0.10402743635E+01  0.11802668938E+01  0.00000000000E+00 0.  1.
         11    1    3    3    0    0 -0.54356793696E+01  0.99850241158E+01 -0.17827718414E+01  0.11507631924E+02  0.51100000000E-03 0. -1.
        -11    1    3    3    0    0 -0.11616883274E+02 -0.26476135387E+01 -0.34666896416E+02  0.36657271336E+02  0.51100000000E-03 0.  1.
         12    1    3    3    0    0  0.16841838727E+02 -0.78536030027E+01  0.37489942620E+02  0.41842829846E+02  0.00000000000E+00 0. -1.
</event>
<event>
 7    1  0.1756449E-015  0.9000775E+02  0.7816164E-02  0.1186339E+00
        -11   -1    0    0    0    0  0.00000000000E+00  0.00000000000E+00  0.45593999997E+02  0.45594000000E+02  0.51100000000E-03 0.  1.
         11   -1    0    0    0    0 -0.00000000000E+00 -0.00000000000E+00 -0.45593999997E+02  0.45594000000E+02  0.51100000000E-03 0. -1.
    9900012    2    1    2    0    0  0.11300124765E+01  0.29639429233E+00  0.16793987347E+00  0.90007753596E+02  0.90000015143E+02 0.  0.
        -12    1    1    2    0    0 -0.11300124765E+01 -0.29639429233E+00 -0.16793987347E+00  0.11802464042E+01  0.00000000000E+00 0.  1.
         11    1    3    3    0    0  0.22776117482E+01  0.54395511466E+01  0.67574218673E+01  0.89687782059E+01  0.51100000000E-03 0. -1.
        -11    1    3    3    0    0 -0.16337691585E+02  0.11956870620E+02  0.31007172515E+02  0.37031495635E+02  0.51100000000E-03 0.  1.
         12    1    3    3    0    0  0.15190092313E+02 -0.17100027474E+02 -0.37596654509E+02  0.44007479755E+02  0.00000000000E+00 0. -1.
</event>
<event>
 7    1  0.1756449E-015  0.9000768E+02  0.7816164E-02  0.1186339E+00
        -11   -1    0    0    0    0  0.00000000000E+00  0.00000000000E+00  0.45593999997E+02  0.45594000000E+02  0.51100000000E-03 0. -1.
         11   -1    0    0    0    0 -0.00000000000E+00 -0.00000000000E+00 -0.45593999997E+02  0.45594000000E+02  0.51100000000E-03 0.  1.
    9900012    2    1    2    0    0  0.60942624759E+00 -0.91450410072E+00  0.43063571766E+00  0.90007675798E+02  0.89999936318E+02 0.  0.
        -12    1    1    2    0    0 -0.60942624759E+00  0.91450410072E+00 -0.43063571766E+00  0.11803242024E+01  0.00000000000E+00 0.  1.
         11    1    3    3    0    0  0.96186389137E+01 -0.21128673698E+00 -0.24594273868E+01  0.99303393683E+01  0.51100000000E-03 0. -1.
        -11    1    3    3    0    0  0.90723536670E+01 -0.31254706415E+02 -0.19657756765E+02  0.38020937330E+02  0.51100000000E-03 0.  1.
         12    1    3    3    0    0 -0.18081566333E+02  0.30551489052E+02  0.22547819869E+02  0.42056399099E+02  0.00000000000E+00 0. -1.
</event>
<event>
 7    1  0.1756449E-015  0.9000771E+02  0.7816164E-02  0.1186339E+00
        -11   -1    0    0    0    0  0.00000000000E+00  0.00000000000E+00  0.45593999997E+02  0.45594000000E+02  0.51100000000E-03 0. -1.
         11   -1    0    0    0    0 -0.00000000000E+00 -0.00000000000E+00 -0.45593999997E+02  0.45594000000E+02  0.51100000000E-03 0.  1.
    9900012    2    1    2    0    0  0.47626389599E+00  0.71401133060E+00 -0.81020671166E+00  0.90007714274E+02  0.89999975303E+02 0.  0.
        -12    1    1    2    0    0 -0.47626389599E+00 -0.71401133060E+00  0.81020671166E+00  0.11802857258E+01  0.00000000000E+00 0.  1.
         11    1    3    3    0    0  0.96089097304E+01 -0.35353845860E+02 -0.17220665959E+02  0.40481809490E+02  0.51100000000E-03 0. -1.
        -11    1    3    3    0    0  0.72001213226E+01  0.32109794951E+01 -0.24690773242E+01  0.82612637939E+01  0.51100000000E-03 0.  1.
        -12    1    3    3    0    0 -0.16332767157E+02  0.32856877695E+02  0.18879536572E+02  0.41264640990E+02  0.00000000000E+00 0.  1.
</event>
<event>
 7    1  0.1756449E-015  0.9000778E+02  0.7816164E-02  0.1186339E+00
        -11   -1    0    0    0    0  0.00000000000E+00  0.00000000000E+00  0.45593999997E+02  0.45594000000E+02  0.51100000000E-03 0. -1.
         11   -1    0    0    0    0 -0.00000000000E+00 -0.00000000000E+00 -0.45593999997E+02  0.45594000000E+02  0.51100000000E-03 0.  1.
    9900012    2    1    2    0    0 -0.65443931157E+00  0.97523680064E+00 -0.11641367365E+00  0.90007775541E+02  0.90000037378E+02 0.  0.
        -12    1    1    2    0    0  0.65443931157E+00 -0.97523680064E+00  0.11641367365E+00  0.11802244588E+01  0.00000000000E+00 0.  1.
         11    1    3    3    0    0 -0.30021246888E+02  0.13733837686E+02  0.14321142837E+02  0.35985951352E+02  0.51100000000E-03 0. -1.
        -11    1    3    3    0    0 -0.87006192603E+01  0.62549739411E+00  0.40728175184E+01  0.96270382414E+01  0.51100000000E-03 0.  1.
        -12    1    3    3    0    0  0.38067426836E+02 -0.13384098280E+02 -0.18510374029E+02  0.44394785948E+02  0.00000000000E+00 0.  1.
</event>
<event>
 7    1  0.1756449E-015  0.9000772E+02  0.7816164E-02  0.1186339E+00
        -11   -1    0    0    0    0  0.00000000000E+00  0.00000000000E+00  0.45593999997E+02  0.45594000000E+02  0.51100000000E-03 0.  1.
         11   -1    0    0    0    0 -0.00000000000E+00 -0.00000000000E+00 -0.45593999997E+02  0.45594000000E+02  0.51100000000E-03 0. -1.
    9900012    2    1    2    0    0  0.24460784904E-01 -0.10679113620E+01  0.50201947088E+00  0.90007721831E+02  0.89999982959E+02 0.  0.
        -12    1    1    2    0    0 -0.24460784904E-01  0.10679113620E+01 -0.50201947088E+00  0.11802781690E+01  0.00000000000E+00 0.  1.
         11    1    3    3    0    0 -0.32296580501E+02  0.42955655329E+01 -0.15008006551E+02  0.35871454615E+02  0.51100000000E-03 0. -1.
        -11    1    3    3    0    0 -0.32294768983E+01  0.43712491204E+01 -0.85415250448E+01  0.10123980949E+02  0.51100000000E-03 0.  1.
        -12    1    3    3    0    0  0.35550518184E+02 -0.97347260154E+01  0.24051551067E+02  0.44012286267E+02  0.00000000000E+00 0.  1.
</event>
<event>
 7    1  0.1756449E-015  0.9000772E+02  0.7816164E-02  0.1186339E+00
        -11   -1    0    0    0    0  0.00000000000E+00  0.00000000000E+00  0.45593999997E+02  0.45594000000E+02  0.51100000000E-03 0.  1.
         11   -1    0    0    0    0 -0.00000000000E+00 -0.00000000000E+00 -0.45593999997E+02  0.45594000000E+02  0.51100000000E-03 0. -1.
    9900012    2    1    2    0    0  0.47095293745E+00  0.53624357040E+00 -0.94005258841E+00  0.90007723462E+02  0.89999984612E+02 0.  0.
        -12    1    1    2    0    0 -0.47095293745E+00 -0.53624357040E+00  0.94005258841E+00  0.11802765375E+01  0.00000000000E+00 0.  1.
         11    1    3    3    0    0 -0.21341882863E+01  0.14008663624E+01 -0.12319055967E+02  0.12580791962E+02  0.51100000000E-03 0. -1.
        -11    1    3    3    0    0  0.24506548314E+02  0.29878591869E+02  0.85251394327E+01  0.39572454623E+02  0.51100000000E-03 0.  1.
         12    1    3    3    0    0 -0.21901407090E+02 -0.30743214661E+02  0.28538639461E+01  0.37854476877E+02  0.00000000000E+00 0. -1.
</event>
<event>
 7    1  0.1756449E-015  0.9000779E+02  0.7816164E-02  0.1186339E+00
        -11   -1    0    0    0    0  0.00000000000E+00  0.00000000000E+00  0.45593999997E+02  0.45594000000E+02  0.51100000000E-03 0.  1.
         11   -1    0    0    0    0 -0.00000000000E+00 -0.00000000000E+00 -0.45593999997E+02  0.45594000000E+02  0.51100000000E-03 0. -1.
    9900012    2    1    2    0    0  0.11555176423E+01  0.13065676772E+00 -0.20150209888E+00  0.90007790142E+02  0.90000052172E+02 0.  0.
        -12    1    1    2    0    0 -0.11555176423E+01 -0.13065676772E+00  0.20150209888E+00  0.11802098578E+01  0.00000000000E+00 0.  1.
         11    1    3    3    0    0  0.30546569309E+01 -0.67237397556E+01 -0.97575667341E+01  0.12237226569E+02  0.51100000000E-03 0. -1.
        -11    1    3    3    0    0  0.17144394741E+02 -0.27141260561E+02 -0.10719400439E+02  0.33844997295E+02  0.51100000000E-03 0.  1.
         12    1    3    3    0    0 -0.19043534030E+02  0.33995657084E+02  0.20275465074E+02  0.43925566278E+02  0.00000000000E+00 0. -1.
</event>
<event>
 7    1  0.1756449E-015  0.9000773E+02  0.7816164E-02  0.1186339E+00
        -11   -1    0    0    0    0  0.00000000000E+00  0.00000000000E+00  0.45593999997E+02  0.45594000000E+02  0.51100000000E-03 0.  1.
         11   -1    0    0    0    0 -0.00000000000E+00 -0.00000000000E+00 -0.45593999997E+02  0.45594000000E+02  0.51100000000E-03 0. -1.
    9900012    2    1    2    0    0 -0.90807691282E+00  0.20933492121E+00 -0.72430616941E+00  0.90007727059E+02  0.89999988256E+02 0.  0.
        -12    1    1    2    0    0  0.90807691282E+00 -0.20933492121E+00  0.72430616941E+00  0.11802729413E+01  0.00000000000E+00 0.  1.
         11    1    3    3    0    0 -0.11844296683E+02 -0.15865096351E+02 -0.34686901533E+02  0.39939576667E+02  0.51100000000E-03 0. -1.
        -11    1    3    3    0    0 -0.43720845079E+01 -0.74078449025E+01  0.61022275691E+01  0.10546490915E+02  0.51100000000E-03 0.  1.
        -12    1    3    3    0    0  0.15308304278E+02  0.23482276175E+02  0.27860367794E+02  0.39521659477E+02  0.00000000000E+00 0.  1.
</event>
<event>
 7    1  0.1756449E-015  0.9000786E+02  0.7816164E-02  0.1186339E+00
        -11   -1    0    0    0    0  0.00000000000E+00  0.00000000000E+00  0.45593999997E+02  0.45594000000E+02  0.51100000000E-03 0.  1.
         11   -1    0    0    0    0 -0.00000000000E+00 -0.00000000000E+00 -0.45593999997E+02  0.45594000000E+02  0.51100000000E-03 0. -1.
    9900012    2    1    2    0    0  0.54234646447E+00  0.20485815377E+00 -0.10279186240E+01  0.90007863038E+02  0.90000126030E+02 0.  0.
        -12    1    1    2    0    0 -0.54234646447E+00 -0.20485815377E+00  0.10279186240E+01  0.11801369616E+01  0.00000000000E+00 0.  1.
         11    1    3    3    0    0 -0.32335437750E+02 -0.79824883076E+01 -0.15328002266E+02  0.36663991978E+02  0.51100000000E-03 0. -1.
        -11    1    3    3    0    0 -0.76543527814E+01 -0.40757136406E+01  0.49218122949E+01  0.99711982585E+01  0.51100000000E-03 0.  1.
        -12    1    3    3    0    0  0.40532136996E+02  0.12263060102E+02  0.93782713471E+01  0.43372672802E+02  0.00000000000E+00 0.  1.
</event>
<event>
 7    1  0.1756449E-015  0.9000795E+02  0.7816164E-02  0.1186339E+00
        -11   -1    0    0    0    0  0.00000000000E+00  0.00000000000E+00  0.45593999997E+02  0.45594000000E+02  0.51100000000E-03 0.  1.
         11   -1    0    0    0    0 -0.00000000000E+00 -0.00000000000E+00 -0.45593999997E+02  0.45594000000E+02  0.51100000000E-03 0. -1.
    9900012    2    1    2    0    0 -0.46860292546E+00 -0.90095819280E+00 -0.60100947529E+00  0.90007946291E+02  0.90000210382E+02 0.  0.
        -12    1    1    2    0    0  0.46860292546E+00  0.90095819280E+00  0.60100947529E+00  0.11800537091E+01  0.00000000000E+00 0.  1.
         11    1    3    3    0    0  0.33567452597E+01  0.32854168966E+01  0.61857955171E+01  0.77669665484E+01  0.51100000000E-03 0. -1.
        -11    1    3    3    0    0  0.26519313290E+02 -0.11262611625E+02  0.24694952596E+02  0.37946819129E+02  0.51100000000E-03 0.  1.
         12    1    3    3    0    0 -0.30344661476E+02  0.70762365355E+01 -0.31481757589E+02  0.44294160614E+02  0.00000000000E+00 0. -1.
</event>
<event>
 7    1  0.1756449E-015  0.9000780E+02  0.7816164E-02  0.1186339E+00
        -11   -1    0    0    0    0  0.00000000000E+00  0.00000000000E+00  0.45593999997E+02  0.45594000000E+02  0.51100000000E-03 0.  1.
         11   -1    0    0    0    0 -0.00000000000E+00 -0.00000000000E+00 -0.45593999997E+02  0.45594000000E+02  0.51100000000E-03 0. -1.
    9900012    2    1    2    0    0  0.69148598154E+00 -0.58007071878E+00 -0.76042540523E+00  0.90007795908E+02  0.90000058014E+02 0.  0.
        -12    1    1    2    0    0 -0.69148598154E+00  0.58007071878E+00  0.76042540523E+00  0.11802040918E+01  0.00000000000E+00 0.  1.
         11    1    3    3    0    0 -0.59933946027E+01  0.51737759630E+01  0.59665390038E+01  0.99140468288E+01  0.51100000000E-03 0. -1.
        -11    1    3    3    0    0 -0.17231478401E+01  0.82628029030E+01  0.34619582658E+02  0.35633673035E+02  0.51100000000E-03 0.  1.
         12    1    3    3    0    0  0.84080284243E+01 -0.14016649585E+02 -0.41346547067E+02  0.44460076045E+02  0.00000000000E+00 0. -1.
</event>
<event>
 7    1  0.1756449E-015  0.9000764E+02  0.7816164E-02  0.1186339E+00
        -11   -1    0    0    0    0  0.00000000000E+00  0.00000000000E+00  0.45593999997E+02  0.45594000000E+02  0.51100000000E-03 0. -1.
         11   -1    0    0    0    0 -0.00000000000E+00 -0.00000000000E+00 -0.45593999997E+02  0.45594000000E+02  0.51100000000E-03 0.  1.
    9900012    2    1    2    0    0  0.11679091682E+01  0.20125236316E-01 -0.16977725400E+00  0.90007643627E+02  0.89999903723E+02 0.  0.
        -12    1    1    2    0    0 -0.11679091682E+01 -0.20125236316E-01  0.16977725400E+00  0.11803563726E+01  0.00000000000E+00 0.  1.
         11    1    3    3    0    0 -0.22133169883E+01  0.59625990911E+01  0.65042720781E+01  0.90970828038E+01  0.51100000000E-03 0. -1.
        -11    1    3    3    0    0  0.11269172936E+02  0.34849597576E+02 -0.13039122066E+02  0.38878109707E+02  0.51100000000E-03 0.  1.
         12    1    3    3    0    0 -0.78879467796E+01 -0.40792071431E+02  0.63650727336E+01  0.42032451117E+02  0.00000000000E+00 0. -1.
</event>
<event>
 7    1  0.1756449E-015  0.9000771E+02  0.7816164E-02  0.1186339E+00
        -11   -1    0    0    0    0  0.00000000000E+00  0.00000000000E+00  0.45593999997E+02  0.45594000000E+02  0.51100000000E-03 0. -1.
         11   -1    0    0    0    0 -0.00000000000E+00 -0.00000000000E+00 -0.45593999997E+02  0.45594000000E+02  0.51100000000E-03 0.  1.
    9900012    2    1    2    0    0 -0.72018267413E+00 -0.92922535738E+00 -0.10470410756E+00  0.90007709443E+02  0.89999970408E+02 0.  0.
        -12    1    1    2    0    0  0.72018267413E+00  0.92922535738E+00  0.10470410756E+00  0.11802905570E+01  0.00000000000E+00 0.  1.
         11    1    3    3    0    0  0.28539076444E+01  0.38606276626E+02  0.13771351988E+02  0.41088191973E+02  0.51100000000E-03 0. -1.
        -11    1    3    3    0    0  0.71124352955E+01 -0.26506817937E+01 -0.61016631321E+01  0.97387444284E+01  0.51100000000E-03 0.  1.
        -12    1    3    3    0    0 -0.10686525614E+02 -0.36884820190E+02 -0.77743929635E+01  0.39180773041E+02  0.00000000000E+00 0.  1.
</event>
<event>
 7    1  0.1756449E-015  0.9000777E+02  0.7816164E-02  0.1186339E+00
        -11   -1    0    0    0    0  0.00000000000E+00  0.00000000000E+00  0.45593999997E+02  0.45594000000E+02  0.51100000000E-03 0.  1.
         11   -1    0    0    0    0 -0.00000000000E+00 -0.00000000000E+00 -0.45593999997E+02  0.45594000000E+02  0.51100000000E-03 0. -1.
    9900012    2    1    2    0    0 -0.46720991633E+00 -0.22342576715E+00 -0.10605370578E+01  0.90007769925E+02  0.90000031688E+02 0.  0.
        -12    1    1    2    0    0  0.46720991633E+00  0.22342576715E+00  0.10605370578E+01  0.11802300751E+01  0.00000000000E+00 0.  1.
         11    1    3    3    0    0 -0.56875369294E+00 -0.10246904038E+02 -0.38552573883E+01  0.10962916260E+02  0.51100000000E-03 0. -1.
        -11    1    3    3    0    0  0.24176348510E+00  0.30567731325E+02 -0.28378341815E+02  0.41710609350E+02  0.51100000000E-03 0.  1.
         12    1    3    3    0    0 -0.14021970849E+00 -0.20544253053E+02  0.31173062145E+02  0.37334244315E+02  0.00000000000E+00 0. -1.
</event>
<event>
 7    1  0.1756449E-015  0.9000773E+02  0.7816164E-02  0.1186339E+00
        -11   -1    0    0    0    0  0.00000000000E+00  0.00000000000E+00  0.45593999997E+02  0.45594000000E+02  0.51100000000E-03 0.  1.
         11   -1    0    0    0    0 -0.00000000000E+00 -0.00000000000E+00 -0.45593999997E+02  0.45594000000E+02  0.51100000000E-03 0. -1.
    9900012    2    1    2    0    0  0.49714904176E+00 -0.29381450554E+00 -0.10293490938E+01  0.90007727281E+02  0.89999988481E+02 0.  0.
        -12    1    1    2    0    0 -0.49714904176E+00  0.29381450554E+00  0.10293490938E+01  0.11802727186E+01  0.00000000000E+00 0.  1.
         11    1    3    3    0    0  0.24172068527E+00  0.29534787992E+01 -0.93644307624E+01  0.98221194084E+01  0.51100000000E-03 0. -1.
        -11    1    3    3    0    0 -0.39462881292E+02 -0.53907474987E+01  0.65930913666E+01  0.40371376153E+02  0.51100000000E-03 0.  1.
         12    1    3    3    0    0  0.39718309649E+02  0.21434541940E+01  0.17419903020E+01  0.39814231720E+02  0.00000000000E+00 0. -1.
</event>
<event>
 7    1  0.1756449E-015  0.9000774E+02  0.7816164E-02  0.1186339E+00
        -11   -1    0    0    0    0  0.00000000000E+00  0.00000000000E+00  0.45593999997E+02  0.45594000000E+02  0.51100000000E-03 0.  1.
         11   -1    0    0    0    0 -0.00000000000E+00 -0.00000000000E+00 -0.45593999997E+02  0.45594000000E+02  0.51100000000E-03 0. -1.
    9900012    2    1    2    0    0 -0.89438382562E+00 -0.34053704751E+00 -0.69073565877E+00  0.90007744240E+02  0.90000005664E+02 0.  0.
        -12    1    1    2    0    0  0.89438382562E+00  0.34053704751E+00  0.69073565877E+00  0.11802557598E+01  0.00000000000E+00 0.  1.
         11    1    3    3    0    0  0.61926829743E+01 -0.63457981136E+01  0.80361340464E+01  0.11966533616E+02  0.51100000000E-03 0. -1.
        -11    1    3    3    0    0  0.20428407215E+02 -0.26794374871E+02 -0.10198825566E+02  0.35203329235E+02  0.51100000000E-03 0.  1.
         12    1    3    3    0    0 -0.27515474015E+02  0.32799635937E+02  0.14719558603E+01  0.42837881389E+02  0.00000000000E+00 0. -1.
</event>
<event>
 7    1  0.1756449E-015  0.9000772E+02  0.7816164E-02  0.1186339E+00
        -11   -1    0    0    0    0  0.00000000000E+00  0.00000000000E+00  0.45593999997E+02  0.45594000000E+02  0.51100000000E-03 0.  1.
         11   -1    0    0    0    0 -0.00000000000E+00 -0.00000000000E+00 -0.45593999997E+02  0.45594000000E+02  0.51100000000E-03 0. -1.
    9900012    2    1    2    0    0  0.55871957181E+00  0.38332391499E+00 -0.96641683748E+00  0.90007717709E+02  0.89999978782E+02 0.  0.
        -12    1    1    2    0    0 -0.55871957181E+00 -0.38332391499E+00  0.96641683748E+00  0.11802822914E+01  0.00000000000E+00 0.  1.
         11    1    3    3    0    0 -0.38500891696E+01 -0.68708824131E+01  0.77591816389E+01  0.11056089350E+02  0.51100000000E-03 0. -1.
        -11    1    3    3    0    0 -0.26491149808E+02 -0.23076381895E+02 -0.27041106503E+01  0.35236524150E+02  0.51100000000E-03 0.  1.
         12    1    3    3    0    0  0.30899958549E+02  0.30330588223E+02 -0.60214878260E+01  0.43715104208E+02  0.00000000000E+00 0. -1.
</event>
<event>
 7    1  0.1756449E-015  0.9000804E+02  0.7816164E-02  0.1186338E+00
        -11   -1    0    0    0    0  0.00000000000E+00  0.00000000000E+00  0.45593999997E+02  0.45594000000E+02  0.51100000000E-03 0.  1.
         11   -1    0    0    0    0 -0.00000000000E+00 -0.00000000000E+00 -0.45593999997E+02  0.45594000000E+02  0.51100000000E-03 0. -1.
    9900012    2    1    2    0    0  0.48477548333E+00 -0.10030217095E+01  0.38891665860E+00  0.90008035600E+02  0.90000300869E+02 0.  0.
        -12    1    1    2    0    0 -0.48477548333E+00  0.10030217095E+01 -0.38891665860E+00  0.11799644004E+01  0.00000000000E+00 0.  1.
         11    1    3    3    0    0 -0.46980655234E+01 -0.35896128303E+02 -0.17653856601E+02  0.40277319920E+02  0.51100000000E-03 0. -1.
        -11    1    3    3    0    0 -0.11902299364E+00 -0.42784087584E+01  0.77990181747E+01  0.88962707202E+01  0.51100000000E-03 0.  1.
        -12    1    3    3    0    0  0.53018640004E+01  0.39171515352E+02  0.10243755085E+02  0.40834444959E+02  0.00000000000E+00 0.  1.
</event>
<event>
 7    1  0.1756449E-015  0.9000787E+02  0.7816164E-02  0.1186339E+00
        -11   -1    0    0    0    0  0.00000000000E+00  0.00000000000E+00  0.45593999997E+02  0.45594000000E+02  0.51100000000E-03 0.  1.
         11   -1    0    0    0    0 -0.00000000000E+00 -0.00000000000E+00 -0.45593999997E+02  0.45594000000E+02  0.51100000000E-03 0. -1.
    9900012    2    1    2    0    0 -0.41335947924E+00 -0.11052755590E+01 -0.14550733383E-01  0.90007867870E+02  0.90000130926E+02 0.  0.
        -12    1    1    2    0    0  0.41335947924E+00  0.11052755590E+01  0.14550733383E-01  0.11801321300E+01  0.00000000000E+00 0.  1.
         11    1    3    3    0    0 -0.11050918092E+02  0.66098996576E+01 -0.33908116734E+02  0.36270841524E+02  0.51100000000E-03 0. -1.
        -11    1    3    3    0    0  0.54479222134E+01  0.34737526547E+01 -0.78744752125E+01  0.10185979289E+02  0.51100000000E-03 0.  1.
        -12    1    3    3    0    0  0.51896363995E+01 -0.11188927871E+02  0.41768041214E+02  0.43551047056E+02  0.00000000000E+00 0.  1.
</event>
<event>
 7    1  0.1756449E-015  0.9000778E+02  0.7816164E-02  0.1186339E+00
        -11   -1    0    0    0    0  0.00000000000E+00  0.00000000000E+00  0.45593999997E+02  0.45594000000E+02  0.51100000000E-03 0.  1.
         11   -1    0    0    0    0 -0.00000000000E+00 -0.00000000000E+00 -0.45593999997E+02  0.45594000000E+02  0.51100000000E-03 0. -1.
    9900012    2    1    2    0    0  0.59564419651E+00  0.88807491559E+00 -0.49944913469E+00  0.90007780316E+02  0.90000042216E+02 0.  0.
        -12    1    1    2    0    0 -0.59564419651E+00 -0.88807491559E+00  0.49944913469E+00  0.11802196841E+01  0.00000000000E+00 0.  1.
         11    1    3    3    0    0  0.20916428267E+01 -0.10384228997E+02 -0.35430458453E+02  0.36980056356E+02  0.51100000000E-03 0. -1.
        -11    1    3    3    0    0  0.29582180703E+01 -0.10139221842E+02 -0.13673389733E+01  0.10650093419E+02  0.51100000000E-03 0.  1.
        -12    1    3    3    0    0 -0.44542167005E+01  0.21411525755E+02  0.36298348292E+02  0.42377630541E+02  0.00000000000E+00 0.  1.
</event>
<event>
 7    1  0.1756449E-015  0.9000766E+02  0.7816164E-02  0.1186339E+00
        -11   -1    0    0    0    0  0.00000000000E+00  0.00000000000E+00  0.45593999997E+02  0.45594000000E+02  0.51100000000E-03 0. -1.
         11   -1    0    0    0    0 -0.00000000000E+00 -0.00000000000E+00 -0.45593999997E+02  0.45594000000E+02  0.51100000000E-03 0.  1.
    9900012    2    1    2    0    0  0.69075002295E+00  0.88765367643E+00 -0.35795881637E+00  0.90007661422E+02  0.89999921753E+02 0.  0.
        -12    1    1    2    0    0 -0.69075002295E+00 -0.88765367643E+00  0.35795881637E+00  0.11803385776E+01  0.00000000000E+00 0.  1.
         11    1    3    3    0    0  0.12682739514E+02 -0.25625629695E+02  0.28192783449E+02  0.40154175595E+02  0.51100000000E-03 0. -1.
        -11    1    3    3    0    0  0.73905135728E+01 -0.72695543705E+00 -0.56191719771E+01  0.93125318279E+01  0.51100000000E-03 0.  1.
        -12    1    3    3    0    0 -0.19382503064E+02  0.27240238808E+02 -0.22931570288E+02  0.40540954000E+02  0.00000000000E+00 0.  1.
</event>
<event>
 7    1  0.1756449E-015  0.9000778E+02  0.7816164E-02  0.1186339E+00
        -11   -1    0    0    0    0  0.00000000000E+00  0.00000000000E+00  0.45593999997E+02  0.45594000000E+02  0.51100000000E-03 0. -1.
         11   -1    0    0    0    0 -0.00000000000E+00 -0.00000000000E+00 -0.45593999997E+02  0.45594000000E+02  0.51100000000E-03 0.  1.
    9900012    2    1    2    0    0  0.10190177281E+01 -0.21175403601E+00 -0.55648223100E+00  0.90007784183E+02  0.90000046134E+02 0.  0.
        -12    1    1    2    0    0 -0.10190177281E+01  0.21175403601E+00  0.55648223100E+00  0.11802158173E+01  0.00000000000E+00 0.  1.
         11    1    3    3    0    0 -0.18458348091E+02  0.81848449449E+01  0.45966219811E+01  0.20708240749E+02  0.51100000000E-03 0. -1.
        -11    1    3    3    0    0  0.38077962517E+02  0.13319513339E+02 -0.59076703760E+00  0.40344636211E+02  0.51100000000E-03 0.  1.
         12    1    3    3    0    0 -0.18600596698E+02 -0.21716112320E+02 -0.45623371745E+01  0.28954907223E+02  0.00000000000E+00 0. -1.
</event>
<event>
 7    1  0.1756449E-015  0.9000760E+02  0.7816164E-02  0.1186339E+00
        -11   -1    0    0    0    0  0.00000000000E+00  0.00000000000E+00  0.45593999997E+02  0.45594000000E+02  0.51100000000E-03 0.  1.
         11   -1    0    0    0    0 -0.00000000000E+00 -0.00000000000E+00 -0.45593999997E+02  0.45594000000E+02  0.51100000000E-03 0. -1.
    9900012    2    1    2    0    0  0.10887652531E+01 -0.44334360344E+00  0.10666730104E+00  0.90007601237E+02  0.89999860773E+02 0.  0.
        -12    1    1    2    0    0 -0.10887652531E+01  0.44334360344E+00 -0.10666730104E+00  0.11803987632E+01  0.00000000000E+00 0.  1.
         11    1    3    3    0    0 -0.10258325743E+02 -0.33293819767E+02 -0.10830675951E+02  0.36483081333E+02  0.51100000000E-03 0. -1.
        -11    1    3    3    0    0 -0.34862685049E+01 -0.80803353246E+01  0.27983125461E+01  0.92345243740E+01  0.51100000000E-03 0.  1.
        -12    1    3    3    0    0  0.14833359501E+02  0.40930811488E+02  0.81390307056E+01  0.44289995530E+02  0.00000000000E+00 0.  1.
</event>
<event>
 7    1  0.1756449E-015  0.9000774E+02  0.7816164E-02  0.1186339E+00
        -11   -1    0    0    0    0  0.00000000000E+00  0.00000000000E+00  0.45593999997E+02  0.45594000000E+02  0.51100000000E-03 0. -1.
         11   -1    0    0    0    0 -0.00000000000E+00 -0.00000000000E+00 -0.45593999997E+02  0.45594000000E+02  0.51100000000E-03 0.  1.
    9900012    2    1    2    0    0 -0.17017402454E+00 -0.90613297031E+00  0.73687680674E+00  0.90007735798E+02  0.89999997110E+02 0.  0.
        -12    1    1    2    0    0  0.17017402454E+00  0.90613297031E+00 -0.73687680674E+00  0.11802642021E+01  0.00000000000E+00 0.  1.
         11    1    3    3    0    0  0.72276458363E+01  0.57665110885E+01  0.25400206461E+01  0.95887027075E+01  0.51100000000E-03 0. -1.
        -11    1    3    3    0    0 -0.10326725471E+02  0.31916654233E+02 -0.18456407680E+02  0.38287766468E+02  0.51100000000E-03 0.  1.
         12    1    3    3    0    0  0.29289056104E+01 -0.38589298291E+02  0.16653263841E+02  0.42131266623E+02  0.00000000000E+00 0. -1.
</event>
<event>
 7    1  0.1756449E-015  0.9000774E+02  0.7816164E-02  0.1186339E+00
        -11   -1    0    0    0    0  0.00000000000E+00  0.00000000000E+00  0.45593999997E+02  0.45594000000E+02  0.51100000000E-03 0. -1.
         11   -1    0    0    0    0 -0.00000000000E+00 -0.00000000000E+00 -0.45593999997E+02  0.45594000000E+02  0.51100000000E-03 0.  1.
    9900012    2    1    2    0    0 -0.20976745597E+00  0.10191154146E+01  0.55715463452E+00  0.90007737359E+02  0.89999998693E+02 0.  0.
        -12    1    1    2    0    0  0.20976745597E+00 -0.10191154146E+01 -0.55715463452E+00  0.11802626406E+01  0.00000000000E+00 0.  1.
         11    1    3    3    0    0 -0.14550296023E+02  0.17894005278E+02  0.75407906752E+00  0.23075423609E+02  0.51100000000E-03 0. -1.
        -11    1    3    3    0    0 -0.22442490045E+02 -0.41289990326E+01  0.12457870436E+02  0.25998317801E+02  0.51100000000E-03 0.  1.
         12    1    3    3    0    0  0.36783018612E+02 -0.12745890830E+02 -0.12654794869E+02  0.40933995950E+02  0.00000000000E+00 0. -1.
</event>
<event>
 7    1  0.1756449E-015  0.9000772E+02  0.7816164E-02  0.1186339E+00
        -11   -1    0    0    0    0  0.00000000000E+00  0.00000000000E+00  0.45593999997E+02  0.45594000000E+02  0.51100000000E-03 0. -1.
         11   -1    0    0    0    0 -0.00000000000E+00 -0.00000000000E+00 -0.45593999997E+02  0.45594000000E+02  0.51100000000E-03 0.  1.
    9900012    2    1    2    0    0  0.56951678742E+00 -0.10197294284E+01  0.16986330957E+00  0.90007724175E+02  0.89999985334E+02 0.  0.
        -12    1    1    2    0    0 -0.56951678742E+00  0.10197294284E+01 -0.16986330957E+00  0.11802758246E+01  0.00000000000E+00 0.  1.
         11    1    3    3    0    0 -0.48929262308E+01 -0.10159785330E+02 -0.56964049736E+01  0.12633724508E+02  0.51100000000E-03 0. -1.
        -11    1    3    3    0    0  0.14880710837E+02 -0.88737756514E+00 -0.32964437186E+02  0.36178406725E+02  0.51100000000E-03 0.  1.
         12    1    3    3    0    0 -0.94182678185E+01  0.10027433467E+02  0.38830705469E+02  0.41195592942E+02  0.00000000000E+00 0. -1.
</event>
<event>
 7    1  0.1756449E-015  0.9000781E+02  0.7816164E-02  0.1186339E+00
        -11   -1    0    0    0    0  0.00000000000E+00  0.00000000000E+00  0.45593999997E+02  0.45594000000E+02  0.51100000000E-03 0. -1.
         11   -1    0    0    0    0 -0.00000000000E+00 -0.00000000000E+00 -0.45593999997E+02  0.45594000000E+02  0.51100000000E-03 0.  1.
    9900012    2    1    2    0    0 -0.40530631362E+00  0.44962143607E-02  0.11084070250E+01  0.90007805289E+02  0.90000067518E+02 0.  0.
        -12    1    1    2    0    0  0.40530631362E+00 -0.44962143607E-02 -0.11084070250E+01  0.11801947115E+01  0.00000000000E+00 0.  1.
         11    1    3    3    0    0  0.17505019620E+02 -0.36033869909E+02  0.14428873084E+02  0.42580017277E+02  0.51100000000E-03 0. -1.
        -11    1    3    3    0    0 -0.64062905114E+01  0.14145107171E+01 -0.83296414227E+01  0.10603033772E+02  0.51100000000E-03 0.  1.
        -12    1    3    3    0    0 -0.11504035423E+02  0.34623855407E+02 -0.49908246366E+01  0.36824754239E+02  0.00000000000E+00 0.  1.
</event>
<event>
 7    1  0.1756449E-015  0.9000854E+02  0.7816164E-02  0.1186337E+00
        -11   -1    0    0    0    0  0.00000000000E+00  0.00000000000E+00  0.45593999997E+02  0.45594000000E+02  0.51100000000E-03 0.  1.
         11   -1    0    0    0    0 -0.00000000000E+00 -0.00000000000E+00 -0.45593999997E+02  0.45594000000E+02  0.51100000000E-03 0. -1.
    9900012    2    1    2    0    0 -0.91539178309E+00 -0.72863333129E+00  0.14923822251E+00  0.90008542203E+02  0.90000814156E+02 0.  0.
        -12    1    1    2    0    0  0.91539178309E+00  0.72863333129E+00 -0.14923822251E+00  0.11794577971E+01  0.00000000000E+00 0.  1.
         11    1    3    3    0    0  0.18093853167E+02  0.19635498533E+02 -0.30745408311E+02  0.40721253143E+02  0.51100000000E-03 0. -1.
        -11    1    3    3    0    0  0.65808006018E+01 -0.20528228222E+01  0.64624005534E+01  0.94490020253E+01  0.51100000000E-03 0.  1.
        -12    1    3    3    0    0 -0.25590045552E+02 -0.18311309042E+02  0.24432245980E+02  0.39838287034E+02  0.00000000000E+00 0.  1.
</event>
<event>
 7    1  0.1756449E-015  0.9000777E+02  0.7816164E-02  0.1186339E+00
        -11   -1    0    0    0    0  0.00000000000E+00  0.00000000000E+00  0.45593999997E+02  0.45594000000E+02  0.51100000000E-03 0.  1.
         11   -1    0    0    0    0 -0.00000000000E+00 -0.00000000000E+00 -0.45593999997E+02  0.45594000000E+02  0.51100000000E-03 0. -1.
    9900012    2    1    2    0    0  0.68247175369E+00  0.95114643581E+00 -0.14995018562E+00  0.90007774473E+02  0.90000036296E+02 0.  0.
        -12    1    1    2    0    0 -0.68247175369E+00 -0.95114643581E+00  0.14995018562E+00  0.11802255272E+01  0.00000000000E+00 0.  1.
         11    1    3    3    0    0 -0.26689794663E+02  0.22552399667E+02  0.18565125765E+02  0.39567913323E+02  0.51100000000E-03 0. -1.
        -11    1    3    3    0    0 -0.39688691670E+01 -0.10778011834E+02  0.15353783659E+01  0.11587702471E+02  0.51100000000E-03 0.  1.
        -12    1    3    3    0    0  0.31341135583E+02 -0.10823241397E+02 -0.20250454316E+02  0.38852158679E+02  0.00000000000E+00 0.  1.
</event>
<event>
 7    1  0.1756449E-015  0.9000797E+02  0.7816164E-02  0.1186339E+00
        -11   -1    0    0    0    0  0.00000000000E+00  0.00000000000E+00  0.45593999997E+02  0.45594000000E+02  0.51100000000E-03 0.  1.
         11   -1    0    0    0    0 -0.00000000000E+00 -0.00000000000E+00 -0.45593999997E+02  0.45594000000E+02  0.51100000000E-03 0. -1.
    9900012    2    1    2    0    0  0.95861032156E+00 -0.55829317761E+00 -0.40231208617E+00  0.90007966087E+02  0.90000230439E+02 0.  0.
        -12    1    1    2    0    0 -0.95861032156E+00  0.55829317761E+00  0.40231208617E+00  0.11800339128E+01  0.00000000000E+00 0.  1.
         11    1    3    3    0    0 -0.95158086781E+00 -0.92474131362E+01  0.68910279142E+01  0.11571794236E+02  0.51100000000E-03 0. -1.
        -11    1    3    3    0    0  0.33464559709E+02 -0.16134101456E+02  0.20777176385E+01  0.37208908841E+02  0.51100000000E-03 0.  1.
         12    1    3    3    0    0 -0.31554368520E+02  0.24823221414E+02 -0.93710576389E+01  0.41227263010E+02  0.00000000000E+00 0. -1.
</event>
<event>
 7    1  0.1756449E-015  0.9000775E+02  0.7816164E-02  0.1186339E+00
        -11   -1    0    0    0    0  0.00000000000E+00  0.00000000000E+00  0.45593999997E+02  0.45594000000E+02  0.51100000000E-03 0. -1.
         11   -1    0    0    0    0 -0.00000000000E+00 -0.00000000000E+00 -0.45593999997E+02  0.45594000000E+02  0.51100000000E-03 0.  1.
    9900012    2    1    2    0    0 -0.51340309864E+00  0.46621941368E+00  0.95500849128E+00  0.90007752356E+02  0.90000013887E+02 0.  0.
        -12    1    1    2    0    0  0.51340309864E+00 -0.46621941368E+00 -0.95500849128E+00  0.11802476443E+01  0.00000000000E+00 0.  1.
         11    1    3    3    0    0 -0.37249942814E+01  0.98493931521E+01  0.47265958690E+01  0.11542393020E+02  0.51100000000E-03 0. -1.
        -11    1    3    3    0    0  0.40087191664E+02 -0.72068372341E+01 -0.72205424927E+01  0.41364932885E+02  0.51100000000E-03 0.  1.
         12    1    3    3    0    0 -0.36875600481E+02 -0.21763365042E+01  0.34489551149E+01  0.37100426451E+02  0.00000000000E+00 0. -1.
</event>
<event>
 7    1  0.1756449E-015  0.9000744E+02  0.7816164E-02  0.1186340E+00
        -11   -1    0    0    0    0  0.00000000000E+00  0.00000000000E+00  0.45593999997E+02  0.45594000000E+02  0.51100000000E-03 0.  1.
         11   -1    0    0    0    0 -0.00000000000E+00 -0.00000000000E+00 -0.45593999997E+02  0.45594000000E+02  0.51100000000E-03 0. -1.
    9900012    2    1    2    0    0 -0.11678248146E+01 -0.18145780669E-01 -0.17197662505E+00  0.90007440799E+02  0.89999698217E+02 0.  0.
        -12    1    1    2    0    0  0.11678248146E+01  0.18145780669E-01  0.17197662505E+00  0.11805592008E+01  0.00000000000E+00 0.  1.
         11    1    3    3    0    0 -0.34309472687E+01  0.55674079810E+01  0.60752434382E+01  0.89261421612E+01  0.51100000000E-03 0. -1.
        -11    1    3    3    0    0  0.36834517804E+02 -0.65881281421E+01  0.15196462368E+02  0.40387096987E+02  0.51100000000E-03 0.  1.
         12    1    3    3    0    0 -0.34571395350E+02  0.10025743803E+01 -0.21443682431E+02  0.40694201651E+02  0.00000000000E+00 0. -1.
</event>
<event>
 7    1  0.1756449E-015  0.9000771E+02  0.7816164E-02  0.1186339E+00
        -11   -1    0    0    0    0  0.00000000000E+00  0.00000000000E+00  0.45593999997E+02  0.45594000000E+02  0.51100000000E-03 0. -1.
         11   -1    0    0    0    0 -0.00000000000E+00 -0.00000000000E+00 -0.45593999997E+02  0.45594000000E+02  0.51100000000E-03 0.  1.
    9900012    2    1    2    0    0  0.38414895809E+00  0.88338314167E+00  0.68201434782E+00  0.90007711998E+02  0.89999972996E+02 0.  0.
        -12    1    1    2    0    0 -0.38414895809E+00 -0.88338314167E+00 -0.68201434782E+00  0.11802880020E+01  0.00000000000E+00 0.  1.
         11    1    3    3    0    0  0.28717211709E+02  0.69869695216E+00  0.27028734263E+02  0.39442602626E+02  0.51100000000E-03 0. -1.
        -11    1    3    3    0    0 -0.58309165136E+01 -0.48709728880E+01  0.67918727196E+01  0.10190951848E+02  0.51100000000E-03 0.  1.
        -12    1    3    3    0    0 -0.22502146237E+02  0.50556590775E+01 -0.33138592635E+02  0.40374157524E+02  0.00000000000E+00 0.  1.
</event>
<event>
 7    1  0.1756449E-015  0.9000776E+02  0.7816164E-02  0.1186339E+00
        -11   -1    0    0    0    0  0.00000000000E+00  0.00000000000E+00  0.45593999997E+02  0.45594000000E+02  0.51100000000E-03 0. -1.
         11   -1    0    0    0    0 -0.00000000000E+00 -0.00000000000E+00 -0.45593999997E+02  0.45594000000E+02  0.51100000000E-03 0.  1.
    9900012    2    1    2    0    0  0.77685450274E+00 -0.82071147276E+00  0.34043502949E+00  0.90007760088E+02  0.90000021721E+02 0.  0.
        -12    1    1    2    0    0 -0.77685450274E+00  0.82071147276E+00 -0.34043502949E+00  0.11802399117E+01  0.00000000000E+00 0.  1.
         11    1    3    3    0    0 -0.10774557338E+02 -0.27092557885E+02  0.24745569316E+02  0.38241874687E+02  0.51100000000E-03 0. -1.
        -11    1    3    3    0    0  0.53870941545E+01  0.19634329612E+01  0.85865626908E+01  0.10324965449E+02  0.51100000000E-03 0.  1.
        -12    1    3    3    0    0  0.61643176861E+01  0.24308413451E+02 -0.32991696977E+02  0.41440919952E+02  0.00000000000E+00 0.  1.
</event>
<event>
 7    1  0.1756449E-015  0.9000797E+02  0.7816164E-02  0.1186339E+00
        -11   -1    0    0    0    0  0.00000000000E+00  0.00000000000E+00  0.45593999997E+02  0.45594000000E+02  0.51100000000E-03 0. -1.
         11   -1    0    0    0    0 -0.00000000000E+00 -0.00000000000E+00 -0.45593999997E+02  0.45594000000E+02  0.51100000000E-03 0.  1.
    9900012    2    1    2    0    0  0.37622292215E+00  0.73309216072E+00  0.84468509339E+00  0.90007974276E+02  0.90000238736E+02 0.  0.
        -12    1    1    2    0    0 -0.37622292215E+00 -0.73309216072E+00 -0.84468509339E+00  0.11800257244E+01  0.00000000000E+00 0.  1.
         11    1    3    3    0    0  0.28709876321E+02 -0.17244114446E+02  0.11744779990E+02  0.35490228777E+02  0.51100000000E-03 0. -1.
        -11    1    3    3    0    0  0.63682119070E+01 -0.59462570875E+01  0.42942210277E+01  0.97135179383E+01  0.51100000000E-03 0.  1.
        -12    1    3    3    0    0 -0.34701865306E+02  0.23923463694E+02 -0.15194315924E+02  0.44804227560E+02  0.00000000000E+00 0.  1.
</event>
<event>
 7    1  0.1756449E-015  0.9000777E+02  0.7816164E-02  0.1186339E+00
        -11   -1    0    0    0    0  0.00000000000E+00  0.00000000000E+00  0.45593999997E+02  0.45594000000E+02  0.51100000000E-03 0. -1.
         11   -1    0    0    0    0 -0.00000000000E+00 -0.00000000000E+00 -0.45593999997E+02  0.45594000000E+02  0.51100000000E-03 0.  1.
    9900012    2    1    2    0    0 -0.22862563072E+00  0.61934172712E+00  0.97831023478E+00  0.90007769188E+02  0.90000030941E+02 0.  0.
        -12    1    1    2    0    0  0.22862563072E+00 -0.61934172712E+00 -0.97831023478E+00  0.11802308119E+01  0.00000000000E+00 0.  1.
         11    1    3    3    0    0  0.82610576727E+00  0.41784704915E+01  0.90194702268E+01  0.99746132667E+01  0.51100000000E-03 0. -1.
        -11    1    3    3    0    0  0.36851121695E+02 -0.11993509746E+02 -0.13020031817E+02  0.40882400553E+02  0.51100000000E-03 0.  1.
         12    1    3    3    0    0 -0.37905853093E+02  0.84343809814E+01  0.49788718246E+01  0.39150755368E+02  0.00000000000E+00 0. -1.
</event>
<event>
 7    1  0.1756449E-015  0.9000780E+02  0.7816164E-02  0.1186339E+00
        -11   -1    0    0    0    0  0.00000000000E+00  0.00000000000E+00  0.45593999997E+02  0.45594000000E+02  0.51100000000E-03 0.  1.
         11   -1    0    0    0    0 -0.00000000000E+00 -0.00000000000E+00 -0.45593999997E+02  0.45594000000E+02  0.51100000000E-03 0. -1.
    9900012    2    1    2    0    0  0.11736539592E+01 -0.50208244258E-01  0.11355078244E+00  0.90007797363E+02  0.90000059488E+02 0.  0.
        -12    1    1    2    0    0 -0.11736539592E+01  0.50208244258E-01 -0.11355078244E+00  0.11802026368E+01  0.00000000000E+00 0.  1.
         11    1    3    3    0    0 -0.14150341416E+02 -0.18458873615E+02 -0.27690537672E+02  0.36162522784E+02  0.51100000000E-03 0. -1.
        -11    1    3    3    0    0  0.28858907697E+01 -0.27482173399E+01 -0.88659038243E+01  0.97203557016E+01  0.51100000000E-03 0.  1.
        -12    1    3    3    0    0  0.12438104605E+02  0.21156882711E+02  0.36669992278E+02  0.44124918877E+02  0.00000000000E+00 0.  1.
</event>
<event>
 7    1  0.1756449E-015  0.9000773E+02  0.7816164E-02  0.1186339E+00
        -11   -1    0    0    0    0  0.00000000000E+00  0.00000000000E+00  0.45593999997E+02  0.45594000000E+02  0.51100000000E-03 0.  1.
         11   -1    0    0    0    0 -0.00000000000E+00 -0.00000000000E+00 -0.45593999997E+02  0.45594000000E+02  0.51100000000E-03 0. -1.
    9900012    2    1    2    0    0  0.10555566385E+01 -0.42736483922E+00 -0.31014475104E+00  0.90007732958E+02  0.89999994233E+02 0.  0.
        -12    1    1    2    0    0 -0.10555566385E+01  0.42736483922E+00  0.31014475104E+00  0.11802670416E+01  0.00000000000E+00 0.  1.
         11    1    3    3    0    0  0.10391300473E+02 -0.62690463346E+00 -0.64754765026E+01  0.12259850372E+02  0.51100000000E-03 0. -1.
        -11    1    3    3    0    0  0.15429049905E+02 -0.18310289676E+02  0.30233346156E+02  0.38566533537E+02  0.51100000000E-03 0.  1.
         12    1    3    3    0    0 -0.24764793740E+02  0.18509829470E+02 -0.24068014404E+02  0.39181349050E+02  0.00000000000E+00 0. -1.
</event>
<event>
 7    1  0.1756449E-015  0.9000795E+02  0.7816164E-02  0.1186339E+00
        -11   -1    0    0    0    0  0.00000000000E+00  0.00000000000E+00  0.45593999997E+02  0.45594000000E+02  0.51100000000E-03 0. -1.
         11   -1    0    0    0    0 -0.00000000000E+00 -0.00000000000E+00 -0.45593999997E+02  0.45594000000E+02  0.51100000000E-03 0.  1.
    9900012    2    1    2    0    0  0.46730669823E+00 -0.69538887744E+00  0.83101447361E+00  0.90007946486E+02  0.90000210579E+02 0.  0.
        -12    1    1    2    0    0 -0.46730669823E+00  0.69538887744E+00 -0.83101447361E+00  0.11800535142E+01  0.00000000000E+00 0.  1.
         11    1    3    3    0    0 -0.62573138921E+01  0.19179772810E+00 -0.60854749405E+01  0.87306224878E+01  0.51100000000E-03 0. -1.
        -11    1    3    3    0    0  0.58426211478E+01 -0.30027191820E+02 -0.23926905011E+02  0.38836390849E+02  0.51100000000E-03 0.  1.
         12    1    3    3    0    0  0.88199944254E+00  0.29140005215E+02  0.30843394425E+02  0.42440933149E+02  0.00000000000E+00 0. -1.
</event>
<event>
 7    1  0.1756449E-015  0.9000778E+02  0.7816164E-02  0.1186339E+00
        -11   -1    0    0    0    0  0.00000000000E+00  0.00000000000E+00  0.45593999997E+02  0.45594000000E+02  0.51100000000E-03 0.  1.
         11   -1    0    0    0    0 -0.00000000000E+00 -0.00000000000E+00 -0.45593999997E+02  0.45594000000E+02  0.51100000000E-03 0. -1.
    9900012    2    1    2    0    0  0.61899201346E+00 -0.71960723259E+00 -0.70137653074E+00  0.90007781919E+02  0.90000043840E+02 0.  0.
        -12    1    1    2    0    0 -0.61899201346E+00  0.71960723259E+00  0.70137653074E+00  0.11802180815E+01  0.00000000000E+00 0.  1.
         11    1    3    3    0    0  0.33613074037E+02  0.43488537314E+01  0.98931202789E+01  0.35307578565E+02  0.51100000000E-03 0. -1.
        -11    1    3    3    0    0  0.82636922468E+00  0.17257836345E+00  0.13066219252E+02  0.13093462307E+02  0.51100000000E-03 0.  1.
        -12    1    3    3    0    0 -0.33820451249E+02 -0.52410393274E+01 -0.23660716062E+02  0.41606741046E+02  0.00000000000E+00 0.  1.
</event>
<event>
 7    1  0.1756449E-015  0.9000777E+02  0.7816164E-02  0.1186339E+00
        -11   -1    0    0    0    0  0.00000000000E+00  0.00000000000E+00  0.45593999997E+02  0.45594000000E+02  0.51100000000E-03 0. -1.
         11   -1    0    0    0    0 -0.00000000000E+00 -0.00000000000E+00 -0.45593999997E+02  0.45594000000E+02  0.51100000000E-03 0.  1.
    9900012    2    1    2    0    0  0.38836134019E+00  0.11771984037E+00  0.11082653720E+01  0.90007773485E+02  0.90000035295E+02 0.  0.
        -12    1    1    2    0    0 -0.38836134019E+00 -0.11771984037E+00 -0.11082653720E+01  0.11802265148E+01  0.00000000000E+00 0.  1.
         11    1    3    3    0    0 -0.13630705728E+01 -0.13928912565E+02  0.18314064427E+01  0.14114765901E+02  0.51100000000E-03 0. -1.
        -11    1    3    3    0    0  0.60735773184E+01 -0.24240357100E+02 -0.20738609722E+02  0.32474192634E+02  0.51100000000E-03 0.  1.
         12    1    3    3    0    0 -0.43221454054E+01  0.38286989506E+02  0.20015468651E+02  0.43418814950E+02  0.00000000000E+00 0. -1.
</event>
<event>
 7    1  0.1756449E-015  0.9000752E+02  0.7816164E-02  0.1186339E+00
        -11   -1    0    0    0    0  0.00000000000E+00  0.00000000000E+00  0.45593999997E+02  0.45594000000E+02  0.51100000000E-03 0.  1.
         11   -1    0    0    0    0 -0.00000000000E+00 -0.00000000000E+00 -0.45593999997E+02  0.45594000000E+02  0.51100000000E-03 0. -1.
    9900012    2    1    2    0    0  0.77648565905E+00  0.59099248723E-02 -0.88913299264E+00  0.90007524509E+02  0.89999783032E+02 0.  0.
        -12    1    1    2    0    0 -0.77648565905E+00 -0.59099248723E-02  0.88913299264E+00  0.11804754909E+01  0.00000000000E+00 0.  1.
         11    1    3    3    0    0  0.21602976481E+02 -0.24902893949E+02 -0.18885794431E+02  0.37993630406E+02  0.51100000000E-03 0. -1.
        -11    1    3    3    0    0 -0.32117194985E+01 -0.66506202881E+01 -0.52316497653E+01  0.90507486918E+01  0.51100000000E-03 0.  1.
        -12    1    3    3    0    0 -0.17614771324E+02  0.31559424162E+02  0.23228311204E+02  0.42963145411E+02  0.00000000000E+00 0.  1.
</event>
<event>
 7    1  0.1756449E-015  0.9000769E+02  0.7816164E-02  0.1186339E+00
        -11   -1    0    0    0    0  0.00000000000E+00  0.00000000000E+00  0.45593999997E+02  0.45594000000E+02  0.51100000000E-03 0. -1.
         11   -1    0    0    0    0 -0.00000000000E+00 -0.00000000000E+00 -0.45593999997E+02  0.45594000000E+02  0.51100000000E-03 0.  1.
    9900012    2    1    2    0    0 -0.11350781485E+01  0.32220263921E+00 -0.30060165371E-01  0.90007694719E+02  0.89999955489E+02 0.  0.
        -12    1    1    2    0    0  0.11350781485E+01 -0.32220263921E+00  0.30060165371E-01  0.11803052814E+01  0.00000000000E+00 0.  1.
         11    1    3    3    0    0 -0.24476134140E+02 -0.33731862104E+02 -0.85075136442E+01  0.42535837268E+02  0.51100000000E-03 0. -1.
        -11    1    3    3    0    0 -0.34320103753E+01  0.79688968661E+01  0.47898094248E+01  0.99108166699E+01  0.51100000000E-03 0.  1.
        -12    1    3    3    0    0  0.26773066367E+02  0.26085167877E+02  0.36876440541E+01  0.37561040781E+02  0.00000000000E+00 0.  1.
</event>
<event>
 7    1  0.1756449E-015  0.9000748E+02  0.7816164E-02  0.1186340E+00
        -11   -1    0    0    0    0  0.00000000000E+00  0.00000000000E+00  0.45593999997E+02  0.45594000000E+02  0.51100000000E-03 0.  1.
         11   -1    0    0    0    0 -0.00000000000E+00 -0.00000000000E+00 -0.45593999997E+02  0.45594000000E+02  0.51100000000E-03 0. -1.
    9900012    2    1    2    0    0 -0.10978164431E+01 -0.21202256461E+00 -0.37876661437E+00  0.90007483732E+02  0.89999741717E+02 0.  0.
        -12    1    1    2    0    0  0.10978164431E+01  0.21202256461E+00  0.37876661437E+00  0.11805162679E+01  0.00000000000E+00 0.  1.
         11    1    3    3    0    0  0.26021415988E+02  0.21677875365E+02  0.21459698668E+02  0.40094426515E+02  0.51100000000E-03 0. -1.
        -11    1    3    3    0    0 -0.38458510073E+00 -0.11164786428E+02  0.33340580284E+01  0.11658314839E+02  0.51100000000E-03 0.  1.
        -12    1    3    3    0    0 -0.26734647331E+02 -0.10725111502E+02 -0.25172523311E+02  0.38254742379E+02  0.00000000000E+00 0.  1.
</event>
<event>
 7    1  0.1756449E-015  0.9000778E+02  0.7816164E-02  0.1186339E+00
        -11   -1    0    0    0    0  0.00000000000E+00  0.00000000000E+00  0.45593999997E+02  0.45594000000E+02  0.51100000000E-03 0. -1.
         11   -1    0    0    0    0 -0.00000000000E+00 -0.00000000000E+00 -0.45593999997E+02  0.45594000000E+02  0.51100000000E-03 0.  1.
    9900012    2    1    2    0    0  0.11358056046E+01 -0.31068824533E+00 -0.79588989949E-01  0.90007781391E+02  0.90000043306E+02 0.  0.
        -12    1    1    2    0    0 -0.11358056046E+01  0.31068824533E+00  0.79588989949E-01  0.11802186088E+01  0.00000000000E+00 0.  1.
         11    1    3    3    0    0 -0.33918935984E+02  0.24305576243E+02 -0.27903513700E+01  0.41821541289E+02  0.51100000000E-03 0. -1.
        -11    1    3    3    0    0  0.48630458440E+01 -0.15607250704E+01  0.83437110925E+01  0.97827701947E+01  0.51100000000E-03 0.  1.
        -12    1    3    3    0    0  0.30191695744E+02 -0.23055539418E+02 -0.56329487125E+01  0.38403469908E+02  0.00000000000E+00 0.  1.
</event>
<event>
 7    1  0.1756449E-015  0.9000769E+02  0.7816164E-02  0.1186339E+00
        -11   -1    0    0    0    0  0.00000000000E+00  0.00000000000E+00  0.45593999997E+02  0.45594000000E+02  0.51100000000E-03 0. -1.
         11   -1    0    0    0    0 -0.00000000000E+00 -0.00000000000E+00 -0.45593999997E+02  0.45594000000E+02  0.51100000000E-03 0.  1.
    9900012    2    1    2    0    0 -0.12809383172E+00  0.10779996042E+01  0.46328224802E+00  0.90007694269E+02  0.89999955034E+02 0.  0.
        -12    1    1    2    0    0  0.12809383172E+00 -0.10779996042E+01 -0.46328224802E+00  0.11803057306E+01  0.00000000000E+00 0.  1.
         11    1    3    3    0    0  0.54366890323E+00  0.10072911497E+02 -0.55210638666E+00  0.10102670123E+02  0.51100000000E-03 0. -1.
        -11    1    3    3    0    0  0.26396058886E+02  0.10344427561E+02 -0.24901922143E+02  0.37734133526E+02  0.51100000000E-03 0.  1.
         12    1    3    3    0    0 -0.27067821621E+02 -0.19339339454E+02  0.25917310777E+02  0.42170890621E+02  0.00000000000E+00 0. -1.
</event>
<event>
 7    1  0.1756449E-015  0.9000773E+02  0.7816164E-02  0.1186339E+00
        -11   -1    0    0    0    0  0.00000000000E+00  0.00000000000E+00  0.45593999997E+02  0.45594000000E+02  0.51100000000E-03 0. -1.
         11   -1    0    0    0    0 -0.00000000000E+00 -0.00000000000E+00 -0.45593999997E+02  0.45594000000E+02  0.51100000000E-03 0.  1.
    9900012    2    1    2    0    0  0.41396988309E+00  0.10271391218E+01  0.40821616653E+00  0.90007734658E+02  0.89999995955E+02 0.  0.
        -12    1    1    2    0    0 -0.41396988309E+00 -0.10271391218E+01 -0.40821616653E+00  0.11802653423E+01  0.00000000000E+00 0.  1.
         11    1    3    3    0    0  0.18385855109E+02  0.26459240987E+02  0.25307783483E+02  0.40970904393E+02  0.51100000000E-03 0. -1.
        -11    1    3    3    0    0 -0.49310290777E+01  0.34343465696E+01  0.30987347657E+01  0.67610606812E+01  0.51100000000E-03 0.  1.
        -12    1    3    3    0    0 -0.13040856148E+02 -0.28866448435E+02 -0.27998302083E+02  0.42275769583E+02  0.00000000000E+00 0.  1.
</event>
<event>
 7    1  0.1756449E-015  0.9000771E+02  0.7816164E-02  0.1186339E+00
        -11   -1    0    0    0    0  0.00000000000E+00  0.00000000000E+00  0.45593999997E+02  0.45594000000E+02  0.51100000000E-03 0.  1.
         11   -1    0    0    0    0 -0.00000000000E+00 -0.00000000000E+00 -0.45593999997E+02  0.45594000000E+02  0.51100000000E-03 0. -1.
    9900012    2    1    2    0    0 -0.87610413330E+00  0.47967553185E+00 -0.62883886277E+00  0.90007709619E+02  0.89999970586E+02 0.  0.
        -12    1    1    2    0    0  0.87610413330E+00 -0.47967553185E+00  0.62883886277E+00  0.11802903810E+01  0.00000000000E+00 0.  1.
         11    1    3    3    0    0 -0.36781002118E+01  0.20135389980E+01  0.43292228173E+01  0.60270167519E+01  0.51100000000E-03 0. -1.
        -11    1    3    3    0    0  0.70407314337E+01 -0.73691658160E+01  0.38552226298E+02  0.39876693152E+02  0.51100000000E-03 0.  1.
         12    1    3    3    0    0 -0.42387353552E+01  0.58353023499E+01 -0.43510287978E+02  0.44103999715E+02  0.00000000000E+00 0. -1.
</event>
<event>
 7    1  0.1756449E-015  0.9000781E+02  0.7816164E-02  0.1186339E+00
        -11   -1    0    0    0    0  0.00000000000E+00  0.00000000000E+00  0.45593999997E+02  0.45594000000E+02  0.51100000000E-03 0.  1.
         11   -1    0    0    0    0 -0.00000000000E+00 -0.00000000000E+00 -0.45593999997E+02  0.45594000000E+02  0.51100000000E-03 0. -1.
    9900012    2    1    2    0    0 -0.12023392550E+00  0.80524482914E+00 -0.85438975385E+00  0.90007806252E+02  0.90000068494E+02 0.  0.
        -12    1    1    2    0    0  0.12023392550E+00 -0.80524482914E+00  0.85438975385E+00  0.11801937482E+01  0.00000000000E+00 0.  1.
         11    1    3    3    0    0 -0.23597611313E+02  0.19850235045E+01  0.34544999724E+02  0.41882509287E+02  0.51100000000E-03 0. -1.
        -11    1    3    3    0    0 -0.12536561177E+01 -0.70663530976E+01 -0.74866401316E+01  0.10370862090E+02  0.51100000000E-03 0.  1.
        -12    1    3    3    0    0  0.24731033506E+02  0.58865744222E+01 -0.27912749346E+02  0.37754434875E+02  0.00000000000E+00 0.  1.
</event>
<event>
 7    1  0.1756449E-015  0.9000772E+02  0.7816164E-02  0.1186339E+00
        -11   -1    0    0    0    0  0.00000000000E+00  0.00000000000E+00  0.45593999997E+02  0.45594000000E+02  0.51100000000E-03 0. -1.
         11   -1    0    0    0    0 -0.00000000000E+00 -0.00000000000E+00 -0.45593999997E+02  0.45594000000E+02  0.51100000000E-03 0.  1.
    9900012    2    1    2    0    0 -0.64619039948E+00  0.67021024595E+00 -0.72547545556E+00  0.90007721032E+02  0.89999982149E+02 0.  0.
        -12    1    1    2    0    0  0.64619039948E+00 -0.67021024595E+00  0.72547545556E+00  0.11802789682E+01  0.00000000000E+00 0.  1.
         11    1    3    3    0    0 -0.75892083080E+00  0.41283955593E+02  0.11203913483E+02  0.42783976298E+02  0.51100000000E-03 0. -1.
        -11    1    3    3    0    0 -0.77854832598E+01 -0.60062509958E+01 -0.18757909072E+00  0.98348353717E+01  0.51100000000E-03 0.  1.
        -12    1    3    3    0    0  0.78982136911E+01 -0.34607494352E+02 -0.11741809848E+02  0.37388909362E+02  0.00000000000E+00 0.  1.
</event>
<event>
 7    1  0.1756449E-015  0.9000771E+02  0.7816164E-02  0.1186339E+00
        -11   -1    0    0    0    0  0.00000000000E+00  0.00000000000E+00  0.45593999997E+02  0.45594000000E+02  0.51100000000E-03 0. -1.
         11   -1    0    0    0    0 -0.00000000000E+00 -0.00000000000E+00 -0.45593999997E+02  0.45594000000E+02  0.51100000000E-03 0.  1.
    9900012    2    1    2    0    0  0.65316611804E+00  0.18059436904E+00  0.96635878854E+00  0.90007707828E+02  0.89999968771E+02 0.  0.
        -12    1    1    2    0    0 -0.65316611804E+00 -0.18059436904E+00 -0.96635878854E+00  0.11802921723E+01  0.00000000000E+00 0.  1.
         11    1    3    3    0    0 -0.12042670085E+01  0.87973498184E+01  0.55682081987E+01  0.10480866646E+02  0.51100000000E-03 0. -1.
        -11    1    3    3    0    0 -0.38344894259E+02 -0.28795298283E+01 -0.58649571332E+01  0.38897562008E+02  0.51100000000E-03 0.  1.
         12    1    3    3    0    0  0.40202327385E+02 -0.57372256211E+01  0.12631077230E+01  0.40629279173E+02  0.00000000000E+00 0. -1.
</event>
<event>
 7    1  0.1756449E-015  0.9000761E+02  0.7816164E-02  0.1186339E+00
        -11   -1    0    0    0    0  0.00000000000E+00  0.00000000000E+00  0.45593999997E+02  0.45594000000E+02  0.51100000000E-03 0.  1.
         11   -1    0    0    0    0 -0.00000000000E+00 -0.00000000000E+00 -0.45593999997E+02  0.45594000000E+02  0.51100000000E-03 0. -1.
    9900012    2    1    2    0    0  0.15878449207E+00 -0.66195156337E+00 -0.96432322091E+00  0.90007613766E+02  0.89999873468E+02 0.  0.
        -12    1    1    2    0    0 -0.15878449207E+00  0.66195156337E+00  0.96432322091E+00  0.11803862341E+01  0.00000000000E+00 0.  1.
         11    1    3    3    0    0  0.17282735865E+01  0.17474625745E+01  0.17354752459E+02  0.17527920248E+02  0.51100000000E-03 0. -1.
        -11    1    3    3    0    0  0.18633866010E+02  0.24457931226E+02  0.55593752526E+01  0.31246088008E+02  0.51100000000E-03 0.  1.
         12    1    3    3    0    0 -0.20203355104E+02 -0.26867345364E+02 -0.23878450933E+02  0.41233605510E+02  0.00000000000E+00 0. -1.
</event>
<event>
 7    1  0.1756449E-015  0.9000779E+02  0.7816164E-02  0.1186339E+00
        -11   -1    0    0    0    0  0.00000000000E+00  0.00000000000E+00  0.45593999997E+02  0.45594000000E+02  0.51100000000E-03 0.  1.
         11   -1    0    0    0    0 -0.00000000000E+00 -0.00000000000E+00 -0.45593999997E+02  0.45594000000E+02  0.51100000000E-03 0. -1.
    9900012    2    1    2    0    0  0.11072115230E+01 -0.30523785865E+00 -0.27166662657E+00  0.90007792280E+02  0.90000054338E+02 0.  0.
        -12    1    1    2    0    0 -0.11072115230E+01  0.30523785865E+00  0.27166662657E+00  0.11802077203E+01  0.00000000000E+00 0.  1.
         11    1    3    3    0    0 -0.39726049773E+02  0.14214172259E+02 -0.37438559718E+01  0.42358212679E+02  0.51100000000E-03 0. -1.
        -11    1    3    3    0    0  0.19571486194E+01 -0.75021164338E+01 -0.12879820242E+01  0.78594579749E+01  0.51100000000E-03 0.  1.
        -12    1    3    3    0    0  0.38876112677E+02 -0.70172936839E+01  0.47601713694E+01  0.39790121625E+02  0.00000000000E+00 0.  1.
</event>
<event>
 7    1  0.1756449E-015  0.9000765E+02  0.7816164E-02  0.1186339E+00
        -11   -1    0    0    0    0  0.00000000000E+00  0.00000000000E+00  0.45593999997E+02  0.45594000000E+02  0.51100000000E-03 0.  1.
         11   -1    0    0    0    0 -0.00000000000E+00 -0.00000000000E+00 -0.45593999997E+02  0.45594000000E+02  0.51100000000E-03 0. -1.
    9900012    2    1    2    0    0  0.10987251815E+01 -0.96273134300E-01  0.42043625337E+00  0.90007647432E+02  0.89999907578E+02 0.  0.
        -12    1    1    2    0    0 -0.10987251815E+01  0.96273134300E-01 -0.42043625337E+00  0.11803525676E+01  0.00000000000E+00 0.  1.
         11    1    3    3    0    0 -0.20352468191E+02  0.25951552635E+02 -0.25898740937E+02  0.41933886393E+02  0.51100000000E-03 0. -1.
        -11    1    3    3    0    0  0.57125150764E+01  0.29028478986E+01  0.83984154935E+01  0.10563746375E+02  0.51100000000E-03 0.  1.
        -12    1    3    3    0    0  0.15738678296E+02 -0.28950673668E+02  0.17920761697E+02  0.37510014664E+02  0.00000000000E+00 0.  1.
</event>
<event>
 7    1  0.1756449E-015  0.9000670E+02  0.7816164E-02  0.1186341E+00
        -11   -1    0    0    0    0  0.00000000000E+00  0.00000000000E+00  0.45593999997E+02  0.45594000000E+02  0.51100000000E-03 0. -1.
         11   -1    0    0    0    0 -0.00000000000E+00 -0.00000000000E+00 -0.45593999997E+02  0.45594000000E+02  0.51100000000E-03 0.  1.
    9900012    2    1    2    0    0 -0.22026152718E+00  0.13671918391E+00  0.11524991064E+01  0.90006703481E+02  0.89998951161E+02 0.  0.
        -12    1    1    2    0    0  0.22026152718E+00 -0.13671918391E+00 -0.11524991064E+01  0.11812965190E+01  0.00000000000E+00 0.  1.
         11    1    3    3    0    0 -0.60702011382E+00 -0.66647464436E+00 -0.87660944745E+01  0.88123251453E+01  0.51100000000E-03 0. -1.
        -11    1    3    3    0    0  0.12340346277E+01  0.40072983311E+02 -0.20151754809E+01  0.40142592909E+02  0.51100000000E-03 0.  1.
         12    1    3    3    0    0 -0.84727604106E+00 -0.39269789483E+02  0.11933769062E+02  0.41051785427E+02  0.00000000000E+00 0. -1.
</event>
<event>
 7    1  0.1756449E-015  0.9000762E+02  0.7816164E-02  0.1186339E+00
        -11   -1    0    0    0    0  0.00000000000E+00  0.00000000000E+00  0.45593999997E+02  0.45594000000E+02  0.51100000000E-03 0.  1.
         11   -1    0    0    0    0 -0.00000000000E+00 -0.00000000000E+00 -0.45593999997E+02  0.45594000000E+02  0.51100000000E-03 0. -1.
    9900012    2    1    2    0    0 -0.75806742115E+00  0.54130866466E-01 -0.90315617631E+00  0.90007624024E+02  0.89999883861E+02 0.  0.
        -12    1    1    2    0    0  0.75806742115E+00 -0.54130866466E-01  0.90315617631E+00  0.11803759759E+01  0.00000000000E+00 0.  1.
         11    1    3    3    0    0 -0.60401741112E+01 -0.81455870304E+01 -0.41056168540E+02  0.42289990149E+02  0.51100000000E-03 0. -1.
        -11    1    3    3    0    0  0.32167678309E+00 -0.78870587332E+01  0.70655726616E+01  0.10593936412E+02  0.51100000000E-03 0.  1.
        -12    1    3    3    0    0  0.49604299070E+01  0.16086776630E+02  0.33087439702E+02  0.37123697462E+02  0.00000000000E+00 0.  1.
</event>
<event>
 7    1  0.1756449E-015  0.9000773E+02  0.7816164E-02  0.1186339E+00
        -11   -1    0    0    0    0  0.00000000000E+00  0.00000000000E+00  0.45593999997E+02  0.45594000000E+02  0.51100000000E-03 0. -1.
         11   -1    0    0    0    0 -0.00000000000E+00 -0.00000000000E+00 -0.45593999997E+02  0.45594000000E+02  0.51100000000E-03 0.  1.
    9900012    2    1    2    0    0  0.68114574168E+00  0.53887511781E+00  0.79917769901E+00  0.90007732696E+02  0.89999993968E+02 0.  0.
        -12    1    1    2    0    0 -0.68114574168E+00 -0.53887511781E+00 -0.79917769901E+00  0.11802673039E+01  0.00000000000E+00 0.  1.
         11    1    3    3    0    0 -0.20568712620E+01 -0.20181876643E+02  0.20805993411E+02  0.29059047237E+02  0.51100000000E-03 0. -1.
        -11    1    3    3    0    0  0.14193699387E+02 -0.14252258328E+02 -0.11526138376E+02  0.23182748669E+02  0.51100000000E-03 0.  1.
         12    1    3    3    0    0 -0.11455682383E+02  0.34973010089E+02 -0.84806773358E+01  0.37765936790E+02  0.00000000000E+00 0. -1.
</event>
<event>
 7    1  0.1756449E-015  0.9000775E+02  0.7816164E-02  0.1186339E+00
        -11   -1    0    0    0    0  0.00000000000E+00  0.00000000000E+00  0.45593999997E+02  0.45594000000E+02  0.51100000000E-03 0. -1.
         11   -1    0    0    0    0 -0.00000000000E+00 -0.00000000000E+00 -0.45593999997E+02  0.45594000000E+02  0.51100000000E-03 0.  1.
    9900012    2    1    2    0    0  0.18594814608E+00 -0.83644619234E+00  0.81164585967E+00  0.90007750896E+02  0.90000012408E+02 0.  0.
        -12    1    1    2    0    0 -0.18594814608E+00  0.83644619234E+00 -0.81164585967E+00  0.11802491039E+01  0.00000000000E+00 0.  1.
         11    1    3    3    0    0  0.27951995907E+02 -0.27847899385E+02  0.70107375386E+01  0.40074555724E+02  0.51100000000E-03 0. -1.
        -11    1    3    3    0    0  0.58490839270E+01  0.24271864484E+01 -0.53320028510E+01  0.82784824397E+01  0.51100000000E-03 0.  1.
        -12    1    3    3    0    0 -0.33615131688E+02  0.24584266745E+02 -0.86708882791E+00  0.41654712732E+02  0.00000000000E+00 0.  1.
</event>
<event>
 7    1  0.2457247E-015  0.9000770E+02  0.7816164E-02  0.1186339E+00
        -11   -1    0    0    0    0  0.00000000000E+00  0.00000000000E+00  0.45593999997E+02  0.45594000000E+02  0.51100000000E-03 0. -1.
         11   -1    0    0    0    0 -0.00000000000E+00 -0.00000000000E+00 -0.45593999997E+02  0.45594000000E+02  0.51100000000E-03 0.  1.
    9900012    2    1    2    0    0  0.83029133634E+00 -0.39285243533E+00  0.74120528470E+00  0.90007702574E+02  0.89999963448E+02 0.  0.
        -12    1    1    2    0    0 -0.83029133634E+00  0.39285243533E+00 -0.74120528470E+00  0.11802974257E+01  0.00000000000E+00 0.  1.
         11    1    3    3    0    0  0.92684150252E+01 -0.93400271251E+00 -0.11959118770E+01  0.93918093904E+01  0.51100000000E-03 0. -1.
        -11    1    3    3    0    0  0.28378154588E+02  0.41972408028E+01 -0.22344332226E+02  0.36362146128E+02  0.51100000000E-03 0.  1.
         12    1    3    3    0    0 -0.36816278277E+02 -0.36560905256E+01  0.24281449388E+02  0.44253747056E+02  0.00000000000E+00 0. -1.
</event>
<event>
 7    1  0.1756449E-015  0.9000890E+02  0.7816164E-02  0.1186337E+00
        -11   -1    0    0    0    0  0.00000000000E+00  0.00000000000E+00  0.45593999997E+02  0.45594000000E+02  0.51100000000E-03 0. -1.
         11   -1    0    0    0    0 -0.00000000000E+00 -0.00000000000E+00 -0.45593999997E+02  0.45594000000E+02  0.51100000000E-03 0.  1.
    9900012    2    1    2    0    0  0.11155212486E+01  0.59226002551E-01 -0.37732030620E+00  0.90008904589E+02  0.90001181322E+02 0.  0.
        -12    1    1    2    0    0 -0.11155212486E+01 -0.59226002551E-01  0.37732030620E+00  0.11790954113E+01  0.00000000000E+00 0.  1.
         11    1    3    3    0    0  0.55381523270E+01 -0.42444952196E+02 -0.33254167087E+01  0.42933710469E+02  0.51100000000E-03 0. -1.
        -11    1    3    3    0    0  0.37391378430E+01  0.61141635323E+01  0.64173485657E+01  0.96201096867E+01  0.51100000000E-03 0.  1.
        -12    1    3    3    0    0 -0.81617689214E+01  0.36390014666E+02 -0.34692521633E+01  0.37455084433E+02  0.00000000000E+00 0.  1.
</event>
<event>
 7    1  0.1756449E-015  0.9000799E+02  0.7816164E-02  0.1186339E+00
        -11   -1    0    0    0    0  0.00000000000E+00  0.00000000000E+00  0.45593999997E+02  0.45594000000E+02  0.51100000000E-03 0.  1.
         11   -1    0    0    0    0 -0.00000000000E+00 -0.00000000000E+00 -0.45593999997E+02  0.45594000000E+02  0.51100000000E-03 0. -1.
    9900012    2    1    2    0    0 -0.11324668809E+01 -0.23438985649E+00 -0.23452649871E+00  0.90007990458E+02  0.90000255131E+02 0.  0.
        -12    1    1    2    0    0  0.11324668809E+01  0.23438985649E+00  0.23452649871E+00  0.11800095422E+01  0.00000000000E+00 0.  1.
         11    1    3    3    0    0 -0.25655917930E+01 -0.88337193324E+01  0.42082516081E+01  0.10115643348E+02  0.51100000000E-03 0. -1.
        -11    1    3    3    0    0 -0.30357531874E+02 -0.13487012788E+02  0.15145650226E+02  0.36508491840E+02  0.51100000000E-03 0.  1.
         12    1    3    3    0    0  0.31790656786E+02  0.22086342263E+02 -0.19588428333E+02  0.43383855269E+02  0.00000000000E+00 0. -1.
</event>
<event>
 7    1  0.1756449E-015  0.9000782E+02  0.7816164E-02  0.1186339E+00
        -11   -1    0    0    0    0  0.00000000000E+00  0.00000000000E+00  0.45593999997E+02  0.45594000000E+02  0.51100000000E-03 0.  1.
         11   -1    0    0    0    0 -0.00000000000E+00 -0.00000000000E+00 -0.45593999997E+02  0.45594000000E+02  0.51100000000E-03 0. -1.
    9900012    2    1    2    0    0  0.76708496458E+00 -0.20555340199E+00 -0.87301895062E+00  0.90007816272E+02  0.90000078647E+02 0.  0.
        -12    1    1    2    0    0 -0.76708496458E+00  0.20555340199E+00  0.87301895062E+00  0.11801837281E+01  0.00000000000E+00 0.  1.
         11    1    3    3    0    0  0.26441583272E+01 -0.33742606791E+01  0.12265336276E+02  0.12992908936E+02  0.51100000000E-03 0. -1.
        -11    1    3    3    0    0  0.50256049936E+01 -0.23024566348E+02  0.22276277962E+02  0.32428689785E+02  0.51100000000E-03 0.  1.
         12    1    3    3    0    0 -0.69026783562E+01  0.26193273625E+02 -0.35414633188E+02  0.44586217551E+02  0.00000000000E+00 0. -1.
</event>
<event>
 7    1  0.1756449E-015  0.9000777E+02  0.7816164E-02  0.1186339E+00
        -11   -1    0    0    0    0  0.00000000000E+00  0.00000000000E+00  0.45593999997E+02  0.45594000000E+02  0.51100000000E-03 0. -1.
         11   -1    0    0    0    0 -0.00000000000E+00 -0.00000000000E+00 -0.45593999997E+02  0.45594000000E+02  0.51100000000E-03 0.  1.
    9900012    2    1    2    0    0 -0.11296077506E+01  0.75086201401E-01  0.33360710429E+00  0.90007768960E+02  0.90000030710E+02 0.  0.
        -12    1    1    2    0    0  0.11296077506E+01 -0.75086201401E-01 -0.33360710429E+00  0.11802310400E+01  0.00000000000E+00 0.  1.
         11    1    3    3    0    0 -0.28754376246E-01  0.83392824880E+01  0.26576143974E+01  0.87525638402E+01  0.51100000000E-03 0. -1.
        -11    1    3    3    0    0 -0.22772297795E+02  0.87061545375E+01 -0.32359038406E+02  0.40515207521E+02  0.51100000000E-03 0.  1.
         12    1    3    3    0    0  0.21671444421E+02 -0.16970350824E+02  0.30035031113E+02  0.40739997598E+02  0.00000000000E+00 0. -1.
</event>
<event>
 7    1  0.1756449E-015  0.9000883E+02  0.7816164E-02  0.1186337E+00
        -11   -1    0    0    0    0  0.00000000000E+00  0.00000000000E+00  0.45593999997E+02  0.45594000000E+02  0.51100000000E-03 0. -1.
         11   -1    0    0    0    0 -0.00000000000E+00 -0.00000000000E+00 -0.45593999997E+02  0.45594000000E+02  0.51100000000E-03 0.  1.
    9900012    2    1    2    0    0 -0.10942744967E+00 -0.85710182611E+00  0.80240092639E+00  0.90008828616E+02  0.90001104347E+02 0.  0.
        -12    1    1    2    0    0  0.10942744967E+00  0.85710182611E+00 -0.80240092639E+00  0.11791713844E+01  0.00000000000E+00 0.  1.
         11    1    3    3    0    0  0.55672323320E+01  0.58970015635E+01 -0.17701903756E+01  0.83007395758E+01  0.51100000000E-03 0. -1.
        -11    1    3    3    0    0 -0.13162800967E+02 -0.12997438205E+02 -0.36777990763E+02  0.41168110644E+02  0.51100000000E-03 0.  1.
         12    1    3    3    0    0  0.74861411849E+01  0.62433348155E+01  0.39350582065E+02  0.40539978396E+02  0.00000000000E+00 0. -1.
</event>
<event>
 7    1  0.1756449E-015  0.9000894E+02  0.7816164E-02  0.1186337E+00
        -11   -1    0    0    0    0  0.00000000000E+00  0.00000000000E+00  0.45593999997E+02  0.45594000000E+02  0.51100000000E-03 0.  1.
         11   -1    0    0    0    0 -0.00000000000E+00 -0.00000000000E+00 -0.45593999997E+02  0.45594000000E+02  0.51100000000E-03 0. -1.
    9900012    2    1    2    0    0 -0.11017904114E+01 -0.41697962088E+00  0.48723809442E-01  0.90008937608E+02  0.90001214776E+02 0.  0.
        -12    1    1    2    0    0  0.11017904114E+01  0.41697962088E+00 -0.48723809442E-01  0.11790623921E+01  0.00000000000E+00 0.  1.
         11    1    3    3    0    0 -0.14711843999E+02  0.22874368402E+02 -0.52456139544E+01  0.27698222861E+02  0.51100000000E-03 0. -1.
        -11    1    3    3    0    0 -0.24311284446E+01  0.17797213978E+02  0.21338500180E+01  0.18088795622E+02  0.51100000000E-03 0.  1.
        -12    1    3    3    0    0  0.16041182032E+02 -0.41088562001E+02  0.31604877459E+01  0.44221919125E+02  0.00000000000E+00 0.  1.
</event>
<event>
 7    1  0.1756449E-015  0.9000772E+02  0.7816164E-02  0.1186339E+00
        -11   -1    0    0    0    0  0.00000000000E+00  0.00000000000E+00  0.45593999997E+02  0.45594000000E+02  0.51100000000E-03 0.  1.
         11   -1    0    0    0    0 -0.00000000000E+00 -0.00000000000E+00 -0.45593999997E+02  0.45594000000E+02  0.51100000000E-03 0. -1.
    9900012    2    1    2    0    0 -0.11516698350E+01 -0.93005344282E-01 -0.24094897802E+00  0.90007724688E+02  0.89999985854E+02 0.  0.
        -12    1    1    2    0    0  0.11516698350E+01  0.93005344282E-01  0.24094897802E+00  0.11802753124E+01  0.00000000000E+00 0.  1.
         11    1    3    3    0    0 -0.23401766229E+02  0.28400661840E+02  0.78706920593E+01  0.37632274039E+02  0.51100000000E-03 0. -1.
        -11    1    3    3    0    0 -0.50063711235E+01 -0.16388269161E+02 -0.13815063708E+02  0.22011249475E+02  0.51100000000E-03 0.  1.
        -12    1    3    3    0    0  0.27256467517E+02 -0.12105398023E+02  0.57034226702E+01  0.30364201174E+02  0.00000000000E+00 0.  1.
</event>
<event>
 7    1  0.1756449E-015  0.9000790E+02  0.7816164E-02  0.1186339E+00
        -11   -1    0    0    0    0  0.00000000000E+00  0.00000000000E+00  0.45593999997E+02  0.45594000000E+02  0.51100000000E-03 0. -1.
         11   -1    0    0    0    0 -0.00000000000E+00 -0.00000000000E+00 -0.45593999997E+02  0.45594000000E+02  0.51100000000E-03 0.  1.
    9900012    2    1    2    0    0  0.20729469089E+00  0.10331746095E+01  0.53124630007E+00  0.90007896829E+02  0.90000160267E+02 0.  0.
        -12    1    1    2    0    0 -0.20729469089E+00 -0.10331746095E+01 -0.53124630007E+00  0.11801031709E+01  0.00000000000E+00 0.  1.
         11    1    3    3    0    0 -0.93837355785E+01 -0.33380327920E+01 -0.12315847847E+01  0.10035624429E+02  0.51100000000E-03 0. -1.
        -11    1    3    3    0    0 -0.79559742390E+01  0.36436797496E+02  0.16213053282E+02  0.40666950154E+02  0.51100000000E-03 0.  1.
         12    1    3    3    0    0  0.17547004508E+02 -0.32065590095E+02 -0.14450222197E+02  0.39305322246E+02  0.00000000000E+00 0. -1.
</event>
<event>
 7    1  0.1756449E-015  0.9000781E+02  0.7816164E-02  0.1186339E+00
        -11   -1    0    0    0    0  0.00000000000E+00  0.00000000000E+00  0.45593999997E+02  0.45594000000E+02  0.51100000000E-03 0.  1.
         11   -1    0    0    0    0 -0.00000000000E+00 -0.00000000000E+00 -0.45593999997E+02  0.45594000000E+02  0.51100000000E-03 0. -1.
    9900012    2    1    2    0    0 -0.91877429270E+00 -0.40069368762E+00 -0.62301751312E+00  0.90007808298E+02  0.90000070567E+02 0.  0.
        -12    1    1    2    0    0  0.91877429270E+00  0.40069368762E+00  0.62301751312E+00  0.11801917022E+01  0.00000000000E+00 0.  1.
         11    1    3    3    0    0  0.29956222915E+02  0.58411504884E+00  0.23805680755E+02  0.38267831376E+02  0.51100000000E-03 0. -1.
        -11    1    3    3    0    0  0.52902937544E+01 -0.71218399593E+01 -0.57903256354E+01  0.10594134398E+02  0.51100000000E-03 0.  1.
        -12    1    3    3    0    0 -0.36165290962E+02  0.61370312229E+01 -0.18638372633E+02  0.41145842524E+02  0.00000000000E+00 0.  1.
</event>
<event>
 7    1  0.1756449E-015  0.9000781E+02  0.7816164E-02  0.1186339E+00
        -11   -1    0    0    0    0  0.00000000000E+00  0.00000000000E+00  0.45593999997E+02  0.45594000000E+02  0.51100000000E-03 0. -1.
         11   -1    0    0    0    0 -0.00000000000E+00 -0.00000000000E+00 -0.45593999997E+02  0.45594000000E+02  0.51100000000E-03 0.  1.
    9900012    2    1    2    0    0  0.85614357371E+00  0.69088523851E+00 -0.42724135870E+00  0.90007813824E+02  0.90000076166E+02 0.  0.
        -12    1    1    2    0    0 -0.85614357371E+00 -0.69088523851E+00  0.42724135870E+00  0.11801861761E+01  0.00000000000E+00 0.  1.
         11    1    3    3    0    0  0.37741707851E+01  0.33248953201E+01 -0.60404313163E+01  0.78604137774E+01  0.51100000000E-03 0. -1.
        -11    1    3    3    0    0  0.28969627029E+01 -0.44014226245E+00 -0.37990332277E+02  0.38103168699E+02  0.51100000000E-03 0.  1.
         12    1    3    3    0    0 -0.58149899143E+01 -0.21938678191E+01  0.43603522235E+02  0.44044231347E+02  0.00000000000E+00 0. -1.
</event>
<event>
 7    1  0.1756449E-015  0.9000783E+02  0.7816164E-02  0.1186339E+00
        -11   -1    0    0    0    0  0.00000000000E+00  0.00000000000E+00  0.45593999997E+02  0.45594000000E+02  0.51100000000E-03 0.  1.
         11   -1    0    0    0    0 -0.00000000000E+00 -0.00000000000E+00 -0.45593999997E+02  0.45594000000E+02  0.51100000000E-03 0. -1.
    9900012    2    1    2    0    0 -0.23682201805E-01 -0.16431913860E+00 -0.11684307634E+01  0.90007833878E+02  0.90000096485E+02 0.  0.
        -12    1    1    2    0    0  0.23682201805E-01  0.16431913860E+00  0.11684307634E+01  0.11801661218E+01  0.00000000000E+00 0.  1.
         11    1    3    3    0    0 -0.79805938507E+01  0.24405795984E+02 -0.28944187296E+02  0.38692360154E+02  0.51100000000E-03 0. -1.
        -11    1    3    3    0    0 -0.98068041093E+01 -0.50095198006E+01 -0.23331006382E+01  0.11256644896E+02  0.51100000000E-03 0.  1.
        -12    1    3    3    0    0  0.17763715758E+02 -0.19560595322E+02  0.30108857171E+02  0.40058828828E+02  0.00000000000E+00 0.  1.
</event>
<event>
 7    1  0.1756449E-015  0.9000776E+02  0.7816164E-02  0.1186339E+00
        -11   -1    0    0    0    0  0.00000000000E+00  0.00000000000E+00  0.45593999997E+02  0.45594000000E+02  0.51100000000E-03 0.  1.
         11   -1    0    0    0    0 -0.00000000000E+00 -0.00000000000E+00 -0.45593999997E+02  0.45594000000E+02  0.51100000000E-03 0. -1.
    9900012    2    1    2    0    0  0.53757425888E+00  0.35297892997E+00 -0.98963801430E+00  0.90007761207E+02  0.90000022855E+02 0.  0.
        -12    1    1    2    0    0 -0.53757425888E+00 -0.35297892997E+00  0.98963801430E+00  0.11802387929E+01  0.00000000000E+00 0.  1.
         11    1    3    3    0    0  0.11010294800E+02 -0.22009100210E+01 -0.45028923668E+01  0.12097381387E+02  0.51100000000E-03 0. -1.
        -11    1    3    3    0    0  0.26355103501E+02 -0.18955011931E+02  0.11653134119E+02  0.34491730791E+02  0.51100000000E-03 0.  1.
         12    1    3    3    0    0 -0.36827824043E+02  0.21508900882E+02 -0.81398797662E+01  0.43418649029E+02  0.00000000000E+00 0. -1.
</event>
<event>
 7    1  0.1756449E-015  0.9000768E+02  0.7816164E-02  0.1186339E+00
        -11   -1    0    0    0    0  0.00000000000E+00  0.00000000000E+00  0.45593999997E+02  0.45594000000E+02  0.51100000000E-03 0. -1.
         11   -1    0    0    0    0 -0.00000000000E+00 -0.00000000000E+00 -0.45593999997E+02  0.45594000000E+02  0.51100000000E-03 0.  1.
    9900012    2    1    2    0    0 -0.93976714323E+00 -0.44069095886E+00 -0.56193885270E+00  0.90007683907E+02  0.89999944535E+02 0.  0.
        -12    1    1    2    0    0  0.93976714323E+00  0.44069095886E+00  0.56193885270E+00  0.11803160928E+01  0.00000000000E+00 0.  1.
         11    1    3    3    0    0  0.20837462915E+01 -0.25799479040E+02 -0.26383220907E+02  0.36959835809E+02  0.51100000000E-03 0. -1.
        -11    1    3    3    0    0  0.25389425655E+01  0.12933654387E+02 -0.87986911835E+01  0.15847479672E+02  0.51100000000E-03 0.  1.
         12    1    3    3    0    0 -0.55624560002E+01  0.12425133694E+02  0.34619973238E+02  0.37200368426E+02  0.00000000000E+00 0. -1.
</event>
<event>
 7    1  0.1756449E-015  0.9000764E+02  0.7816164E-02  0.1186339E+00
        -11   -1    0    0    0    0  0.00000000000E+00  0.00000000000E+00  0.45593999997E+02  0.45594000000E+02  0.51100000000E-03 0.  1.
         11   -1    0    0    0    0 -0.00000000000E+00 -0.00000000000E+00 -0.45593999997E+02  0.45594000000E+02  0.51100000000E-03 0. -1.
    9900012    2    1    2    0    0  0.46382991760E+00 -0.73442676425E+00 -0.79921069913E+00  0.90007636240E+02  0.89999896238E+02 0.  0.
        -12    1    1    2    0    0 -0.46382991760E+00  0.73442676425E+00  0.79921069913E+00  0.11803637601E+01  0.00000000000E+00 0.  1.
         11    1    3    3    0    0 -0.14335897698E+02  0.11542421305E+02 -0.31201056718E+02  0.36225010600E+02  0.51100000000E-03 0. -1.
        -11    1    3    3    0    0 -0.99127334766E+00 -0.35598786507E+01 -0.93914259512E+01  0.10092286189E+02  0.51100000000E-03 0.  1.
        -12    1    3    3    0    0  0.15791000963E+02 -0.87169694180E+01  0.39793271970E+02  0.43690339451E+02  0.00000000000E+00 0.  1.
</event>
<event>
 7    1  0.1756449E-015  0.9000759E+02  0.7816164E-02  0.1186339E+00
        -11   -1    0    0    0    0  0.00000000000E+00  0.00000000000E+00  0.45593999997E+02  0.45594000000E+02  0.51100000000E-03 0.  1.
         11   -1    0    0    0    0 -0.00000000000E+00 -0.00000000000E+00 -0.45593999997E+02  0.45594000000E+02  0.51100000000E-03 0. -1.
    9900012    2    1    2    0    0  0.23169998642E+00 -0.16821511616E+00 -0.11451571550E+01  0.90007590699E+02  0.89999850096E+02 0.  0.
        -12    1    1    2    0    0 -0.23169998642E+00  0.16821511616E+00  0.11451571550E+01  0.11804093013E+01  0.00000000000E+00 0.  1.
         11    1    3    3    0    0  0.26467351064E+01 -0.49604495345E+01  0.75828492221E+01  0.94398553429E+01  0.51100000000E-03 0. -1.
        -11    1    3    3    0    0  0.20034919931E+02  0.23332090907E+01  0.29755014693E+02  0.35947222158E+02  0.51100000000E-03 0.  1.
         12    1    3    3    0    0 -0.22449955051E+02  0.24590253277E+01 -0.38483021070E+02  0.44620513197E+02  0.00000000000E+00 0. -1.
</event>
<event>
 7    1  0.1756449E-015  0.9000777E+02  0.7816164E-02  0.1186339E+00
        -11   -1    0    0    0    0  0.00000000000E+00  0.00000000000E+00  0.45593999997E+02  0.45594000000E+02  0.51100000000E-03 0. -1.
         11   -1    0    0    0    0 -0.00000000000E+00 -0.00000000000E+00 -0.45593999997E+02  0.45594000000E+02  0.51100000000E-03 0.  1.
    9900012    2    1    2    0    0  0.88926627415E+00 -0.67857031595E+00  0.37640684708E+00  0.90007773626E+02  0.90000035438E+02 0.  0.
        -12    1    1    2    0    0 -0.88926627415E+00  0.67857031595E+00 -0.37640684708E+00  0.11802263743E+01  0.00000000000E+00 0.  1.
         11    1    3    3    0    0  0.32593047568E+02  0.21945326116E+02  0.24303700750E+01  0.39367636290E+02  0.51100000000E-03 0. -1.
        -11    1    3    3    0    0 -0.60902474257E-01  0.43296076864E+01  0.68755731878E+01  0.81254365268E+01  0.51100000000E-03 0.  1.
        -12    1    3    3    0    0 -0.31642878820E+02 -0.26953504118E+02 -0.89295364156E+01  0.42514700809E+02  0.00000000000E+00 0.  1.
</event>
<event>
 7    1  0.1756449E-015  0.9000774E+02  0.7816164E-02  0.1186339E+00
        -11   -1    0    0    0    0  0.00000000000E+00  0.00000000000E+00  0.45593999997E+02  0.45594000000E+02  0.51100000000E-03 0.  1.
         11   -1    0    0    0    0 -0.00000000000E+00 -0.00000000000E+00 -0.45593999997E+02  0.45594000000E+02  0.51100000000E-03 0. -1.
    9900012    2    1    2    0    0 -0.55781619517E+00  0.57472797991E+00 -0.86691158982E+00  0.90007742883E+02  0.90000004289E+02 0.  0.
        -12    1    1    2    0    0  0.55781619517E+00 -0.57472797991E+00  0.86691158982E+00  0.11802571173E+01  0.00000000000E+00 0.  1.
         11    1    3    3    0    0 -0.12245070319E+02 -0.72621158081E+00  0.30658494631E+01  0.12643914092E+02  0.51100000000E-03 0. -1.
        -11    1    3    3    0    0  0.26195633737E+02 -0.29206953253E+02  0.10521111762E+02  0.40619590571E+02  0.51100000000E-03 0.  1.
         12    1    3    3    0    0 -0.14508379613E+02  0.30507892814E+02 -0.14453872815E+02  0.36744238219E+02  0.00000000000E+00 0. -1.
</event>
<event>
 7    1  0.1756449E-015  0.9000766E+02  0.7816164E-02  0.1186339E+00
        -11   -1    0    0    0    0  0.00000000000E+00  0.00000000000E+00  0.45593999997E+02  0.45594000000E+02  0.51100000000E-03 0.  1.
         11   -1    0    0    0    0 -0.00000000000E+00 -0.00000000000E+00 -0.45593999997E+02  0.45594000000E+02  0.51100000000E-03 0. -1.
    9900012    2    1    2    0    0 -0.11010408000E+01 -0.27890105672E+00 -0.32111608586E+00  0.90007664377E+02  0.89999924747E+02 0.  0.
        -12    1    1    2    0    0  0.11010408000E+01  0.27890105672E+00  0.32111608586E+00  0.11803356231E+01  0.00000000000E+00 0.  1.
         11    1    3    3    0    0 -0.19031476931E+01  0.68362548997E+01 -0.67593874097E+01  0.98002893127E+01  0.51100000000E-03 0. -1.
        -11    1    3    3    0    0  0.91893163687E+01  0.71653711925E+01  0.40602005556E+02  0.42241081130E+02  0.51100000000E-03 0.  1.
         12    1    3    3    0    0 -0.83872094755E+01 -0.14280527149E+02 -0.34163734232E+02  0.37966293934E+02  0.00000000000E+00 0. -1.
</event>
<event>
 7    1  0.1756449E-015  0.9000770E+02  0.7816164E-02  0.1186339E+00
        -11   -1    0    0    0    0  0.00000000000E+00  0.00000000000E+00  0.45593999997E+02  0.45594000000E+02  0.51100000000E-03 0.  1.
         11   -1    0    0    0    0 -0.00000000000E+00 -0.00000000000E+00 -0.45593999997E+02  0.45594000000E+02  0.51100000000E-03 0. -1.
    9900012    2    1    2    0    0  0.54703188848E+00 -0.91420053800E+00 -0.50804047048E+00  0.90007698500E+02  0.89999959320E+02 0.  0.
        -12    1    1    2    0    0 -0.54703188848E+00  0.91420053800E+00  0.50804047048E+00  0.11803014998E+01  0.00000000000E+00 0.  1.
         11    1    3    3    0    0 -0.55948832451E+01 -0.37706563518E+01  0.23349318998E+01  0.71395010391E+01  0.51100000000E-03 0. -1.
        -11    1    3    3    0    0 -0.40216166460E+01 -0.75233167250E+01  0.38298596837E+02  0.39237178988E+02  0.51100000000E-03 0.  1.
         12    1    3    3    0    0  0.10163531780E+02  0.10379772539E+02 -0.41141569207E+02  0.43631018473E+02  0.00000000000E+00 0. -1.
</event>
<event>
 7    1  0.1756449E-015  0.9000783E+02  0.7816164E-02  0.1186339E+00
        -11   -1    0    0    0    0  0.00000000000E+00  0.00000000000E+00  0.45593999997E+02  0.45594000000E+02  0.51100000000E-03 0.  1.
         11   -1    0    0    0    0 -0.00000000000E+00 -0.00000000000E+00 -0.45593999997E+02  0.45594000000E+02  0.51100000000E-03 0. -1.
    9900012    2    1    2    0    0 -0.11766612764E+01  0.90244898045E-01  0.11181040993E-01  0.90007830132E+02  0.90000092690E+02 0.  0.
        -12    1    1    2    0    0  0.11766612764E+01 -0.90244898045E-01 -0.11181040993E-01  0.11801698678E+01  0.00000000000E+00 0.  1.
         11    1    3    3    0    0 -0.39573398074E+01  0.90493523377E+01 -0.28641562288E+01  0.10283710772E+02  0.51100000000E-03 0. -1.
        -11    1    3    3    0    0  0.54307952199E+01  0.35107862659E+02  0.11838144909E+01  0.35545139952E+02  0.51100000000E-03 0.  1.
         12    1    3    3    0    0 -0.26501166890E+01 -0.44066970099E+02  0.16915227789E+01  0.44178979408E+02  0.00000000000E+00 0. -1.
</event>
<event>
 7    1  0.1756449E-015  0.9000778E+02  0.7816164E-02  0.1186339E+00
        -11   -1    0    0    0    0  0.00000000000E+00  0.00000000000E+00  0.45593999997E+02  0.45594000000E+02  0.51100000000E-03 0. -1.
         11   -1    0    0    0    0 -0.00000000000E+00 -0.00000000000E+00 -0.45593999997E+02  0.45594000000E+02  0.51100000000E-03 0.  1.
    9900012    2    1    2    0    0 -0.29428295052E+00  0.11289389452E+01 -0.17839226196E+00  0.90007775701E+02  0.90000037540E+02 0.  0.
        -12    1    1    2    0    0  0.29428295052E+00 -0.11289389452E+01  0.17839226196E+00  0.11802242991E+01  0.00000000000E+00 0.  1.
         11    1    3    3    0    0 -0.22671462101E+02  0.20812777853E+02 -0.24018225524E+02  0.39038981459E+02  0.51100000000E-03 0. -1.
        -11    1    3    3    0    0  0.32327589846E+01  0.88157177346E+01  0.40118680274E+00  0.93983275608E+01  0.51100000000E-03 0.  1.
        -12    1    3    3    0    0  0.19144420166E+02 -0.28499556642E+02  0.23438646459E+02  0.41570466682E+02  0.00000000000E+00 0.  1.
</event>
<event>
 7    1  0.1756449E-015  0.9000782E+02  0.7816164E-02  0.1186339E+00
        -11   -1    0    0    0    0  0.00000000000E+00  0.00000000000E+00  0.45593999997E+02  0.45594000000E+02  0.51100000000E-03 0.  1.
         11   -1    0    0    0    0 -0.00000000000E+00 -0.00000000000E+00 -0.45593999997E+02  0.45594000000E+02  0.51100000000E-03 0. -1.
    9900012    2    1    2    0    0 -0.11459155815E+01  0.25506029561E+00 -0.12101433438E+00  0.90007820885E+02  0.90000083321E+02 0.  0.
        -12    1    1    2    0    0  0.11459155815E+01 -0.25506029561E+00  0.12101433438E+00  0.11801791150E+01  0.00000000000E+00 0.  1.
         11    1    3    3    0    0  0.29613005615E+02  0.15037986512E+02 -0.18697364408E+02  0.38113810830E+02  0.51100000000E-03 0. -1.
        -11    1    3    3    0    0  0.54611810732E+01  0.36397977006E+01  0.70995541137E+01  0.96683139632E+01  0.51100000000E-03 0.  1.
        -12    1    3    3    0    0 -0.36220102270E+02 -0.18422723916E+02  0.11476795960E+02  0.42225696092E+02  0.00000000000E+00 0.  1.
</event>
<event>
 7    1  0.1756449E-015  0.9000773E+02  0.7816164E-02  0.1186339E+00
        -11   -1    0    0    0    0  0.00000000000E+00  0.00000000000E+00  0.45593999997E+02  0.45594000000E+02  0.51100000000E-03 0. -1.
         11   -1    0    0    0    0 -0.00000000000E+00 -0.00000000000E+00 -0.45593999997E+02  0.45594000000E+02  0.51100000000E-03 0.  1.
    9900012    2    1    2    0    0  0.93606732636E+00 -0.71232292029E+00 -0.97026058061E-01  0.90007728829E+02  0.89999990049E+02 0.  0.
        -12    1    1    2    0    0 -0.93606732636E+00  0.71232292029E+00  0.97026058061E-01  0.11802711715E+01  0.00000000000E+00 0.  1.
         11    1    3    3    0    0  0.73964345029E+01 -0.20602149308E+02 -0.20720371751E+01  0.21987476840E+02  0.51100000000E-03 0. -1.
        -11    1    3    3    0    0 -0.24378455204E+02 -0.10256526391E+02  0.15241391537E+02  0.30525488170E+02  0.51100000000E-03 0.  1.
         12    1    3    3    0    0  0.17918088028E+02  0.30146352778E+02 -0.13266380420E+02  0.37494763819E+02  0.00000000000E+00 0. -1.
</event>
<event>
 7    1  0.1756449E-015  0.9000774E+02  0.7816164E-02  0.1186339E+00
        -11   -1    0    0    0    0  0.00000000000E+00  0.00000000000E+00  0.45593999997E+02  0.45594000000E+02  0.51100000000E-03 0.  1.
         11   -1    0    0    0    0 -0.00000000000E+00 -0.00000000000E+00 -0.45593999997E+02  0.45594000000E+02  0.51100000000E-03 0. -1.
    9900012    2    1    2    0    0  0.65073723047E-01 -0.53888517081E+00 -0.10480395585E+01  0.90007737854E+02  0.89999999194E+02 0.  0.
        -12    1    1    2    0    0 -0.65073723047E-01  0.53888517081E+00  0.10480395585E+01  0.11802621458E+01  0.00000000000E+00 0.  1.
         11    1    3    3    0    0 -0.15186589398E+01 -0.10164428872E+02  0.10841299841E+02  0.14938397564E+02  0.51100000000E-03 0. -1.
        -11    1    3    3    0    0 -0.22397325505E+02  0.91681227431E+00  0.22822514730E+02  0.31989809524E+02  0.51100000000E-03 0.  1.
         12    1    3    3    0    0  0.23981058168E+02  0.87087314271E+01 -0.34711854129E+02  0.43079530766E+02  0.00000000000E+00 0. -1.
</event>
<event>
 7    1  0.1756449E-015  0.9000788E+02  0.7816164E-02  0.1186339E+00
        -11   -1    0    0    0    0  0.00000000000E+00  0.00000000000E+00  0.45593999997E+02  0.45594000000E+02  0.51100000000E-03 0. -1.
         11   -1    0    0    0    0 -0.00000000000E+00 -0.00000000000E+00 -0.45593999997E+02  0.45594000000E+02  0.51100000000E-03 0.  1.
    9900012    2    1    2    0    0  0.17219806190E+00  0.11645782332E+01 -0.82400452321E-01  0.90007879469E+02  0.90000142678E+02 0.  0.
        -12    1    1    2    0    0 -0.17219806190E+00 -0.11645782332E+01  0.82400452321E-01  0.11801205312E+01  0.00000000000E+00 0.  1.
         11    1    3    3    0    0  0.11096357340E+02 -0.26030121430E+02  0.24257898348E+02  0.37271195317E+02  0.51100000000E-03 0. -1.
        -11    1    3    3    0    0 -0.56116782294E+01  0.28552026129E+01  0.90820588469E+01  0.11051104364E+02  0.51100000000E-03 0.  1.
        -12    1    3    3    0    0 -0.53124810484E+01  0.24339497050E+02 -0.33422357647E+02  0.41685579787E+02  0.00000000000E+00 0.  1.
</event>
<event>
 7    1  0.1756449E-015  0.9000774E+02  0.7816164E-02  0.1186339E+00
        -11   -1    0    0    0    0  0.00000000000E+00  0.00000000000E+00  0.45593999997E+02  0.45594000000E+02  0.51100000000E-03 0. -1.
         11   -1    0    0    0    0 -0.00000000000E+00 -0.00000000000E+00 -0.45593999997E+02  0.45594000000E+02  0.51100000000E-03 0.  1.
    9900012    2    1    2    0    0  0.68140622031E+00  0.43816157342E-01  0.96269785077E+00  0.90007736705E+02  0.89999998030E+02 0.  0.
        -12    1    1    2    0    0 -0.68140622031E+00 -0.43816157342E-01 -0.96269785077E+00  0.11802632946E+01  0.00000000000E+00 0.  1.
         11    1    3    3    0    0 -0.40360083648E+02 -0.82370099749E+01  0.65250505255E+01  0.41705646740E+02  0.51100000000E-03 0. -1.
        -11    1    3    3    0    0  0.32364029041E+01  0.15912228353E+01 -0.90593183597E+01  0.97507714193E+01  0.51100000000E-03 0.  1.
        -12    1    3    3    0    0  0.37805086964E+02  0.66896032969E+01  0.34969656850E+01  0.38551318546E+02  0.00000000000E+00 0.  1.
</event>
<event>
 7    1  0.1756449E-015  0.9000778E+02  0.7816164E-02  0.1186339E+00
        -11   -1    0    0    0    0  0.00000000000E+00  0.00000000000E+00  0.45593999997E+02  0.45594000000E+02  0.51100000000E-03 0. -1.
         11   -1    0    0    0    0 -0.00000000000E+00 -0.00000000000E+00 -0.45593999997E+02  0.45594000000E+02  0.51100000000E-03 0.  1.
    9900012    2    1    2    0    0  0.99335093689E+00 -0.61062584409E+00  0.18252369752E+00  0.90007777603E+02  0.90000039468E+02 0.  0.
        -12    1    1    2    0    0 -0.99335093689E+00  0.61062584409E+00 -0.18252369752E+00  0.11802223966E+01  0.00000000000E+00 0.  1.
         11    1    3    3    0    0 -0.62292671290E+01  0.19948367678E+01 -0.71948783166E+01  0.97236524489E+01  0.51100000000E-03 0. -1.
        -11    1    3    3    0    0  0.39904329042E+02 -0.89416410618E+01 -0.10879454802E+02  0.42316320234E+02  0.51100000000E-03 0.  1.
         12    1    3    3    0    0 -0.32681710976E+02  0.63361784499E+01  0.18256856816E+02  0.37967804920E+02  0.00000000000E+00 0. -1.
</event>
<event>
 7    1  0.1756449E-015  0.9000771E+02  0.7816164E-02  0.1186339E+00
        -11   -1    0    0    0    0  0.00000000000E+00  0.00000000000E+00  0.45593999997E+02  0.45594000000E+02  0.51100000000E-03 0. -1.
         11   -1    0    0    0    0 -0.00000000000E+00 -0.00000000000E+00 -0.45593999997E+02  0.45594000000E+02  0.51100000000E-03 0.  1.
    9900012    2    1    2    0    0 -0.11392500049E+01  0.16052122531E+00  0.26349749020E+00  0.90007708271E+02  0.89999969221E+02 0.  0.
        -12    1    1    2    0    0  0.11392500049E+01 -0.16052122531E+00 -0.26349749020E+00  0.11802917287E+01  0.00000000000E+00 0.  1.
         11    1    3    3    0    0  0.97160749095E+01  0.11082119286E+01 -0.35091794086E+01  0.10389638382E+02  0.51100000000E-03 0. -1.
        -11    1    3    3    0    0  0.20413777377E+02  0.24104822618E+02 -0.15466996450E+02  0.35170907860E+02  0.51100000000E-03 0.  1.
         12    1    3    3    0    0 -0.31269102292E+02 -0.25052513322E+02  0.19239673349E+02  0.44447162029E+02  0.00000000000E+00 0. -1.
</event>
<event>
 7    1  0.1756449E-015  0.9000777E+02  0.7816164E-02  0.1186339E+00
        -11   -1    0    0    0    0  0.00000000000E+00  0.00000000000E+00  0.45593999997E+02  0.45594000000E+02  0.51100000000E-03 0.  1.
         11   -1    0    0    0    0 -0.00000000000E+00 -0.00000000000E+00 -0.45593999997E+02  0.45594000000E+02  0.51100000000E-03 0. -1.
    9900012    2    1    2    0    0  0.11474991140E+01 -0.29058489245E-01  0.27447975822E+00  0.90007772162E+02  0.90000033954E+02 0.  0.
        -12    1    1    2    0    0 -0.11474991140E+01  0.29058489245E-01 -0.27447975822E+00  0.11802278382E+01  0.00000000000E+00 0.  1.
         11    1    3    3    0    0 -0.66683349240E+01 -0.10206053692E+01 -0.82933463985E+01  0.10690552873E+02  0.51100000000E-03 0. -1.
        -11    1    3    3    0    0  0.17037262757E+00 -0.37349217973E+02  0.13915256749E+02  0.39857590000E+02  0.51100000000E-03 0.  1.
         12    1    3    3    0    0  0.76454614105E+01  0.38340764853E+02 -0.53474305921E+01  0.39459629289E+02  0.00000000000E+00 0. -1.
</event>
<event>
 7    1  0.1756449E-015  0.9000772E+02  0.7816164E-02  0.1186339E+00
        -11   -1    0    0    0    0  0.00000000000E+00  0.00000000000E+00  0.45593999997E+02  0.45594000000E+02  0.51100000000E-03 0. -1.
         11   -1    0    0    0    0 -0.00000000000E+00 -0.00000000000E+00 -0.45593999997E+02  0.45594000000E+02  0.51100000000E-03 0.  1.
    9900012    2    1    2    0    0  0.90098119938E+00  0.75985974921E-01  0.75862752934E+00  0.90007721762E+02  0.89999982890E+02 0.  0.
        -12    1    1    2    0    0 -0.90098119938E+00 -0.75985974921E-01 -0.75862752934E+00  0.11802782377E+01  0.00000000000E+00 0.  1.
         11    1    3    3    0    0  0.25913534956E+02  0.29280926820E+02 -0.37491717774E+01  0.39280278240E+02  0.51100000000E-03 0. -1.
        -11    1    3    3    0    0  0.40705871551E+01 -0.22524959999E+01 -0.79100057893E+01  0.91766883931E+01  0.51100000000E-03 0.  1.
        -12    1    3    3    0    0 -0.29083140912E+02 -0.26952444845E+02  0.12417805096E+02  0.41550755129E+02  0.00000000000E+00 0.  1.
</event>
<event>
 7    1  0.1756449E-015  0.9000708E+02  0.7816164E-02  0.1186340E+00
        -11   -1    0    0    0    0  0.00000000000E+00  0.00000000000E+00  0.45593999997E+02  0.45594000000E+02  0.51100000000E-03 0.  1.
         11   -1    0    0    0    0 -0.00000000000E+00 -0.00000000000E+00 -0.45593999997E+02  0.45594000000E+02  0.51100000000E-03 0. -1.
    9900012    2    1    2    0    0  0.81115203945E+00  0.50641064882E+00 -0.69293182901E+00  0.90007079217E+02  0.89999331860E+02 0.  0.
        -12    1    1    2    0    0 -0.81115203945E+00 -0.50641064882E+00  0.69293182901E+00  0.11809207831E+01  0.00000000000E+00 0.  1.
         11    1    3    3    0    0  0.12750956008E+02  0.26317906058E+02 -0.26005147981E+02  0.39134214955E+02  0.51100000000E-03 0. -1.
        -11    1    3    3    0    0  0.82016174043E+01  0.32057563983E+01  0.49737254093E+01  0.10113424091E+02  0.51100000000E-03 0.  1.
        -12    1    3    3    0    0 -0.20141421373E+02 -0.29017251807E+02  0.20338490742E+02  0.40759440171E+02  0.00000000000E+00 0.  1.
</event>
<event>
 7    1  0.1786205E-015  0.9000780E+02  0.7816164E-02  0.1186339E+00
        -11   -1    0    0    0    0  0.00000000000E+00  0.00000000000E+00  0.45593999997E+02  0.45594000000E+02  0.51100000000E-03 0. -1.
         11   -1    0    0    0    0 -0.00000000000E+00 -0.00000000000E+00 -0.45593999997E+02  0.45594000000E+02  0.51100000000E-03 0.  1.
    9900012    2    1    2    0    0  0.10261624760E+01 -0.57553622190E+00  0.92908146022E-01  0.90007795232E+02  0.90000057329E+02 0.  0.
        -12    1    1    2    0    0 -0.10261624760E+01  0.57553622190E+00 -0.92908146022E-01  0.11802047676E+01  0.00000000000E+00 0.  1.
         11    1    3    3    0    0  0.41761844441E+01  0.87112274829E+01  0.17482958132E+01  0.98174609386E+01  0.51100000000E-03 0. -1.
        -11    1    3    3    0    0  0.27070144765E+02  0.99106354436E+00 -0.27884859928E+02  0.38875961184E+02  0.51100000000E-03 0.  1.
         12    1    3    3    0    0 -0.30220166733E+02 -0.10277827249E+02  0.26229472261E+02  0.41314373109E+02  0.00000000000E+00 0. -1.
</event>
<event>
 7    1  0.1756449E-015  0.9000776E+02  0.7816164E-02  0.1186339E+00
        -11   -1    0    0    0    0  0.00000000000E+00  0.00000000000E+00  0.45593999997E+02  0.45594000000E+02  0.51100000000E-03 0.  1.
         11   -1    0    0    0    0 -0.00000000000E+00 -0.00000000000E+00 -0.45593999997E+02  0.45594000000E+02  0.51100000000E-03 0. -1.
    9900012    2    1    2    0    0 -0.58688393270E+00  0.95502255757E+00 -0.36942585878E+00  0.90007755830E+02  0.90000017407E+02 0.  0.
        -12    1    1    2    0    0  0.58688393270E+00 -0.95502255757E+00  0.36942585878E+00  0.11802441701E+01  0.00000000000E+00 0.  1.
         11    1    3    3    0    0  0.23126427288E+02  0.18876743512E+02 -0.20411834688E+02  0.36163601595E+02  0.51100000000E-03 0. -1.
        -11    1    3    3    0    0  0.94922890486E+01  0.27931087783E+01  0.46680707275E-01  0.98948060809E+01  0.51100000000E-03 0.  1.
        -12    1    3    3    0    0 -0.33205600269E+02 -0.20714829733E+02  0.19995728121E+02  0.43949348154E+02  0.00000000000E+00 0.  1.
</event>
<event>
 7    1  0.1756449E-015  0.9000768E+02  0.7816164E-02  0.1186339E+00
        -11   -1    0    0    0    0  0.00000000000E+00  0.00000000000E+00  0.45593999997E+02  0.45594000000E+02  0.51100000000E-03 0.  1.
         11   -1    0    0    0    0 -0.00000000000E+00 -0.00000000000E+00 -0.45593999997E+02  0.45594000000E+02  0.51100000000E-03 0. -1.
    9900012    2    1    2    0    0  0.21018730402E-01  0.63616365816E+00 -0.99398514899E+00  0.90007681203E+02  0.89999941794E+02 0.  0.
        -12    1    1    2    0    0 -0.21018730402E-01 -0.63616365816E+00  0.99398514899E+00  0.11803187974E+01  0.00000000000E+00 0.  1.
         11    1    3    3    0    0 -0.39113911576E+01 -0.43227157104E+01 -0.13744037448E+01  0.59894772573E+01  0.51100000000E-03 0. -1.
        -11    1    3    3    0    0  0.52272442598E+01 -0.31465612637E+02  0.24579613043E+02  0.40268675653E+02  0.51100000000E-03 0.  1.
         12    1    3    3    0    0 -0.12948343718E+01  0.36424492006E+02 -0.24199194447E+02  0.43749528293E+02  0.00000000000E+00 0. -1.
</event>
<event>
 7    1  0.1756449E-015  0.9000809E+02  0.7816164E-02  0.1186338E+00
        -11   -1    0    0    0    0  0.00000000000E+00  0.00000000000E+00  0.45593999997E+02  0.45594000000E+02  0.51100000000E-03 0. -1.
         11   -1    0    0    0    0 -0.00000000000E+00 -0.00000000000E+00 -0.45593999997E+02  0.45594000000E+02  0.51100000000E-03 0.  1.
    9900012    2    1    2    0    0 -0.53627232302E+00  0.10120768377E+01  0.28336881906E+00  0.90008090928E+02  0.90000356928E+02 0.  0.
        -12    1    1    2    0    0  0.53627232302E+00 -0.10120768377E+01 -0.28336881906E+00  0.11799090717E+01  0.00000000000E+00 0.  1.
         11    1    3    3    0    0  0.35075663344E+02  0.70534848677E+01  0.15283162643E+01  0.35810467166E+02  0.51100000000E-03 0. -1.
        -11    1    3    3    0    0  0.46573907371E+01 -0.12198661225E+01  0.10854493057E+02  0.11874316049E+02  0.51100000000E-03 0.  1.
        -12    1    3    3    0    0 -0.40269326404E+02 -0.48215419075E+01 -0.12099440502E+02  0.42323307714E+02  0.00000000000E+00 0.  1.
</event>
<event>
 7    1  0.1756449E-015  0.9000773E+02  0.7816164E-02  0.1186339E+00
        -11   -1    0    0    0    0  0.00000000000E+00  0.00000000000E+00  0.45593999997E+02  0.45594000000E+02  0.51100000000E-03 0. -1.
         11   -1    0    0    0    0 -0.00000000000E+00 -0.00000000000E+00 -0.45593999997E+02  0.45594000000E+02  0.51100000000E-03 0.  1.
    9900012    2    1    2    0    0 -0.57720765023E+00  0.96523779690E+00  0.35802279901E+00  0.90007731810E+02  0.89999993070E+02 0.  0.
        -12    1    1    2    0    0  0.57720765023E+00 -0.96523779690E+00 -0.35802279901E+00  0.11802681901E+01  0.00000000000E+00 0.  1.
         11    1    3    3    0    0 -0.95837584141E+01 -0.39710654015E+00 -0.75265814006E+00  0.96214662854E+01  0.51100000000E-03 0. -1.
        -11    1    3    3    0    0 -0.17771935053E+02 -0.32581734683E+02  0.16050106211E+01  0.37148178553E+02  0.51100000000E-03 0.  1.
         12    1    3    3    0    0  0.26778485817E+02  0.33944079020E+02 -0.49432968207E+00  0.43238086972E+02  0.00000000000E+00 0. -1.
</event>
<event>
 7    1  0.1756449E-015  0.9000773E+02  0.7816164E-02  0.1186339E+00
        -11   -1    0    0    0    0  0.00000000000E+00  0.00000000000E+00  0.45593999997E+02  0.45594000000E+02  0.51100000000E-03 0.  1.
         11   -1    0    0    0    0 -0.00000000000E+00 -0.00000000000E+00 -0.45593999997E+02  0.45594000000E+02  0.51100000000E-03 0. -1.
    9900012    2    1    2    0    0 -0.15842847531E+00 -0.46901294404E+00 -0.10714358738E+01  0.90007725644E+02  0.89999986823E+02 0.  0.
        -12    1    1    2    0    0  0.15842847531E+00  0.46901294404E+00  0.10714358738E+01  0.11802743559E+01  0.00000000000E+00 0.  1.
         11    1    3    3    0    0 -0.74191521215E+01 -0.22673365572E+02 -0.29119631787E+02  0.37644100205E+02  0.51100000000E-03 0. -1.
        -11    1    3    3    0    0 -0.29825234298E+00  0.44028329282E+00 -0.88484867781E+01  0.88644527389E+01  0.51100000000E-03 0.  1.
        -12    1    3    3    0    0  0.75589759892E+01  0.21764069335E+02  0.36896682691E+02  0.43499172701E+02  0.00000000000E+00 0.  1.
</event>
<event>
 7    1  0.1756449E-015  0.9000774E+02  0.7816164E-02  0.1186339E+00
        -11   -1    0    0    0    0  0.00000000000E+00  0.00000000000E+00  0.45593999997E+02  0.45594000000E+02  0.51100000000E-03 0.  1.
         11   -1    0    0    0    0 -0.00000000000E+00 -0.00000000000E+00 -0.45593999997E+02  0.45594000000E+02  0.51100000000E-03 0. -1.
    9900012    2    1    2    0    0 -0.58500781155E+00  0.68041279045E+00 -0.76669327185E+00  0.90007739741E+02  0.90000001106E+02 0.  0.
        -12    1    1    2    0    0  0.58500781155E+00 -0.68041279045E+00  0.76669327185E+00  0.11802602586E+01  0.00000000000E+00 0.  1.
         11    1    3    3    0    0 -0.86932759890E+01 -0.29360892631E+00 -0.92478037646E+01  0.12695712991E+02  0.51100000000E-03 0. -1.
        -11    1    3    3    0    0  0.17949188619E+02 -0.14061888841E+02  0.37083707716E+02  0.43532878013E+02  0.51100000000E-03 0.  1.
         12    1    3    3    0    0 -0.98409204417E+01  0.15035910558E+02 -0.28602597224E+02  0.33779148737E+02  0.00000000000E+00 0. -1.
</event>
<event>
 7    1  0.1756449E-015  0.9000766E+02  0.7816164E-02  0.1186339E+00
        -11   -1    0    0    0    0  0.00000000000E+00  0.00000000000E+00  0.45593999997E+02  0.45594000000E+02  0.51100000000E-03 0. -1.
         11   -1    0    0    0    0 -0.00000000000E+00 -0.00000000000E+00 -0.45593999997E+02  0.45594000000E+02  0.51100000000E-03 0.  1.
    9900012    2    1    2    0    0 -0.10495872819E+01 -0.40894375985E+00  0.35262288933E+00  0.90007656252E+02  0.89999916515E+02 0.  0.
        -12    1    1    2    0    0  0.10495872819E+01  0.40894375985E+00 -0.35262288933E+00  0.11803437479E+01  0.00000000000E+00 0.  1.
         11    1    3    3    0    0 -0.32840453300E+02 -0.14693021996E+02  0.17678023316E+02  0.40086067118E+02  0.51100000000E-03 0. -1.
        -11    1    3    3    0    0 -0.61992856773E+01 -0.90307114164E-01 -0.22500314984E+01  0.65956000704E+01  0.51100000000E-03 0.  1.
        -12    1    3    3    0    0  0.37990151696E+02  0.14374385350E+02 -0.15075368928E+02  0.43325989064E+02  0.00000000000E+00 0.  1.
</event>
<event>
 7    1  0.1756449E-015  0.9000772E+02  0.7816164E-02  0.1186339E+00
        -11   -1    0    0    0    0  0.00000000000E+00  0.00000000000E+00  0.45593999997E+02  0.45594000000E+02  0.51100000000E-03 0.  1.
         11   -1    0    0    0    0 -0.00000000000E+00 -0.00000000000E+00 -0.45593999997E+02  0.45594000000E+02  0.51100000000E-03 0. -1.
    9900012    2    1    2    0    0 -0.61033596291E+00  0.16195335185E+00 -0.99715232350E+00  0.90007723917E+02  0.89999985073E+02 0.  0.
        -12    1    1    2    0    0  0.61033596291E+00 -0.16195335185E+00  0.99715232350E+00  0.11802760830E+01  0.00000000000E+00 0.  1.
         11    1    3    3    0    0  0.11713088256E+01  0.92608711165E+01  0.28550899115E+01  0.97615181639E+01  0.51100000000E-03 0. -1.
        -11    1    3    3    0    0 -0.29709965294E+01  0.33047222816E+02  0.11880957433E+02  0.35243480333E+02  0.51100000000E-03 0.  1.
         12    1    3    3    0    0  0.11893517408E+01 -0.42146140581E+02 -0.15733199668E+02  0.45002725420E+02  0.00000000000E+00 0. -1.
</event>
<event>
 7    1  0.1756449E-015  0.9000765E+02  0.7816164E-02  0.1186339E+00
        -11   -1    0    0    0    0  0.00000000000E+00  0.00000000000E+00  0.45593999997E+02  0.45594000000E+02  0.51100000000E-03 0. -1.
         11   -1    0    0    0    0 -0.00000000000E+00 -0.00000000000E+00 -0.45593999997E+02  0.45594000000E+02  0.51100000000E-03 0.  1.
    9900012    2    1    2    0    0 -0.26599464626E-01 -0.47961348697E+00  0.10781878720E+01  0.90007650172E+02  0.89999910355E+02 0.  0.
        -12    1    1    2    0    0  0.26599464626E-01  0.47961348697E+00 -0.10781878720E+01  0.11803498277E+01  0.00000000000E+00 0.  1.
         11    1    3    3    0    0 -0.32514938212E+02  0.43225246813E+01 -0.14993477832E+02  0.36065354627E+02  0.51100000000E-03 0. -1.
        -11    1    3    3    0    0  0.10902553087E+02  0.16453966098E+02  0.19455100884E+00  0.19739212611E+02  0.51100000000E-03 0.  1.
        -12    1    3    3    0    0  0.21585785661E+02 -0.21256104266E+02  0.15877114695E+02  0.34203082934E+02  0.00000000000E+00 0.  1.
</event>
<event>
 7    1  0.1756449E-015  0.9000774E+02  0.7816164E-02  0.1186339E+00
        -11   -1    0    0    0    0  0.00000000000E+00  0.00000000000E+00  0.45593999997E+02  0.45594000000E+02  0.51100000000E-03 0.  1.
         11   -1    0    0    0    0 -0.00000000000E+00 -0.00000000000E+00 -0.45593999997E+02  0.45594000000E+02  0.51100000000E-03 0. -1.
    9900012    2    1    2    0    0 -0.77999244082E+00 -0.86226737200E+00 -0.20278264844E+00  0.90007739846E+02  0.90000001212E+02 0.  0.
        -12    1    1    2    0    0  0.77999244082E+00  0.86226737200E+00  0.20278264844E+00  0.11802601540E+01  0.00000000000E+00 0.  1.
         11    1    3    3    0    0 -0.17220195907E+02 -0.83920381746E+01 -0.32731248121E+02  0.37924873838E+02  0.51100000000E-03 0. -1.
        -11    1    3    3    0    0  0.54121571240E+01  0.21802428910E+01 -0.79091152134E+01  0.98284794103E+01  0.51100000000E-03 0.  1.
        -12    1    3    3    0    0  0.11028046342E+02  0.53495279116E+01  0.40437580686E+02  0.42254386598E+02  0.00000000000E+00 0.  1.
</event>
<event>
 7    1  0.1756449E-015  0.9000768E+02  0.7816164E-02  0.1186339E+00
        -11   -1    0    0    0    0  0.00000000000E+00  0.00000000000E+00  0.45593999997E+02  0.45594000000E+02  0.51100000000E-03 0. -1.
         11   -1    0    0    0    0 -0.00000000000E+00 -0.00000000000E+00 -0.45593999997E+02  0.45594000000E+02  0.51100000000E-03 0.  1.
    9900012    2    1    2    0    0  0.13229110119E+00  0.92241859345E+00  0.72443089426E+00  0.90007679231E+02  0.89999939797E+02 0.  0.
        -12    1    1    2    0    0 -0.13229110119E+00 -0.92241859345E+00 -0.72443089426E+00  0.11803207689E+01  0.00000000000E+00 0.  1.
         11    1    3    3    0    0 -0.57414099590E+01 -0.30599279680E+02  0.12995382081E+02  0.33736621955E+02  0.51100000000E-03 0. -1.
        -11    1    3    3    0    0  0.41663823746E+01 -0.10686637993E+02  0.20798086823E+01  0.11657125637E+02  0.51100000000E-03 0.  1.
        -12    1    3    3    0    0  0.17073186856E+01  0.42208336267E+02 -0.14350759869E+02  0.44613931639E+02  0.00000000000E+00 0.  1.
</event>
<event>
 7    1  0.1756449E-015  0.9000778E+02  0.7816164E-02  0.1186339E+00
        -11   -1    0    0    0    0  0.00000000000E+00  0.00000000000E+00  0.45593999997E+02  0.45594000000E+02  0.51100000000E-03 0.  1.
         11   -1    0    0    0    0 -0.00000000000E+00 -0.00000000000E+00 -0.45593999997E+02  0.45594000000E+02  0.51100000000E-03 0. -1.
    9900012    2    1    2    0    0  0.10882720584E+01 -0.42228488317E+00  0.17391670250E+00  0.90007784929E+02  0.90000046890E+02 0.  0.
        -12    1    1    2    0    0 -0.10882720584E+01  0.42228488317E+00 -0.17391670250E+00  0.11802150715E+01  0.00000000000E+00 0.  1.
         11    1    3    3    0    0  0.39463413480E+00  0.74525980927E+01  0.60045665155E+01  0.95787146179E+01  0.51100000000E-03 0. -1.
        -11    1    3    3    0    0 -0.33808460887E+02  0.58447450635E+01 -0.21103674405E+02  0.40280741627E+02  0.51100000000E-03 0.  1.
         12    1    3    3    0    0  0.34502098810E+02 -0.13719628039E+02  0.15273024592E+02  0.40148328683E+02  0.00000000000E+00 0. -1.
</event>
<event>
 7    1  0.1756449E-015  0.9000765E+02  0.7816164E-02  0.1186339E+00
        -11   -1    0    0    0    0  0.00000000000E+00  0.00000000000E+00  0.45593999997E+02  0.45594000000E+02  0.51100000000E-03 0.  1.
         11   -1    0    0    0    0 -0.00000000000E+00 -0.00000000000E+00 -0.45593999997E+02  0.45594000000E+02  0.51100000000E-03 0. -1.
    9900012    2    1    2    0    0 -0.99088004926E+00  0.62778213504E+00  0.13141463601E+00  0.90007651116E+02  0.89999911311E+02 0.  0.
        -12    1    1    2    0    0  0.99088004926E+00 -0.62778213504E+00 -0.13141463601E+00  0.11803488839E+01  0.00000000000E+00 0.  1.
         11    1    3    3    0    0 -0.24121229934E+02 -0.10405335313E+02 -0.27455169003E+02  0.37998566312E+02  0.51100000000E-03 0. -1.
        -11    1    3    3    0    0  0.10895441832E+01  0.26514829436E+01 -0.84612323830E+01  0.89336399092E+01  0.51100000000E-03 0.  1.
        -12    1    3    3    0    0  0.22040805702E+02  0.83816345045E+01  0.36047816022E+02  0.43075444895E+02  0.00000000000E+00 0.  1.
</event>
<event>
 7    1  0.1756449E-015  0.9000784E+02  0.7816164E-02  0.1186339E+00
        -11   -1    0    0    0    0  0.00000000000E+00  0.00000000000E+00  0.45593999997E+02  0.45594000000E+02  0.51100000000E-03 0.  1.
         11   -1    0    0    0    0 -0.00000000000E+00 -0.00000000000E+00 -0.45593999997E+02  0.45594000000E+02  0.51100000000E-03 0. -1.
    9900012    2    1    2    0    0  0.11047708504E+01 -0.41468481050E+00  0.17081312962E-01  0.90007841580E+02  0.90000104289E+02 0.  0.
        -12    1    1    2    0    0 -0.11047708504E+01  0.41468481050E+00 -0.17081312962E-01  0.11801584195E+01  0.00000000000E+00 0.  1.
         11    1    3    3    0    0 -0.27483609937E+02 -0.14246446239E+02 -0.19829968191E+02  0.36763265420E+02  0.51100000000E-03 0. -1.
        -11    1    3    3    0    0 -0.88019035370E+01  0.20040782880E+01 -0.54418403344E+00  0.90435597075E+01  0.51100000000E-03 0.  1.
        -12    1    3    3    0    0  0.37390284324E+02  0.11827683141E+02  0.20391233538E+02  0.44201016453E+02  0.00000000000E+00 0.  1.
</event>
<event>
 7    1  0.1756449E-015  0.9000768E+02  0.7816164E-02  0.1186339E+00
        -11   -1    0    0    0    0  0.00000000000E+00  0.00000000000E+00  0.45593999997E+02  0.45594000000E+02  0.51100000000E-03 0.  1.
         11   -1    0    0    0    0 -0.00000000000E+00 -0.00000000000E+00 -0.45593999997E+02  0.45594000000E+02  0.51100000000E-03 0. -1.
    9900012    2    1    2    0    0 -0.84676110599E+00  0.12139371969E-01 -0.82220136147E+00  0.90007675124E+02  0.89999935635E+02 0.  0.
        -12    1    1    2    0    0  0.84676110599E+00 -0.12139371969E-01  0.82220136147E+00  0.11803248764E+01  0.00000000000E+00 0.  1.
         11    1    3    3    0    0  0.34157548348E+02 -0.16615788873E+02  0.79043399701E+01  0.38798210521E+02  0.51100000000E-03 0. -1.
        -11    1    3    3    0    0 -0.37047606967E+01 -0.89891844905E+01  0.45818159746E+00  0.97334793502E+01  0.51100000000E-03 0.  1.
        -12    1    3    3    0    0 -0.31299548758E+02  0.25617112735E+02 -0.91847229291E+01  0.41475985252E+02  0.00000000000E+00 0.  1.
</event>
<event>
 7    1  0.1756449E-015  0.9000790E+02  0.7816164E-02  0.1186339E+00
        -11   -1    0    0    0    0  0.00000000000E+00  0.00000000000E+00  0.45593999997E+02  0.45594000000E+02  0.51100000000E-03 0.  1.
         11   -1    0    0    0    0 -0.00000000000E+00 -0.00000000000E+00 -0.45593999997E+02  0.45594000000E+02  0.51100000000E-03 0. -1.
    9900012    2    1    2    0    0  0.60699571480E+00 -0.99326347695E+00  0.19394847098E+00  0.90007901639E+02  0.90000165140E+02 0.  0.
        -12    1    1    2    0    0 -0.60699571480E+00  0.99326347695E+00 -0.19394847098E+00  0.11800983611E+01  0.00000000000E+00 0.  1.
         11    1    3    3    0    0  0.41883299517E+01 -0.31745726919E+00  0.94056997595E+01  0.10300974475E+02  0.51100000000E-03 0. -1.
        -11    1    3    3    0    0  0.32413868775E+02 -0.17411862461E+02  0.58367269113E+01  0.37254519519E+02  0.51100000000E-03 0.  1.
         12    1    3    3    0    0 -0.35995203012E+02  0.16736056253E+02 -0.15048478200E+02  0.42452407645E+02  0.00000000000E+00 0. -1.
</event>
<event>
 7    1  0.2206440E-015  0.9000764E+02  0.7816164E-02  0.1186339E+00
        -11   -1    0    0    0    0  0.00000000000E+00  0.00000000000E+00  0.45593999997E+02  0.45594000000E+02  0.51100000000E-03 0. -1.
         11   -1    0    0    0    0 -0.00000000000E+00 -0.00000000000E+00 -0.45593999997E+02  0.45594000000E+02  0.51100000000E-03 0.  1.
    9900012    2    1    2    0    0  0.18268867169E-02  0.22968134160E+00  0.11578009679E+01  0.90007635676E+02  0.89999895667E+02 0.  0.
        -12    1    1    2    0    0 -0.18268867169E-02 -0.22968134160E+00 -0.11578009679E+01  0.11803643240E+01  0.00000000000E+00 0.  1.
         11    1    3    3    0    0 -0.23763365168E-01  0.10040841144E+02 -0.22928535638E+01  0.10299331692E+02  0.51100000000E-03 0. -1.
        -11    1    3    3    0    0  0.79500826460E+01  0.43849898931E+01 -0.35953333149E+02  0.37081991792E+02  0.51100000000E-03 0.  1.
         12    1    3    3    0    0 -0.79244923941E+01 -0.14196149696E+02  0.39403987681E+02  0.42626312192E+02  0.00000000000E+00 0. -1.
</event>
<event>
 7    1  0.1756449E-015  0.9000774E+02  0.7816164E-02  0.1186339E+00
        -11   -1    0    0    0    0  0.00000000000E+00  0.00000000000E+00  0.45593999997E+02  0.45594000000E+02  0.51100000000E-03 0. -1.
         11   -1    0    0    0    0 -0.00000000000E+00 -0.00000000000E+00 -0.45593999997E+02  0.45594000000E+02  0.51100000000E-03 0.  1.
    9900012    2    1    2    0    0 -0.96075887856E+00 -0.66455062257E+00 -0.16829462786E+00  0.90007742302E+02  0.90000003700E+02 0.  0.
        -12    1    1    2    0    0  0.96075887856E+00  0.66455062257E+00  0.16829462786E+00  0.11802576983E+01  0.00000000000E+00 0.  1.
         11    1    3    3    0    0  0.80016745863E+01  0.13067928452E+01 -0.73347648808E+01  0.10933127633E+02  0.51100000000E-03 0. -1.
        -11    1    3    3    0    0  0.66723175114E+01  0.35066890527E+02 -0.71379319969E+01  0.36402701901E+02  0.51100000000E-03 0.  1.
         12    1    3    3    0    0 -0.15634750976E+02 -0.37038233995E+02  0.14304402250E+02  0.42671912768E+02  0.00000000000E+00 0. -1.
</event>
<event>
 7    1  0.1756449E-015  0.9000776E+02  0.7816164E-02  0.1186339E+00
        -11   -1    0    0    0    0  0.00000000000E+00  0.00000000000E+00  0.45593999997E+02  0.45594000000E+02  0.51100000000E-03 0. -1.
         11   -1    0    0    0    0 -0.00000000000E+00 -0.00000000000E+00 -0.45593999997E+02  0.45594000000E+02  0.51100000000E-03 0.  1.
    9900012    2    1    2    0    0 -0.74394989198E+00  0.29103422998E+00  0.86879616203E+00  0.90007758865E+02  0.90000020482E+02 0.  0.
        -12    1    1    2    0    0  0.74394989198E+00 -0.29103422998E+00 -0.86879616203E+00  0.11802411347E+01  0.00000000000E+00 0.  1.
         11    1    3    3    0    0  0.55172214747E+00  0.24312446574E+01 -0.91273065930E+01  0.94616633747E+01  0.51100000000E-03 0. -1.
        -11    1    3    3    0    0  0.15445045735E+02  0.31455261885E+02 -0.12000268125E+02  0.37040374908E+02  0.51100000000E-03 0.  1.
         12    1    3    3    0    0 -0.16740717775E+02 -0.33595472312E+02  0.21996370880E+02  0.43505720582E+02  0.00000000000E+00 0. -1.
</event>
<event>
 7    1  0.1756449E-015  0.9000864E+02  0.7816164E-02  0.1186337E+00
        -11   -1    0    0    0    0  0.00000000000E+00  0.00000000000E+00  0.45593999997E+02  0.45594000000E+02  0.51100000000E-03 0.  1.
         11   -1    0    0    0    0 -0.00000000000E+00 -0.00000000000E+00 -0.45593999997E+02  0.45594000000E+02  0.51100000000E-03 0. -1.
    9900012    2    1    2    0    0 -0.10357631412E+01 -0.40330329621E+00 -0.39425346653E+00  0.90008638041E+02  0.90000911259E+02 0.  0.
        -12    1    1    2    0    0  0.10357631412E+01  0.40330329621E+00  0.39425346653E+00  0.11793619586E+01  0.00000000000E+00 0.  1.
         11    1    3    3    0    0 -0.87812432979E+01 -0.31075546258E+01 -0.32275840128E+01  0.98582162905E+01  0.51100000000E-03 0. -1.
        -11    1    3    3    0    0 -0.35808407544E+02  0.49720442511E+00  0.64610136330E+01  0.36390025564E+02  0.51100000000E-03 0.  1.
         12    1    3    3    0    0  0.43553887701E+02  0.22070469045E+01 -0.36276830867E+01  0.43760396187E+02  0.00000000000E+00 0. -1.
</event>
<event>
 7    1  0.1756449E-015  0.9000780E+02  0.7816164E-02  0.1186339E+00
        -11   -1    0    0    0    0  0.00000000000E+00  0.00000000000E+00  0.45593999997E+02  0.45594000000E+02  0.51100000000E-03 0. -1.
         11   -1    0    0    0    0 -0.00000000000E+00 -0.00000000000E+00 -0.45593999997E+02  0.45594000000E+02  0.51100000000E-03 0.  1.
    9900012    2    1    2    0    0  0.87130919949E+00  0.11359124247E+00  0.78789739635E+00  0.90007802983E+02  0.90000065182E+02 0.  0.
        -12    1    1    2    0    0 -0.87130919949E+00 -0.11359124247E+00 -0.78789739635E+00  0.11801970169E+01  0.00000000000E+00 0.  1.
         11    1    3    3    0    0  0.16312792824E+01 -0.10908628739E+02  0.70795134578E+01  0.13106439796E+02  0.51100000000E-03 0. -1.
        -11    1    3    3    0    0 -0.85878556611E+01 -0.11750231466E+02 -0.35899453190E+02  0.38737448857E+02  0.51100000000E-03 0.  1.
         12    1    3    3    0    0  0.78278855782E+01  0.22772451448E+02  0.29607837128E+02  0.38163914330E+02  0.00000000000E+00 0. -1.
</event>
<event>
 7    1  0.1756449E-015  0.9000776E+02  0.7816164E-02  0.1186339E+00
        -11   -1    0    0    0    0  0.00000000000E+00  0.00000000000E+00  0.45593999997E+02  0.45594000000E+02  0.51100000000E-03 0.  1.
         11   -1    0    0    0    0 -0.00000000000E+00 -0.00000000000E+00 -0.45593999997E+02  0.45594000000E+02  0.51100000000E-03 0. -1.
    9900012    2    1    2    0    0  0.82305199155E+00 -0.40934350190E+00  0.74026493198E+00  0.90007758985E+02  0.90000020604E+02 0.  0.
        -12    1    1    2    0    0 -0.82305199155E+00  0.40934350190E+00 -0.74026493198E+00  0.11802410147E+01  0.00000000000E+00 0.  1.
         11    1    3    3    0    0  0.37219758212E+01 -0.32664308079E+02 -0.15875864137E+02  0.36508261923E+02  0.51100000000E-03 0. -1.
        -11    1    3    3    0    0  0.16634896612E+01 -0.40328553798E+01 -0.82091994802E+01  0.92963474943E+01  0.51100000000E-03 0.  1.
        -12    1    3    3    0    0 -0.45624134909E+01  0.36287819957E+02  0.24825328550E+02  0.44203149568E+02  0.00000000000E+00 0.  1.
</event>
<event>
 7    1  0.1756449E-015  0.9000780E+02  0.7816164E-02  0.1186339E+00
        -11   -1    0    0    0    0  0.00000000000E+00  0.00000000000E+00  0.45593999997E+02  0.45594000000E+02  0.51100000000E-03 0.  1.
         11   -1    0    0    0    0 -0.00000000000E+00 -0.00000000000E+00 -0.45593999997E+02  0.45594000000E+02  0.51100000000E-03 0. -1.
    9900012    2    1    2    0    0 -0.26518487845E+00  0.30633375721E+00 -0.11084741538E+01  0.90007797331E+02  0.90000059456E+02 0.  0.
        -12    1    1    2    0    0  0.26518487845E+00 -0.30633375721E+00  0.11084741538E+01  0.11802026691E+01  0.00000000000E+00 0.  1.
         11    1    3    3    0    0  0.96663663045E+01 -0.16015781846E+02 -0.32817733106E+02  0.37774958798E+02  0.51100000000E-03 0. -1.
        -11    1    3    3    0    0 -0.30910271986E+01  0.15462745281E+01 -0.83250838794E+01  0.90140133081E+01  0.51100000000E-03 0.  1.
        -12    1    3    3    0    0 -0.68405239844E+01  0.14775841075E+02  0.40034342832E+02  0.43218825225E+02  0.00000000000E+00 0.  1.
</event>
<event>
 7    1  0.1756449E-015  0.9000769E+02  0.7816164E-02  0.1186339E+00
        -11   -1    0    0    0    0  0.00000000000E+00  0.00000000000E+00  0.45593999997E+02  0.45594000000E+02  0.51100000000E-03 0.  1.
         11   -1    0    0    0    0 -0.00000000000E+00 -0.00000000000E+00 -0.45593999997E+02  0.45594000000E+02  0.51100000000E-03 0. -1.
    9900012    2    1    2    0    0  0.63387717931E+00  0.90825727670E+00  0.40792902765E+00  0.90007687478E+02  0.89999948152E+02 0.  0.
        -12    1    1    2    0    0 -0.63387717931E+00 -0.90825727670E+00 -0.40792902765E+00  0.11803125225E+01  0.00000000000E+00 0.  1.
         11    1    3    3    0    0 -0.13767922745E+02 -0.26772909605E+02 -0.23466490346E+02  0.38170938617E+02  0.51100000000E-03 0. -1.
        -11    1    3    3    0    0 -0.63001414829E+01  0.70752721795E+01 -0.50448872190E+01  0.10733226283E+02  0.51100000000E-03 0.  1.
        -12    1    3    3    0    0  0.20701941407E+02  0.20605894702E+02  0.28919306593E+02  0.41103522578E+02  0.00000000000E+00 0.  1.
</event>
<event>
 7    1  0.1756449E-015  0.9000770E+02  0.7816164E-02  0.1186339E+00
        -11   -1    0    0    0    0  0.00000000000E+00  0.00000000000E+00  0.45593999997E+02  0.45594000000E+02  0.51100000000E-03 0.  1.
         11   -1    0    0    0    0 -0.00000000000E+00 -0.00000000000E+00 -0.45593999997E+02  0.45594000000E+02  0.51100000000E-03 0. -1.
    9900012    2    1    2    0    0 -0.91928980259E+00 -0.44705681991E+00 -0.59004696872E+00  0.90007699629E+02  0.89999960464E+02 0.  0.
        -12    1    1    2    0    0  0.91928980259E+00  0.44705681991E+00  0.59004696872E+00  0.11803003714E+01  0.00000000000E+00 0.  1.
         11    1    3    3    0    0  0.17959312206E+01  0.36298410591E+02  0.52109523825E+00  0.36346547579E+02  0.51100000000E-03 0. -1.
        -11    1    3    3    0    0  0.23644263603E+01  0.69710328098E+01  0.54568483326E+01  0.91631328941E+01  0.51100000000E-03 0.  1.
        -12    1    3    3    0    0 -0.50796473836E+01 -0.43716500221E+02 -0.65679905395E+01  0.44498019156E+02  0.00000000000E+00 0.  1.
</event>
<event>
 7    1  0.1756449E-015  0.9000794E+02  0.7816164E-02  0.1186339E+00
        -11   -1    0    0    0    0  0.00000000000E+00  0.00000000000E+00  0.45593999997E+02  0.45594000000E+02  0.51100000000E-03 0.  1.
         11   -1    0    0    0    0 -0.00000000000E+00 -0.00000000000E+00 -0.45593999997E+02  0.45594000000E+02  0.51100000000E-03 0. -1.
    9900012    2    1    2    0    0 -0.96497959412E+00 -0.24020653756E+00 -0.63533809525E+00  0.90007940979E+02  0.90000205000E+02 0.  0.
        -12    1    1    2    0    0  0.96497959412E+00  0.24020653756E+00  0.63533809525E+00  0.11800590210E+01  0.00000000000E+00 0.  1.
         11    1    3    3    0    0  0.70848339343E+01 -0.27134834036E+02 -0.32296866544E+02  0.42773609607E+02  0.51100000000E-03 0. -1.
        -11    1    3    3    0    0  0.60958772220E+01  0.20126444124E+01  0.62507510291E+01  0.89600415917E+01  0.51100000000E-03 0.  1.
        -12    1    3    3    0    0 -0.14145690750E+02  0.24881983086E+02  0.25410777420E+02  0.38274289780E+02  0.00000000000E+00 0.  1.
</event>
<event>
 7    1  0.1756449E-015  0.9000772E+02  0.7816164E-02  0.1186339E+00
        -11   -1    0    0    0    0  0.00000000000E+00  0.00000000000E+00  0.45593999997E+02  0.45594000000E+02  0.51100000000E-03 0.  1.
         11   -1    0    0    0    0 -0.00000000000E+00 -0.00000000000E+00 -0.45593999997E+02  0.45594000000E+02  0.51100000000E-03 0. -1.
    9900012    2    1    2    0    0  0.21941687565E-01  0.46618219503E+00 -0.10840913072E+01  0.90007719847E+02  0.89999980949E+02 0.  0.
        -12    1    1    2    0    0 -0.21941687565E-01 -0.46618219503E+00  0.10840913072E+01  0.11802801528E+01  0.00000000000E+00 0.  1.
         11    1    3    3    0    0 -0.38340973451E+02  0.33501430372E+01  0.86750365916E+01  0.39452629363E+02  0.51100000000E-03 0. -1.
        -11    1    3    3    0    0  0.93568941367E+01  0.82034282367E+01 -0.14538316296E+02  0.19136623101E+02  0.51100000000E-03 0.  1.
        -12    1    3    3    0    0  0.29006021002E+02 -0.11087389079E+02  0.47791883974E+01  0.31418467383E+02  0.00000000000E+00 0.  1.
</event>
<event>
 7    1  0.1756449E-015  0.9000771E+02  0.7816164E-02  0.1186339E+00
        -11   -1    0    0    0    0  0.00000000000E+00  0.00000000000E+00  0.45593999997E+02  0.45594000000E+02  0.51100000000E-03 0.  1.
         11   -1    0    0    0    0 -0.00000000000E+00 -0.00000000000E+00 -0.45593999997E+02  0.45594000000E+02  0.51100000000E-03 0. -1.
    9900012    2    1    2    0    0  0.90432535655E+00 -0.75846012665E+00 -0.49662793445E-02  0.90007707334E+02  0.89999968270E+02 0.  0.
        -12    1    1    2    0    0 -0.90432535655E+00  0.75846012665E+00  0.49662793445E-02  0.11802926663E+01  0.00000000000E+00 0.  1.
         11    1    3    3    0    0  0.11006162564E+02  0.32266662701E+02  0.14155124488E+02  0.36913963290E+02  0.51100000000E-03 0. -1.
        -11    1    3    3    0    0 -0.27616365050E+01  0.76107633124E+01  0.26365774646E+01  0.85148044822E+01  0.51100000000E-03 0.  1.
        -12    1    3    3    0    0 -0.73402007029E+01 -0.40635886140E+02 -0.16796668232E+02  0.44578939561E+02  0.00000000000E+00 0.  1.
</event>
<event>
 7    1  0.1756449E-015  0.9000775E+02  0.7816164E-02  0.1186339E+00
        -11   -1    0    0    0    0  0.00000000000E+00  0.00000000000E+00  0.45593999997E+02  0.45594000000E+02  0.51100000000E-03 0.  1.
         11   -1    0    0    0    0 -0.00000000000E+00 -0.00000000000E+00 -0.45593999997E+02  0.45594000000E+02  0.51100000000E-03 0. -1.
    9900012    2    1    2    0    0 -0.18443865746E+00 -0.11494394769E+01 -0.19429823518E+00  0.90007754037E+02  0.90000015590E+02 0.  0.
        -12    1    1    2    0    0  0.18443865746E+00  0.11494394769E+01  0.19429823518E+00  0.11802459632E+01  0.00000000000E+00 0.  1.
         11    1    3    3    0    0  0.77864034711E+01  0.60077780116E+01  0.37697142658E+01  0.10532436639E+02  0.51100000000E-03 0. -1.
        -11    1    3    3    0    0  0.12429777946E+02  0.14988964805E+02  0.28935209908E+02  0.34877138907E+02  0.51100000000E-03 0.  1.
         12    1    3    3    0    0 -0.20400620074E+02 -0.22146182293E+02 -0.32899222409E+02  0.44598178490E+02  0.00000000000E+00 0. -1.
</event>
<event>
 7    1  0.1756449E-015  0.9000765E+02  0.7816164E-02  0.1186339E+00
        -11   -1    0    0    0    0  0.00000000000E+00  0.00000000000E+00  0.45593999997E+02  0.45594000000E+02  0.51100000000E-03 0. -1.
         11   -1    0    0    0    0 -0.00000000000E+00 -0.00000000000E+00 -0.45593999997E+02  0.45594000000E+02  0.51100000000E-03 0.  1.
    9900012    2    1    2    0    0 -0.80767140477E+00 -0.82962364234E+00 -0.22939051620E+00  0.90007648995E+02  0.89999909162E+02 0.  0.
        -12    1    1    2    0    0  0.80767140477E+00  0.82962364234E+00  0.22939051620E+00  0.11803510050E+01  0.00000000000E+00 0.  1.
         11    1    3    3    0    0 -0.71972869764E+01 -0.76022221514E+01  0.49251623393E+01  0.11569440167E+02  0.51100000000E-03 0. -1.
        -11    1    3    3    0    0 -0.46246773422E+01  0.38678256950E+02 -0.17224147265E+02  0.42591858969E+02  0.51100000000E-03 0.  1.
         12    1    3    3    0    0  0.11014292914E+02 -0.31905658441E+02  0.12069594410E+02  0.35846349858E+02  0.00000000000E+00 0. -1.
</event>
<event>
 7    1  0.1756449E-015  0.9000774E+02  0.7816164E-02  0.1186339E+00
        -11   -1    0    0    0    0  0.00000000000E+00  0.00000000000E+00  0.45593999997E+02  0.45594000000E+02  0.51100000000E-03 0. -1.
         11   -1    0    0    0    0 -0.00000000000E+00 -0.00000000000E+00 -0.45593999997E+02  0.45594000000E+02  0.51100000000E-03 0.  1.
    9900012    2    1    2    0    0  0.61936429839E+00  0.99374028609E+00 -0.14794629382E+00  0.90007737319E+02  0.89999998652E+02 0.  0.
        -12    1    1    2    0    0 -0.61936429839E+00 -0.99374028609E+00  0.14794629382E+00  0.11802626810E+01  0.00000000000E+00 0.  1.
         11    1    3    3    0    0 -0.34370028734E+02 -0.15283528666E+02 -0.50690023303E+01  0.37954972119E+02  0.51100000000E-03 0. -1.
        -11    1    3    3    0    0 -0.42495702265E+01  0.83971422973E+01 -0.52249539806E+01  0.10764338820E+02  0.51100000000E-03 0.  1.
        -12    1    3    3    0    0  0.39238963259E+02  0.78801266545E+01  0.10146010017E+02  0.41288426380E+02  0.00000000000E+00 0.  1.
</event>
<event>
 7    1  0.1756449E-015  0.9000770E+02  0.7816164E-02  0.1186339E+00
        -11   -1    0    0    0    0  0.00000000000E+00  0.00000000000E+00  0.45593999997E+02  0.45594000000E+02  0.51100000000E-03 0.  1.
         11   -1    0    0    0    0 -0.00000000000E+00 -0.00000000000E+00 -0.45593999997E+02  0.45594000000E+02  0.51100000000E-03 0. -1.
    9900012    2    1    2    0    0 -0.10107805168E+01  0.56923667487E+00  0.21773002441E+00  0.90007697493E+02  0.89999958300E+02 0.  0.
        -12    1    1    2    0    0  0.10107805168E+01 -0.56923667487E+00 -0.21773002441E+00  0.11803025073E+01  0.00000000000E+00 0.  1.
         11    1    3    3    0    0 -0.31855072841E+01  0.29697979543E+01  0.80845523168E+01  0.91829811592E+01  0.51100000000E-03 0. -1.
        -11    1    3    3    0    0  0.17106143270E+02  0.15744041701E+02  0.28961442892E+02  0.37138392013E+02  0.51100000000E-03 0.  1.
         12    1    3    3    0    0 -0.14931416503E+02 -0.18144602980E+02 -0.36828265185E+02  0.43686324320E+02  0.00000000000E+00 0. -1.
</event>
<event>
 7    1  0.1756449E-015  0.9000777E+02  0.7816164E-02  0.1186339E+00
        -11   -1    0    0    0    0  0.00000000000E+00  0.00000000000E+00  0.45593999997E+02  0.45594000000E+02  0.51100000000E-03 0.  1.
         11   -1    0    0    0    0 -0.00000000000E+00 -0.00000000000E+00 -0.45593999997E+02  0.45594000000E+02  0.51100000000E-03 0. -1.
    9900012    2    1    2    0    0  0.28858960965E+00 -0.97430920445E+00 -0.60032415503E+00  0.90007766345E+02  0.90000028061E+02 0.  0.
        -12    1    1    2    0    0 -0.28858960965E+00  0.97430920445E+00  0.60032415503E+00  0.11802336547E+01  0.00000000000E+00 0.  1.
         11    1    3    3    0    0 -0.26283671469E+02  0.24910881453E+02 -0.13720568169E+02  0.38725151927E+02  0.51100000000E-03 0. -1.
        -11    1    3    3    0    0 -0.60073814186E+01 -0.16324173474E+01  0.83099776046E+01  0.10383118316E+02  0.51100000000E-03 0.  1.
        -12    1    3    3    0    0  0.32579642498E+02 -0.24252773310E+02  0.48102664094E+01  0.40899496102E+02  0.00000000000E+00 0.  1.
</event>
<event>
 7    1  0.2165512E-015  0.9000788E+02  0.7816164E-02  0.1186339E+00
        -11   -1    0    0    0    0  0.00000000000E+00  0.00000000000E+00  0.45593999997E+02  0.45594000000E+02  0.51100000000E-03 0. -1.
         11   -1    0    0    0    0 -0.00000000000E+00 -0.00000000000E+00 -0.45593999997E+02  0.45594000000E+02  0.51100000000E-03 0.  1.
    9900012    2    1    2    0    0 -0.31543109490E+00 -0.44740999158E+00  0.10454679298E+01  0.90007883197E+02  0.90000146455E+02 0.  0.
        -12    1    1    2    0    0  0.31543109490E+00  0.44740999158E+00 -0.10454679298E+01  0.11801168029E+01  0.00000000000E+00 0.  1.
         11    1    3    3    0    0 -0.53009187964E+01  0.31147871989E+02  0.24253666621E+02  0.39831269303E+02  0.51100000000E-03 0. -1.
        -11    1    3    3    0    0 -0.82800139079E+01  0.18571568146E+01 -0.39316498383E+01  0.93523009181E+01  0.51100000000E-03 0.  1.
        -12    1    3    3    0    0  0.13265501609E+02 -0.33452438795E+02 -0.19276548853E+02  0.40824312976E+02  0.00000000000E+00 0.  1.
</event>
<event>
 7    1  0.1841052E-015  0.9000786E+02  0.7816164E-02  0.1186339E+00
        -11   -1    0    0    0    0  0.00000000000E+00  0.00000000000E+00  0.45593999997E+02  0.45594000000E+02  0.51100000000E-03 0.  1.
         11   -1    0    0    0    0 -0.00000000000E+00 -0.00000000000E+00 -0.45593999997E+02  0.45594000000E+02  0.51100000000E-03 0. -1.
    9900012    2    1    2    0    0 -0.82152484907E-01 -0.10937135804E+01  0.43562012523E+00  0.90007863008E+02  0.90000125999E+02 0.  0.
        -12    1    1    2    0    0  0.82152484907E-01  0.10937135804E+01 -0.43562012523E+00  0.11801369921E+01  0.00000000000E+00 0.  1.
         11    1    3    3    0    0  0.34341579699E+01 -0.85726497690E+01  0.34496966991E+01  0.98582033151E+01  0.51100000000E-03 0. -1.
        -11    1    3    3    0    0  0.12959999987E+02 -0.32786561680E+02 -0.85934095498E+01  0.36287283095E+02  0.51100000000E-03 0.  1.
         12    1    3    3    0    0 -0.16476310442E+02  0.40265497868E+02  0.55793329759E+01  0.43862376598E+02  0.00000000000E+00 0. -1.
</event>
<event>
 7    1  0.1756449E-015  0.9000777E+02  0.7816164E-02  0.1186339E+00
        -11   -1    0    0    0    0  0.00000000000E+00  0.00000000000E+00  0.45593999997E+02  0.45594000000E+02  0.51100000000E-03 0. -1.
         11   -1    0    0    0    0 -0.00000000000E+00 -0.00000000000E+00 -0.45593999997E+02  0.45594000000E+02  0.51100000000E-03 0.  1.
    9900012    2    1    2    0    0  0.10938684063E+01 -0.42819526308E+00  0.11420456935E+00  0.90007770379E+02  0.90000032148E+02 0.  0.
        -12    1    1    2    0    0 -0.10938684063E+01  0.42819526308E+00 -0.11420456935E+00  0.11802296205E+01  0.00000000000E+00 0.  1.
         11    1    3    3    0    0  0.70822435157E+01  0.15041453434E+01  0.26957156332E+01  0.77257691828E+01  0.51100000000E-03 0. -1.
        -11    1    3    3    0    0 -0.19058766582E+01 -0.43483880165E+01 -0.42156852127E+02  0.42423354720E+02  0.51100000000E-03 0.  1.
         12    1    3    3    0    0 -0.40824984512E+01  0.24160474100E+01  0.39575341063E+02  0.39858646477E+02  0.00000000000E+00 0. -1.
</event>
<event>
 7    1  0.1756449E-015  0.9000774E+02  0.7816164E-02  0.1186339E+00
        -11   -1    0    0    0    0  0.00000000000E+00  0.00000000000E+00  0.45593999997E+02  0.45594000000E+02  0.51100000000E-03 0. -1.
         11   -1    0    0    0    0 -0.00000000000E+00 -0.00000000000E+00 -0.45593999997E+02  0.45594000000E+02  0.51100000000E-03 0.  1.
    9900012    2    1    2    0    0 -0.11253668485E+00 -0.60391384580E+00  0.10077910964E+01  0.90007737600E+02  0.89999998936E+02 0.  0.
        -12    1    1    2    0    0  0.11253668485E+00  0.60391384580E+00 -0.10077910964E+01  0.11802623999E+01  0.00000000000E+00 0.  1.
         11    1    3    3    0    0 -0.16099852370E+02 -0.36160493589E+01 -0.62333270899E+01  0.17639031327E+02  0.51100000000E-03 0. -1.
        -11    1    3    3    0    0  0.39456486114E+02 -0.15171749017E+02  0.54886929134E+01  0.42627714164E+02  0.51100000000E-03 0.  1.
         12    1    3    3    0    0 -0.23469170430E+02  0.18183884530E+02  0.17524252728E+01  0.29740992109E+02  0.00000000000E+00 0. -1.
</event>
<event>
 7    1  0.1756449E-015  0.9000764E+02  0.7816164E-02  0.1186339E+00
        -11   -1    0    0    0    0  0.00000000000E+00  0.00000000000E+00  0.45593999997E+02  0.45594000000E+02  0.51100000000E-03 0.  1.
         11   -1    0    0    0    0 -0.00000000000E+00 -0.00000000000E+00 -0.45593999997E+02  0.45594000000E+02  0.51100000000E-03 0. -1.
    9900012    2    1    2    0    0 -0.11312362155E+01  0.33373561955E+00 -0.46655635457E-01  0.90007639213E+02  0.89999899251E+02 0.  0.
        -12    1    1    2    0    0  0.11312362155E+01 -0.33373561955E+00  0.46655635457E-01  0.11803607870E+01  0.00000000000E+00 0.  1.
         11    1    3    3    0    0 -0.33505673573E+02  0.19516783644E+02 -0.23121971783E+00  0.38776132713E+02  0.51100000000E-03 0. -1.
        -11    1    3    3    0    0 -0.60461020669E+01 -0.18418277892E+01  0.59571050717E+01  0.86853198504E+01  0.51100000000E-03 0.  1.
        -12    1    3    3    0    0  0.38420539425E+02 -0.17341220235E+02 -0.57725409893E+01  0.42546186649E+02  0.00000000000E+00 0.  1.
</event>
<event>
 7    1  0.1891978E-015  0.9000773E+02  0.7816164E-02  0.1186339E+00
        -11   -1    0    0    0    0  0.00000000000E+00  0.00000000000E+00  0.45593999997E+02  0.45594000000E+02  0.51100000000E-03 0. -1.
         11   -1    0    0    0    0 -0.00000000000E+00 -0.00000000000E+00 -0.45593999997E+02  0.45594000000E+02  0.51100000000E-03 0.  1.
    9900012    2    1    2    0    0 -0.78332273296E+00 -0.23757505537E+00  0.85030029172E+00  0.90007725881E+02  0.89999987062E+02 0.  0.
        -12    1    1    2    0    0  0.78332273296E+00  0.23757505537E+00 -0.85030029172E+00  0.11802741194E+01  0.00000000000E+00 0.  1.
         11    1    3    3    0    0  0.79498988638E+01 -0.23820025806E+02  0.25969163476E+02  0.36124672638E+02  0.51100000000E-03 0. -1.
        -11    1    3    3    0    0  0.60088928346E+01 -0.23445148738E+01  0.73607842303E+01  0.97869652006E+01  0.51100000000E-03 0.  1.
        -12    1    3    3    0    0 -0.14742114431E+02  0.25926965624E+02 -0.32479647415E+02  0.44096088042E+02  0.00000000000E+00 0.  1.
</event>
<event>
 7    1  0.1756449E-015  0.9000762E+02  0.7816164E-02  0.1186339E+00
        -11   -1    0    0    0    0  0.00000000000E+00  0.00000000000E+00  0.45593999997E+02  0.45594000000E+02  0.51100000000E-03 0. -1.
         11   -1    0    0    0    0 -0.00000000000E+00 -0.00000000000E+00 -0.45593999997E+02  0.45594000000E+02  0.51100000000E-03 0.  1.
    9900012    2    1    2    0    0 -0.42867695212E+00 -0.40695556008E+00  0.10217197756E+01  0.90007623765E+02  0.89999883598E+02 0.  0.
        -12    1    1    2    0    0  0.42867695212E+00  0.40695556008E+00 -0.10217197756E+01  0.11803762354E+01  0.00000000000E+00 0.  1.
         11    1    3    3    0    0  0.47382986181E+01  0.10852245563E+02  0.17499300767E+02  0.21129321692E+02  0.51100000000E-03 0. -1.
        -11    1    3    3    0    0  0.26741630536E+02 -0.19969103563E+02 -0.43877317153E+01  0.33662027430E+02  0.51100000000E-03 0.  1.
         12    1    3    3    0    0 -0.31908606107E+02  0.87099024394E+01 -0.12089849276E+02  0.35216274642E+02  0.00000000000E+00 0. -1.
</event>
<event>
 7    1  0.1756449E-015  0.9000776E+02  0.7816164E-02  0.1186339E+00
        -11   -1    0    0    0    0  0.00000000000E+00  0.00000000000E+00  0.45593999997E+02  0.45594000000E+02  0.51100000000E-03 0.  1.
         11   -1    0    0    0    0 -0.00000000000E+00 -0.00000000000E+00 -0.45593999997E+02  0.45594000000E+02  0.51100000000E-03 0. -1.
    9900012    2    1    2    0    0  0.64463232320E-01 -0.92008609081E+00  0.73637467722E+00  0.90007762063E+02  0.90000023722E+02 0.  0.
        -12    1    1    2    0    0 -0.64463232320E-01  0.92008609081E+00 -0.73637467722E+00  0.11802379371E+01  0.00000000000E+00 0.  1.
         11    1    3    3    0    0  0.33189513512E+00  0.84122936658E+01  0.48765505502E+00  0.84329500659E+01  0.51100000000E-03 0. -1.
        -11    1    3    3    0    0 -0.37489346660E+02 -0.19149523844E+02  0.64355256573E+01  0.42586046626E+02  0.51100000000E-03 0.  1.
         12    1    3    3    0    0  0.37221914758E+02  0.98171440872E+01 -0.61868060351E+01  0.38988765371E+02  0.00000000000E+00 0. -1.
</event>
<event>
 7    1  0.1756449E-015  0.9000772E+02  0.7816164E-02  0.1186339E+00
        -11   -1    0    0    0    0  0.00000000000E+00  0.00000000000E+00  0.45593999997E+02  0.45594000000E+02  0.51100000000E-03 0.  1.
         11   -1    0    0    0    0 -0.00000000000E+00 -0.00000000000E+00 -0.45593999997E+02  0.45594000000E+02  0.51100000000E-03 0. -1.
    9900012    2    1    2    0    0  0.11586968701E+01  0.18868328871E+00  0.12201571621E+00  0.90007717129E+02  0.89999978195E+02 0.  0.
        -12    1    1    2    0    0 -0.11586968701E+01 -0.18868328871E+00 -0.12201571621E+00  0.11802828708E+01  0.00000000000E+00 0.  1.
         11    1    3    3    0    0 -0.34736197205E+02 -0.15642179282E+02 -0.36169079441E+01  0.38266998737E+02  0.51100000000E-03 0. -1.
        -11    1    3    3    0    0 -0.24996680484E+01 -0.29231270710E+01  0.79221257404E+01  0.88064231521E+01  0.51100000000E-03 0.  1.
        -12    1    3    3    0    0  0.38394562124E+02  0.18753989642E+02 -0.41832020801E+01  0.42934295240E+02  0.00000000000E+00 0.  1.
</event>
<event>
 7    1  0.2434942E-015  0.9000775E+02  0.7816164E-02  0.1186339E+00
        -11   -1    0    0    0    0  0.00000000000E+00  0.00000000000E+00  0.45593999997E+02  0.45594000000E+02  0.51100000000E-03 0. -1.
         11   -1    0    0    0    0 -0.00000000000E+00 -0.00000000000E+00 -0.45593999997E+02  0.45594000000E+02  0.51100000000E-03 0.  1.
    9900012    2    1    2    0    0  0.56939322941E+00  0.97928772718E+00  0.33133385402E+00  0.90007747813E+02  0.90000009284E+02 0.  0.
        -12    1    1    2    0    0 -0.56939322941E+00 -0.97928772718E+00 -0.33133385402E+00  0.11802521871E+01  0.00000000000E+00 0.  1.
         11    1    3    3    0    0 -0.92570016489E+01 -0.17541307927E+01 -0.83054536569E+00  0.94582694099E+01  0.51100000000E-03 0. -1.
        -11    1    3    3    0    0 -0.93310813302E+01 -0.17046032376E+02 -0.32004402058E+02  0.37442196115E+02  0.51100000000E-03 0.  1.
         12    1    3    3    0    0  0.19157476208E+02  0.19779450896E+02  0.33166281278E+02  0.43107282288E+02  0.00000000000E+00 0. -1.
</event>
<event>
 7    1  0.1756449E-015  0.9000788E+02  0.7816164E-02  0.1186339E+00
        -11   -1    0    0    0    0  0.00000000000E+00  0.00000000000E+00  0.45593999997E+02  0.45594000000E+02  0.51100000000E-03 0.  1.
         11   -1    0    0    0    0 -0.00000000000E+00 -0.00000000000E+00 -0.45593999997E+02  0.45594000000E+02  0.51100000000E-03 0. -1.
    9900012    2    1    2    0    0  0.10249456372E+01 -0.33524169288E+00  0.47935822418E+00  0.90007879303E+02  0.90000142510E+02 0.  0.
        -12    1    1    2    0    0 -0.10249456372E+01  0.33524169288E+00 -0.47935822418E+00  0.11801206967E+01  0.00000000000E+00 0.  1.
         11    1    3    3    0    0  0.22682005717E+01 -0.12111116830E+01  0.83381337653E+01  0.87255945523E+01  0.51100000000E-03 0. -1.
        -11    1    3    3    0    0  0.18461649249E+02  0.35106640012E+02  0.44445902907E+01  0.39913193922E+02  0.51100000000E-03 0.  1.
         12    1    3    3    0    0 -0.19704904184E+02 -0.34230770022E+02 -0.12303365832E+02  0.41369090829E+02  0.00000000000E+00 0. -1.
</event>
<event>
 7    1  0.1756449E-015  0.9000871E+02  0.7816164E-02  0.1186337E+00
        -11   -1    0    0    0    0  0.00000000000E+00  0.00000000000E+00  0.45593999997E+02  0.45594000000E+02  0.51100000000E-03 0. -1.
         11   -1    0    0    0    0 -0.00000000000E+00 -0.00000000000E+00 -0.45593999997E+02  0.45594000000E+02  0.51100000000E-03 0.  1.
    9900012    2    1    2    0    0  0.74772135726E+00  0.52652018706E+00 -0.74459764947E+00  0.90008705128E+02  0.90000979230E+02 0.  0.
        -12    1    1    2    0    0 -0.74772135726E+00 -0.52652018706E+00  0.74459764947E+00  0.11792948720E+01  0.00000000000E+00 0.  1.
         11    1    3    3    0    0 -0.78536707495E+01  0.31584698589E+01 -0.11462535332E+01  0.85422463974E+01  0.51100000000E-03 0. -1.
        -11    1    3    3    0    0  0.15515250757E+02  0.78773370990E+01 -0.37603081500E+02  0.41433889322E+02  0.51100000000E-03 0.  1.
         12    1    3    3    0    0 -0.69138586503E+01 -0.10509286771E+02  0.38004737383E+02  0.40032569408E+02  0.00000000000E+00 0. -1.
</event>
<event>
 7    1  0.1756449E-015  0.9000767E+02  0.7816164E-02  0.1186339E+00
        -11   -1    0    0    0    0  0.00000000000E+00  0.00000000000E+00  0.45593999997E+02  0.45594000000E+02  0.51100000000E-03 0.  1.
         11   -1    0    0    0    0 -0.00000000000E+00 -0.00000000000E+00 -0.45593999997E+02  0.45594000000E+02  0.51100000000E-03 0. -1.
    9900012    2    1    2    0    0  0.51856571285E+00 -0.32412264798E-01 -0.10598155536E+01  0.90007673790E+02  0.89999934284E+02 0.  0.
        -12    1    1    2    0    0 -0.51856571285E+00  0.32412264798E-01  0.10598155536E+01  0.11803262096E+01  0.00000000000E+00 0.  1.
         11    1    3    3    0    0 -0.30295267229E+02 -0.21164118793E+02 -0.10524129794E+02  0.38424997709E+02  0.51100000000E-03 0. -1.
        -11    1    3    3    0    0 -0.59557731733E+01  0.84816936644E+01 -0.29304211866E+01  0.10770224236E+02  0.51100000000E-03 0.  1.
        -12    1    3    3    0    0  0.36769606115E+02  0.12650012864E+02  0.12394735427E+02  0.40812451845E+02  0.00000000000E+00 0.  1.
</event>
<event>
 7    1  0.1756449E-015  0.9000766E+02  0.7816164E-02  0.1186339E+00
        -11   -1    0    0    0    0  0.00000000000E+00  0.00000000000E+00  0.45593999997E+02  0.45594000000E+02  0.51100000000E-03 0.  1.
         11   -1    0    0    0    0 -0.00000000000E+00 -0.00000000000E+00 -0.45593999997E+02  0.45594000000E+02  0.51100000000E-03 0. -1.
    9900012    2    1    2    0    0 -0.60735767728E+00  0.95397615382E+00  0.33799784408E+00  0.90007662594E+02  0.89999922940E+02 0.  0.
        -12    1    1    2    0    0  0.60735767728E+00 -0.95397615382E+00 -0.33799784408E+00  0.11803374063E+01  0.00000000000E+00 0.  1.
         11    1    3    3    0    0  0.35294618038E+02  0.17639311412E+02 -0.53546546780E+01  0.39818685269E+02  0.51100000000E-03 0. -1.
        -11    1    3    3    0    0 -0.40799814636E+01  0.71816507371E+01  0.63296414372E+01  0.10406090382E+02  0.51100000000E-03 0.  1.
        -12    1    3    3    0    0 -0.31821994252E+02 -0.23866985995E+02 -0.63698891516E+00  0.39782886943E+02  0.00000000000E+00 0.  1.
</event>
<event>
 7    1  0.1756449E-015  0.9000711E+02  0.7816164E-02  0.1186340E+00
        -11   -1    0    0    0    0  0.00000000000E+00  0.00000000000E+00  0.45593999997E+02  0.45594000000E+02  0.51100000000E-03 0.  1.
         11   -1    0    0    0    0 -0.00000000000E+00 -0.00000000000E+00 -0.45593999997E+02  0.45594000000E+02  0.51100000000E-03 0. -1.
    9900012    2    1    2    0    0 -0.24729701286E+00 -0.36569697235E+00 -0.10952687544E+01  0.90007108924E+02  0.89999361960E+02 0.  0.
        -12    1    1    2    0    0  0.24729701286E+00  0.36569697235E+00  0.10952687544E+01  0.11808910756E+01  0.00000000000E+00 0.  1.
         11    1    3    3    0    0 -0.19245479857E+02  0.94629327479E+01 -0.16006802662E+02  0.26761041139E+02  0.51100000000E-03 0. -1.
        -11    1    3    3    0    0 -0.11876744176E+02 -0.13254452198E+02 -0.12555314214E+02  0.21780116404E+02  0.51100000000E-03 0.  1.
        -12    1    3    3    0    0  0.30874927020E+02  0.34258224782E+01  0.27466848122E+02  0.41465951381E+02  0.00000000000E+00 0.  1.
</event>
<event>
 7    1  0.1756449E-015  0.9000789E+02  0.7816164E-02  0.1186339E+00
        -11   -1    0    0    0    0  0.00000000000E+00  0.00000000000E+00  0.45593999997E+02  0.45594000000E+02  0.51100000000E-03 0. -1.
         11   -1    0    0    0    0 -0.00000000000E+00 -0.00000000000E+00 -0.45593999997E+02  0.45594000000E+02  0.51100000000E-03 0.  1.
    9900012    2    1    2    0    0  0.25025742960E+00  0.10524028527E+01 -0.47166668019E+00  0.90007894071E+02  0.90000157473E+02 0.  0.
        -12    1    1    2    0    0 -0.25025742960E+00 -0.10524028527E+01  0.47166668019E+00  0.11801059286E+01  0.00000000000E+00 0.  1.
         11    1    3    3    0    0  0.25666777908E+02 -0.23713127246E+02 -0.57707628958E+01  0.35417475865E+02  0.51100000000E-03 0. -1.
        -11    1    3    3    0    0  0.56377310919E+01 -0.41421119213E+01 -0.75185823519E+01  0.10269867763E+02  0.51100000000E-03 0.  1.
        -12    1    3    3    0    0 -0.31054251570E+02  0.28907642020E+02  0.12817678568E+02  0.44320550443E+02  0.00000000000E+00 0.  1.
</event>
<event>
 7    1  0.1756449E-015  0.9000775E+02  0.7816164E-02  0.1186339E+00
        -11   -1    0    0    0    0  0.00000000000E+00  0.00000000000E+00  0.45593999997E+02  0.45594000000E+02  0.51100000000E-03 0. -1.
         11   -1    0    0    0    0 -0.00000000000E+00 -0.00000000000E+00 -0.45593999997E+02  0.45594000000E+02  0.51100000000E-03 0.  1.
    9900012    2    1    2    0    0 -0.64396894306E+00  0.90916502758E+00  0.38950088626E+00  0.90007750879E+02  0.90000012391E+02 0.  0.
        -12    1    1    2    0    0  0.64396894306E+00 -0.90916502758E+00 -0.38950088626E+00  0.11802491209E+01  0.00000000000E+00 0.  1.
         11    1    3    3    0    0 -0.21281816282E+02 -0.21800069771E+02 -0.18774409334E+02  0.35785991567E+02  0.51100000000E-03 0. -1.
        -11    1    3    3    0    0 -0.97705136006E+01 -0.24202836331E+01 -0.63106599944E+00  0.10085581463E+02  0.51100000000E-03 0.  1.
        -12    1    3    3    0    0  0.30408360940E+02  0.25129518432E+02  0.19794976220E+02  0.44136177850E+02  0.00000000000E+00 0.  1.
</event>
<event>
 7    1  0.1756449E-015  0.9000776E+02  0.7816164E-02  0.1186339E+00
        -11   -1    0    0    0    0  0.00000000000E+00  0.00000000000E+00  0.45593999997E+02  0.45594000000E+02  0.51100000000E-03 0.  1.
         11   -1    0    0    0    0 -0.00000000000E+00 -0.00000000000E+00 -0.45593999997E+02  0.45594000000E+02  0.51100000000E-03 0. -1.
    9900012    2    1    2    0    0  0.30191175508E+00  0.11247191750E+01  0.19191483958E+00  0.90007756281E+02  0.90000017864E+02 0.  0.
        -12    1    1    2    0    0 -0.30191175508E+00 -0.11247191750E+01 -0.19191483958E+00  0.11802437189E+01  0.00000000000E+00 0.  1.
         11    1    3    3    0    0  0.35620221756E+02 -0.65936699832E+01  0.22042504360E+02  0.42404583249E+02  0.51100000000E-03 0. -1.
        -11    1    3    3    0    0 -0.33567043760E+01  0.92974814923E+01 -0.24607689062E+01  0.10186560275E+02  0.51100000000E-03 0.  1.
        -12    1    3    3    0    0 -0.31961605625E+02 -0.15790923342E+01 -0.19389820615E+02  0.37416612757E+02  0.00000000000E+00 0.  1.
</event>
<event>
 7    1  0.1756449E-015  0.9000778E+02  0.7816164E-02  0.1186339E+00
        -11   -1    0    0    0    0  0.00000000000E+00  0.00000000000E+00  0.45593999997E+02  0.45594000000E+02  0.51100000000E-03 0.  1.
         11   -1    0    0    0    0 -0.00000000000E+00 -0.00000000000E+00 -0.45593999997E+02  0.45594000000E+02  0.51100000000E-03 0. -1.
    9900012    2    1    2    0    0 -0.38493043516E+00  0.41126428510E+00 -0.10371157278E+01  0.90007780196E+02  0.90000042095E+02 0.  0.
        -12    1    1    2    0    0  0.38493043516E+00 -0.41126428510E+00  0.10371157278E+01  0.11802198037E+01  0.00000000000E+00 0.  1.
         11    1    3    3    0    0 -0.27882509145E+02  0.14233878081E+02 -0.19124816451E+02  0.36685095148E+02  0.51100000000E-03 0. -1.
        -11    1    3    3    0    0 -0.98270395731E+01  0.78072996866E+00  0.16130264239E+01  0.99890990865E+01  0.51100000000E-03 0.  1.
        -12    1    3    3    0    0  0.37324618283E+02 -0.14603343765E+02  0.16474674300E+02  0.43333585962E+02  0.00000000000E+00 0.  1.
</event>
<event>
 7    1  0.1756449E-015  0.9000777E+02  0.7816164E-02  0.1186339E+00
        -11   -1    0    0    0    0  0.00000000000E+00  0.00000000000E+00  0.45593999997E+02  0.45594000000E+02  0.51100000000E-03 0.  1.
         11   -1    0    0    0    0 -0.00000000000E+00 -0.00000000000E+00 -0.45593999997E+02  0.45594000000E+02  0.51100000000E-03 0. -1.
    9900012    2    1    2    0    0  0.30264938785E-01  0.11048502583E+01 -0.41392108918E+00  0.90007770900E+02  0.90000032676E+02 0.  0.
        -12    1    1    2    0    0 -0.30264938785E-01 -0.11048502583E+01  0.41392108918E+00  0.11802290997E+01  0.00000000000E+00 0.  1.
         11    1    3    3    0    0  0.79678675562E+01 -0.32551902775E+02 -0.23518804247E+02  0.40942000942E+02  0.51100000000E-03 0. -1.
        -11    1    3    3    0    0 -0.71142874628E+01  0.68325332985E+01 -0.42537313707E+01  0.10742012298E+02  0.51100000000E-03 0.  1.
        -12    1    3    3    0    0 -0.82331515457E+00  0.26824219735E+02  0.27358614528E+02  0.38323757660E+02  0.00000000000E+00 0.  1.
</event>
<event>
 7    1  0.1756449E-015  0.9000757E+02  0.7816164E-02  0.1186339E+00
        -11   -1    0    0    0    0  0.00000000000E+00  0.00000000000E+00  0.45593999997E+02  0.45594000000E+02  0.51100000000E-03 0. -1.
         11   -1    0    0    0    0 -0.00000000000E+00 -0.00000000000E+00 -0.45593999997E+02  0.45594000000E+02  0.51100000000E-03 0.  1.
    9900012    2    1    2    0    0  0.11236208807E+01  0.33728446288E+00 -0.13083811462E+00  0.90007574947E+02  0.89999834137E+02 0.  0.
        -12    1    1    2    0    0 -0.11236208807E+01 -0.33728446288E+00  0.13083811462E+00  0.11804250525E+01  0.00000000000E+00 0.  1.
         11    1    3    3    0    0  0.37439933993E+02  0.83986595587E+01  0.94958159769E+00  0.38382129243E+02  0.51100000000E-03 0. -1.
        -11    1    3    3    0    0  0.28177805759E+01 -0.68278594270E+01  0.85561948944E+01  0.11303451821E+02  0.51100000000E-03 0.  1.
        -12    1    3    3    0    0 -0.39134093688E+02 -0.12335156688E+01 -0.96366146067E+01  0.40321993884E+02  0.00000000000E+00 0.  1.
</event>
<event>
 7    1  0.1756449E-015  0.9000795E+02  0.7816164E-02  0.1186339E+00
        -11   -1    0    0    0    0  0.00000000000E+00  0.00000000000E+00  0.45593999997E+02  0.45594000000E+02  0.51100000000E-03 0. -1.
         11   -1    0    0    0    0 -0.00000000000E+00 -0.00000000000E+00 -0.45593999997E+02  0.45594000000E+02  0.51100000000E-03 0.  1.
    9900012    2    1    2    0    0  0.33397891862E+00 -0.82269219004E+00  0.77727896633E+00  0.90007946209E+02  0.90000210299E+02 0.  0.
        -12    1    1    2    0    0 -0.33397891862E+00  0.82269219004E+00 -0.77727896633E+00  0.11800537908E+01  0.00000000000E+00 0.  1.
         11    1    3    3    0    0 -0.24654561688E+02 -0.19521776590E+02  0.26789153390E+02  0.41311087045E+02  0.51100000000E-03 0. -1.
        -11    1    3    3    0    0 -0.22206202983E+01 -0.93336479013E+00 -0.12161968015E+02  0.12398217235E+02  0.51100000000E-03 0.  1.
        -12    1    3    3    0    0  0.27209160905E+02  0.19632449191E+02 -0.13849906408E+02  0.36298641929E+02  0.00000000000E+00 0.  1.
</event>
<event>
 7    1  0.1756449E-015  0.9000773E+02  0.7816164E-02  0.1186339E+00
        -11   -1    0    0    0    0  0.00000000000E+00  0.00000000000E+00  0.45593999997E+02  0.45594000000E+02  0.51100000000E-03 0.  1.
         11   -1    0    0    0    0 -0.00000000000E+00 -0.00000000000E+00 -0.45593999997E+02  0.45594000000E+02  0.51100000000E-03 0. -1.
    9900012    2    1    2    0    0  0.45484980062E+00  0.86070877264E+00 -0.66732304019E+00  0.90007733940E+02  0.89999995228E+02 0.  0.
        -12    1    1    2    0    0 -0.45484980062E+00 -0.86070877264E+00  0.66732304019E+00  0.11802660600E+01  0.00000000000E+00 0.  1.
         11    1    3    3    0    0 -0.35698281012E+02  0.10819421006E+02 -0.18133377863E+02  0.41475854797E+02  0.51100000000E-03 0. -1.
        -11    1    3    3    0    0  0.78071044197E+01 -0.46615742245E+01 -0.63839983410E+01  0.11110202012E+02  0.51100000000E-03 0.  1.
        -12    1    3    3    0    0  0.28346026393E+02 -0.52971380090E+01  0.23850053164E+02  0.37421677131E+02  0.00000000000E+00 0.  1.
</event>
<event>
 7    1  0.1756449E-015  0.9000775E+02  0.7816164E-02  0.1186339E+00
        -11   -1    0    0    0    0  0.00000000000E+00  0.00000000000E+00  0.45593999997E+02  0.45594000000E+02  0.51100000000E-03 0.  1.
         11   -1    0    0    0    0 -0.00000000000E+00 -0.00000000000E+00 -0.45593999997E+02  0.45594000000E+02  0.51100000000E-03 0. -1.
    9900012    2    1    2    0    0 -0.74324722638E+00  0.66781027831E+00 -0.62818031958E+00  0.90007746840E+02  0.90000008298E+02 0.  0.
        -12    1    1    2    0    0  0.74324722638E+00 -0.66781027831E+00  0.62818031958E+00  0.11802531598E+01  0.00000000000E+00 0.  1.
         11    1    3    3    0    0 -0.17400159037E+02  0.10994419378E+02 -0.28724660440E+02  0.35337641541E+02  0.51100000000E-03 0. -1.
        -11    1    3    3    0    0 -0.14845518932E+01  0.90433192855E+01 -0.63769010381E+01  0.11164693687E+02  0.51100000000E-03 0.  1.
        -12    1    3    3    0    0  0.18141463704E+02 -0.19369928386E+02  0.34473381159E+02  0.43505411612E+02  0.00000000000E+00 0.  1.
</event>
<event>
 7    1  0.1768564E-015  0.9000766E+02  0.7816164E-02  0.1186339E+00
        -11   -1    0    0    0    0  0.00000000000E+00  0.00000000000E+00  0.45593999997E+02  0.45594000000E+02  0.51100000000E-03 0. -1.
         11   -1    0    0    0    0 -0.00000000000E+00 -0.00000000000E+00 -0.45593999997E+02  0.45594000000E+02  0.51100000000E-03 0.  1.
    9900012    2    1    2    0    0 -0.50221293429E+00  0.18468404594E+00  0.10520814584E+01  0.90007660463E+02  0.89999920781E+02 0.  0.
        -12    1    1    2    0    0  0.50221293429E+00 -0.18468404594E+00 -0.10520814584E+01  0.11803395373E+01  0.00000000000E+00 0.  1.
         11    1    3    3    0    0 -0.57704316582E+01  0.72912396346E+01 -0.41627118072E+01  0.10187650700E+02  0.51100000000E-03 0. -1.
        -11    1    3    3    0    0 -0.17950046966E+02  0.59345515454E+01 -0.30127472375E+02  0.35568071076E+02  0.51100000000E-03 0.  1.
         12    1    3    3    0    0  0.23218265690E+02 -0.13041107134E+02  0.35342265640E+02  0.44251938687E+02  0.00000000000E+00 0. -1.
</event>
<event>
 7    1  0.1756449E-015  0.9000764E+02  0.7816164E-02  0.1186339E+00
        -11   -1    0    0    0    0  0.00000000000E+00  0.00000000000E+00  0.45593999997E+02  0.45594000000E+02  0.51100000000E-03 0. -1.
         11   -1    0    0    0    0 -0.00000000000E+00 -0.00000000000E+00 -0.45593999997E+02  0.45594000000E+02  0.51100000000E-03 0.  1.
    9900012    2    1    2    0    0  0.50955828851E-01 -0.62041171168E+00  0.10028621992E+01  0.90007644215E+02  0.89999904319E+02 0.  0.
        -12    1    1    2    0    0 -0.50955828851E-01  0.62041171168E+00 -0.10028621992E+01  0.11803557850E+01  0.00000000000E+00 0.  1.
         11    1    3    3    0    0 -0.86940697212E+00 -0.83355440400E+01  0.39002426890E+02  0.39892686880E+02  0.51100000000E-03 0. -1.
        -11    1    3    3    0    0 -0.51821147796E+01  0.95144576121E+01  0.73717693556E+00  0.10859219463E+02  0.51100000000E-03 0.  1.
        -12    1    3    3    0    0  0.61024775806E+01 -0.17993252838E+01 -0.38736741626E+02  0.39255737873E+02  0.00000000000E+00 0.  1.
</event>
<event>
 7    1  0.1756449E-015  0.9000776E+02  0.7816164E-02  0.1186339E+00
        -11   -1    0    0    0    0  0.00000000000E+00  0.00000000000E+00  0.45593999997E+02  0.45594000000E+02  0.51100000000E-03 0.  1.
         11   -1    0    0    0    0 -0.00000000000E+00 -0.00000000000E+00 -0.45593999997E+02  0.45594000000E+02  0.51100000000E-03 0. -1.
    9900012    2    1    2    0    0 -0.86045925452E-01 -0.28158221230E+00 -0.11429216996E+01  0.90007761696E+02  0.90000023350E+02 0.  0.
        -12    1    1    2    0    0  0.86045925452E-01  0.28158221230E+00  0.11429216996E+01  0.11802383043E+01  0.00000000000E+00 0.  1.
         11    1    3    3    0    0 -0.13453182738E+02  0.32028645208E+02 -0.15215213751E+02  0.37925255034E+02  0.51100000000E-03 0. -1.
        -11    1    3    3    0    0 -0.42443563731E+01  0.75151310418E-01 -0.80422061089E+01  0.90938049297E+01  0.51100000000E-03 0.  1.
        -12    1    3    3    0    0  0.17611493185E+02 -0.32385378730E+02  0.22114498161E+02  0.42988701732E+02  0.00000000000E+00 0.  1.
</event>
<event>
 7    1  0.1756449E-015  0.9000779E+02  0.7816164E-02  0.1186339E+00
        -11   -1    0    0    0    0  0.00000000000E+00  0.00000000000E+00  0.45593999997E+02  0.45594000000E+02  0.51100000000E-03 0.  1.
         11   -1    0    0    0    0 -0.00000000000E+00 -0.00000000000E+00 -0.45593999997E+02  0.45594000000E+02  0.51100000000E-03 0. -1.
    9900012    2    1    2    0    0  0.30906568765E+00  0.16494254762E+00 -0.11270204805E+01  0.90007786966E+02  0.90000048953E+02 0.  0.
        -12    1    1    2    0    0 -0.30906568765E+00 -0.16494254762E+00  0.11270204805E+01  0.11802130345E+01  0.00000000000E+00 0.  1.
         11    1    3    3    0    0  0.21845956989E+02  0.99996965862E+01 -0.30542317619E+02  0.38859656900E+02  0.51100000000E-03 0. -1.
        -11    1    3    3    0    0  0.76403118184E+01 -0.34278057357E+01 -0.10990840769E+01  0.84458393848E+01  0.51100000000E-03 0.  1.
        -12    1    3    3    0    0 -0.29177203119E+02 -0.64069483029E+01  0.30514381216E+02  0.42702290681E+02  0.00000000000E+00 0.  1.
</event>
<event>
 7    1  0.1756449E-015  0.9000777E+02  0.7816164E-02  0.1186339E+00
        -11   -1    0    0    0    0  0.00000000000E+00  0.00000000000E+00  0.45593999997E+02  0.45594000000E+02  0.51100000000E-03 0.  1.
         11   -1    0    0    0    0 -0.00000000000E+00 -0.00000000000E+00 -0.45593999997E+02  0.45594000000E+02  0.51100000000E-03 0. -1.
    9900012    2    1    2    0    0  0.10052652520E+01  0.62018031300E-01 -0.61525197846E+00  0.90007771437E+02  0.90000033220E+02 0.  0.
        -12    1    1    2    0    0 -0.10052652520E+01 -0.62018031300E-01  0.61525197846E+00  0.11802285627E+01  0.00000000000E+00 0.  1.
         11    1    3    3    0    0  0.37105387265E+02  0.70251016241E+01 -0.45399069838E+01  0.38036463724E+02  0.51100000000E-03 0. -1.
        -11    1    3    3    0    0  0.55333019774E+01  0.12972821608E+01 -0.61221326536E+01  0.83534950929E+01  0.51100000000E-03 0.  1.
        -12    1    3    3    0    0 -0.41633423990E+02 -0.82603657537E+01  0.10046787659E+02  0.43617812621E+02  0.00000000000E+00 0.  1.
</event>
<event>
 7    1  0.1756449E-015  0.9000802E+02  0.7816164E-02  0.1186338E+00
        -11   -1    0    0    0    0  0.00000000000E+00  0.00000000000E+00  0.45593999997E+02  0.45594000000E+02  0.51100000000E-03 0.  1.
         11   -1    0    0    0    0 -0.00000000000E+00 -0.00000000000E+00 -0.45593999997E+02  0.45594000000E+02  0.51100000000E-03 0. -1.
    9900012    2    1    2    0    0 -0.35001815308E+00  0.50066158733E+00 -0.10095464385E+01  0.90008017481E+02  0.90000282512E+02 0.  0.
        -12    1    1    2    0    0  0.35001815308E+00 -0.50066158733E+00  0.10095464385E+01  0.11799825185E+01  0.00000000000E+00 0.  1.
         11    1    3    3    0    0  0.13520261034E+02  0.38522567698E+02  0.11668540050E+02  0.42461046944E+02  0.51100000000E-03 0. -1.
        -11    1    3    3    0    0  0.55760113882E+01 -0.12921878708E+02 -0.39639647156E+01  0.14621212976E+02  0.51100000000E-03 0.  1.
        -12    1    3    3    0    0 -0.19446290576E+02 -0.25100027402E+02 -0.87141217727E+01  0.32925757561E+02  0.00000000000E+00 0.  1.
</event>
<event>
 7    1  0.1756449E-015  0.9000775E+02  0.7816164E-02  0.1186339E+00
        -11   -1    0    0    0    0  0.00000000000E+00  0.00000000000E+00  0.45593999997E+02  0.45594000000E+02  0.51100000000E-03 0.  1.
         11   -1    0    0    0    0 -0.00000000000E+00 -0.00000000000E+00 -0.45593999997E+02  0.45594000000E+02  0.51100000000E-03 0. -1.
    9900012    2    1    2    0    0 -0.88429315632E+00 -0.34152598409E+00  0.70312444789E+00  0.90007746479E+02  0.90000007933E+02 0.  0.
        -12    1    1    2    0    0  0.88429315632E+00  0.34152598409E+00 -0.70312444789E+00  0.11802535208E+01  0.00000000000E+00 0.  1.
         11    1    3    3    0    0  0.23771831532E+01  0.52841287664E+01 -0.90078101689E+01  0.10710446343E+02  0.51100000000E-03 0. -1.
        -11    1    3    3    0    0 -0.33345871839E+02  0.17183394075E+02 -0.67430177971E+01  0.38114098309E+02  0.51100000000E-03 0.  1.
         12    1    3    3    0    0  0.30084395529E+02 -0.22809048826E+02  0.16453952414E+02  0.41183201827E+02  0.00000000000E+00 0. -1.
</event>
<event>
 7    1  0.1756449E-015  0.9000774E+02  0.7816164E-02  0.1186339E+00
        -11   -1    0    0    0    0  0.00000000000E+00  0.00000000000E+00  0.45593999997E+02  0.45594000000E+02  0.51100000000E-03 0.  1.
         11   -1    0    0    0    0 -0.00000000000E+00 -0.00000000000E+00 -0.45593999997E+02  0.45594000000E+02  0.51100000000E-03 0. -1.
    9900012    2    1    2    0    0 -0.45441028285E+00 -0.22837953138E+00 -0.10650622797E+01  0.90007744276E+02  0.90000005700E+02 0.  0.
        -12    1    1    2    0    0  0.45441028285E+00  0.22837953138E+00  0.10650622797E+01  0.11802557245E+01  0.00000000000E+00 0.  1.
         11    1    3    3    0    0 -0.48304378865E+01  0.24748103186E+02  0.31755240102E+02  0.40548699309E+02  0.51100000000E-03 0. -1.
        -11    1    3    3    0    0 -0.96834090436E+01 -0.14115125236E+02 -0.78956671019E+01  0.18850642704E+02  0.51100000000E-03 0.  1.
        -12    1    3    3    0    0  0.14059436647E+02 -0.10861357482E+02 -0.24924635280E+02  0.30608402262E+02  0.00000000000E+00 0.  1.
</event>
<event>
 7    1  0.1756449E-015  0.9000778E+02  0.7816164E-02  0.1186339E+00
        -11   -1    0    0    0    0  0.00000000000E+00  0.00000000000E+00  0.45593999997E+02  0.45594000000E+02  0.51100000000E-03 0.  1.
         11   -1    0    0    0    0 -0.00000000000E+00 -0.00000000000E+00 -0.45593999997E+02  0.45594000000E+02  0.51100000000E-03 0. -1.
    9900012    2    1    2    0    0 -0.54731557632E+00  0.33883574893E+00 -0.98922434257E+00  0.90007775951E+02  0.90000037794E+02 0.  0.
        -12    1    1    2    0    0  0.54731557632E+00 -0.33883574893E+00  0.98922434257E+00  0.11802240485E+01  0.00000000000E+00 0.  1.
         11    1    3    3    0    0 -0.18652163256E+00  0.45015844189E+01  0.14589280647E+01  0.47357706827E+01  0.51100000000E-03 0. -1.
        -11    1    3    3    0    0 -0.16838829589E+02  0.30398705622E+02 -0.23139631530E+02  0.41750090216E+02  0.51100000000E-03 0.  1.
         12    1    3    3    0    0  0.16478035645E+02 -0.34561454292E+02  0.20691479123E+02  0.43521915052E+02  0.00000000000E+00 0. -1.
</event>
<event>
 7    1  0.1756449E-015  0.9000770E+02  0.7816164E-02  0.1186339E+00
        -11   -1    0    0    0    0  0.00000000000E+00  0.00000000000E+00  0.45593999997E+02  0.45594000000E+02  0.51100000000E-03 0. -1.
         11   -1    0    0    0    0 -0.00000000000E+00 -0.00000000000E+00 -0.45593999997E+02  0.45594000000E+02  0.51100000000E-03 0.  1.
    9900012    2    1    2    0    0 -0.72939944557E-02  0.23475653975E+00  0.11566964125E+01  0.90007699010E+02  0.89999959837E+02 0.  0.
        -12    1    1    2    0    0  0.72939944557E-02 -0.23475653975E+00 -0.11566964125E+01  0.11803009896E+01  0.00000000000E+00 0.  1.
         11    1    3    3    0    0  0.96053659669E+01 -0.63057526202E+01  0.13873449367E+00  0.11491075624E+02  0.51100000000E-03 0. -1.
        -11    1    3    3    0    0  0.17815693197E+02  0.20087234665E+02 -0.26240539250E+02  0.37542799855E+02  0.51100000000E-03 0.  1.
         12    1    3    3    0    0 -0.27428353158E+02 -0.13546725505E+02  0.27258501168E+02  0.40973823532E+02  0.00000000000E+00 0. -1.
</event>
<event>
 7    1  0.1756449E-015  0.9000763E+02  0.7816164E-02  0.1186339E+00
        -11   -1    0    0    0    0  0.00000000000E+00  0.00000000000E+00  0.45593999997E+02  0.45594000000E+02  0.51100000000E-03 0. -1.
         11   -1    0    0    0    0 -0.00000000000E+00 -0.00000000000E+00 -0.45593999997E+02  0.45594000000E+02  0.51100000000E-03 0.  1.
    9900012    2    1    2    0    0 -0.35414154766E+00  0.90608093227E+00  0.66848167408E+00  0.90007632837E+02  0.89999892790E+02 0.  0.
        -12    1    1    2    0    0  0.35414154766E+00 -0.90608093227E+00 -0.66848167408E+00  0.11803671633E+01  0.00000000000E+00 0.  1.
         11    1    3    3    0    0  0.86415062977E+01  0.20872666204E+02  0.26843227903E+02  0.35084223094E+02  0.51100000000E-03 0. -1.
        -11    1    3    3    0    0  0.59396938822E+01  0.11224172019E+02 -0.23130435544E+01  0.12907833733E+02  0.51100000000E-03 0.  1.
        -12    1    3    3    0    0 -0.14935341728E+02 -0.31190757291E+02 -0.23861702675E+02  0.42015576010E+02  0.00000000000E+00 0.  1.
</event>
<event>
 7    1  0.1756449E-015  0.9000767E+02  0.7816164E-02  0.1186339E+00
        -11   -1    0    0    0    0  0.00000000000E+00  0.00000000000E+00  0.45593999997E+02  0.45594000000E+02  0.51100000000E-03 0.  1.
         11   -1    0    0    0    0 -0.00000000000E+00 -0.00000000000E+00 -0.45593999997E+02  0.45594000000E+02  0.51100000000E-03 0. -1.
    9900012    2    1    2    0    0 -0.45906827170E+00 -0.44292960824E+00 -0.99310331944E+00  0.90007667623E+02  0.89999928036E+02 0.  0.
        -12    1    1    2    0    0  0.45906827170E+00  0.44292960824E+00  0.99310331944E+00  0.11803323765E+01  0.00000000000E+00 0.  1.
         11    1    3    3    0    0  0.73321550188E+01 -0.32313790060E+02 -0.22250585513E+02  0.39912780925E+02  0.51100000000E-03 0. -1.
        -11    1    3    3    0    0 -0.75688968565E+01 -0.45815787642E+01  0.31444694160E+01  0.93897152122E+01  0.51100000000E-03 0.  1.
        -12    1    3    3    0    0 -0.22232643401E+00  0.36452439216E+02  0.18113012777E+02  0.40705171486E+02  0.00000000000E+00 0.  1.
</event>
<event>
 7    1  0.1756449E-015  0.9000778E+02  0.7816164E-02  0.1186339E+00
        -11   -1    0    0    0    0  0.00000000000E+00  0.00000000000E+00  0.45593999997E+02  0.45594000000E+02  0.51100000000E-03 0.  1.
         11   -1    0    0    0    0 -0.00000000000E+00 -0.00000000000E+00 -0.45593999997E+02  0.45594000000E+02  0.51100000000E-03 0. -1.
    9900012    2    1    2    0    0  0.79832095429E+00  0.30788567191E+00  0.81290841620E+00  0.90007775434E+02  0.90000037270E+02 0.  0.
        -12    1    1    2    0    0 -0.79832095429E+00 -0.30788567191E+00 -0.81290841620E+00  0.11802245660E+01  0.00000000000E+00 0.  1.
         11    1    3    3    0    0 -0.30294478793E+01  0.28181154404E+01 -0.22096302897E+01  0.46906071427E+01  0.51100000000E-03 0. -1.
        -11    1    3    3    0    0 -0.21635041709E+02  0.30814006173E+02  0.16722685945E+02  0.41197405642E+02  0.51100000000E-03 0.  1.
         12    1    3    3    0    0  0.25462810543E+02 -0.33324235941E+02 -0.13700147239E+02  0.44119762649E+02  0.00000000000E+00 0. -1.
</event>
<event>
 7    1  0.1756449E-015  0.9000771E+02  0.7816164E-02  0.1186339E+00
        -11   -1    0    0    0    0  0.00000000000E+00  0.00000000000E+00  0.45593999997E+02  0.45594000000E+02  0.51100000000E-03 0.  1.
         11   -1    0    0    0    0 -0.00000000000E+00 -0.00000000000E+00 -0.45593999997E+02  0.45594000000E+02  0.51100000000E-03 0. -1.
    9900012    2    1    2    0    0  0.10392104701E+01  0.55948905289E+00 -0.94476663300E-02  0.90007713738E+02  0.89999974760E+02 0.  0.
        -12    1    1    2    0    0 -0.10392104701E+01 -0.55948905289E+00  0.94476663300E-02  0.11802862618E+01  0.00000000000E+00 0.  1.
         11    1    3    3    0    0  0.14906177061E+02 -0.17896775570E+02 -0.19524594619E+02  0.30392408356E+02  0.51100000000E-03 0. -1.
        -11    1    3    3    0    0 -0.86259977952E+00 -0.12120664904E+02 -0.95614201396E+01  0.15462061682E+02  0.51100000000E-03 0.  1.
        -12    1    3    3    0    0 -0.13004366811E+02  0.30576929527E+02  0.29076567092E+02  0.44153243701E+02  0.00000000000E+00 0.  1.
</event>
<event>
 7    1  0.1756449E-015  0.9000781E+02  0.7816164E-02  0.1186339E+00
        -11   -1    0    0    0    0  0.00000000000E+00  0.00000000000E+00  0.45593999997E+02  0.45594000000E+02  0.51100000000E-03 0. -1.
         11   -1    0    0    0    0 -0.00000000000E+00 -0.00000000000E+00 -0.45593999997E+02  0.45594000000E+02  0.51100000000E-03 0.  1.
    9900012    2    1    2    0    0 -0.29373258385E+00  0.11199004774E+01  0.22889571009E+00  0.90007809695E+02  0.90000071983E+02 0.  0.
        -12    1    1    2    0    0  0.29373258385E+00 -0.11199004774E+01 -0.22889571009E+00  0.11801903051E+01  0.00000000000E+00 0.  1.
         11    1    3    3    0    0  0.40704854560E+01 -0.21619888580E+02  0.12745340586E+02  0.25425029813E+02  0.51100000000E-03 0. -1.
        -11    1    3    3    0    0  0.13149035376E+02 -0.12708255964E+02  0.80908579431E+01  0.19996471776E+02  0.51100000000E-03 0.  1.
        -12    1    3    3    0    0 -0.17513253416E+02  0.35448045022E+02 -0.20607302819E+02  0.44586308106E+02  0.00000000000E+00 0.  1.
</event>
<event>
 7    1  0.1756449E-015  0.9000770E+02  0.7816164E-02  0.1186339E+00
        -11   -1    0    0    0    0  0.00000000000E+00  0.00000000000E+00  0.45593999997E+02  0.45594000000E+02  0.51100000000E-03 0.  1.
         11   -1    0    0    0    0 -0.00000000000E+00 -0.00000000000E+00 -0.45593999997E+02  0.45594000000E+02  0.51100000000E-03 0. -1.
    9900012    2    1    2    0    0 -0.61799898577E+00  0.84796715253E+00 -0.54048876254E+00  0.90007703791E+02  0.89999964681E+02 0.  0.
        -12    1    1    2    0    0  0.61799898577E+00 -0.84796715253E+00  0.54048876254E+00  0.11802962088E+01  0.00000000000E+00 0.  1.
         11    1    3    3    0    0 -0.26252781618E+02  0.12443409913E+02 -0.67596636356E+00  0.29060349683E+02  0.51100000000E-03 0. -1.
        -11    1    3    3    0    0 -0.16964536289E+02 -0.50258685886E+01 -0.19085900793E+01  0.17795998509E+02  0.51100000000E-03 0.  1.
        -12    1    3    3    0    0  0.42599318921E+02 -0.65695741713E+01  0.20440676804E+01  0.43151355599E+02  0.00000000000E+00 0.  1.
</event>
<event>
 7    1  0.1756449E-015  0.9000786E+02  0.7816164E-02  0.1186339E+00
        -11   -1    0    0    0    0  0.00000000000E+00  0.00000000000E+00  0.45593999997E+02  0.45594000000E+02  0.51100000000E-03 0.  1.
         11   -1    0    0    0    0 -0.00000000000E+00 -0.00000000000E+00 -0.45593999997E+02  0.45594000000E+02  0.51100000000E-03 0. -1.
    9900012    2    1    2    0    0 -0.65346235662E+00  0.97030331510E+00 -0.15568968248E+00  0.90007855580E+02  0.90000118474E+02 0.  0.
        -12    1    1    2    0    0  0.65346235662E+00 -0.97030331510E+00  0.15568968248E+00  0.11801444200E+01  0.00000000000E+00 0.  1.
         11    1    3    3    0    0  0.15352757923E+02  0.31581347387E+02  0.16279603894E+02  0.38705479998E+02  0.51100000000E-03 0. -1.
        -11    1    3    3    0    0 -0.55370792635E+01  0.53832834207E+01  0.39047489427E+01  0.86536727304E+01  0.51100000000E-03 0.  1.
        -12    1    3    3    0    0 -0.10469141016E+02 -0.35994327493E+02 -0.20340042519E+02  0.42648702852E+02  0.00000000000E+00 0.  1.
</event>
<event>
 7    1  0.1756449E-015  0.9000770E+02  0.7816164E-02  0.1186339E+00
        -11   -1    0    0    0    0  0.00000000000E+00  0.00000000000E+00  0.45593999997E+02  0.45594000000E+02  0.51100000000E-03 0. -1.
         11   -1    0    0    0    0 -0.00000000000E+00 -0.00000000000E+00 -0.45593999997E+02  0.45594000000E+02  0.51100000000E-03 0.  1.
    9900012    2    1    2    0    0 -0.10255427818E+01 -0.25180201321E-01  0.58373367004E+00  0.90007696210E+02  0.89999957000E+02 0.  0.
        -12    1    1    2    0    0  0.10255427818E+01  0.25180201321E-01 -0.58373367004E+00  0.11803037903E+01  0.00000000000E+00 0.  1.
         11    1    3    3    0    0 -0.10445718556E+02  0.26114726136E+02  0.21677794842E+02  0.35510825769E+02  0.51100000000E-03 0. -1.
        -11    1    3    3    0    0 -0.78002912122E+01  0.21811211148E+01  0.72609919582E+01  0.10877676075E+02  0.51100000000E-03 0.  1.
        -12    1    3    3    0    0  0.17220466986E+02 -0.28321027452E+02 -0.28355053130E+02  0.43619194366E+02  0.00000000000E+00 0.  1.
</event>
<event>
 7    1  0.1756449E-015  0.9000769E+02  0.7816164E-02  0.1186339E+00
        -11   -1    0    0    0    0  0.00000000000E+00  0.00000000000E+00  0.45593999997E+02  0.45594000000E+02  0.51100000000E-03 0.  1.
         11   -1    0    0    0    0 -0.00000000000E+00 -0.00000000000E+00 -0.45593999997E+02  0.45594000000E+02  0.51100000000E-03 0. -1.
    9900012    2    1    2    0    0  0.76185915789E+00 -0.73847889214E+00  0.51706259267E+00  0.90007688950E+02  0.89999949644E+02 0.  0.
        -12    1    1    2    0    0 -0.76185915789E+00  0.73847889214E+00 -0.51706259267E+00  0.11803110503E+01  0.00000000000E+00 0.  1.
         11    1    3    3    0    0 -0.34026656396E+02  0.17743929977E+02 -0.93245499824E+01  0.39491867886E+02  0.51100000000E-03 0. -1.
        -11    1    3    3    0    0 -0.32494591994E+01 -0.95931857614E+01 -0.38707344293E+00  0.10135976729E+02  0.51100000000E-03 0.  1.
        -12    1    3    3    0    0  0.38037974753E+02 -0.88892231077E+01  0.10228686018E+02  0.40379844334E+02  0.00000000000E+00 0.  1.
</event>
<event>
 7    1  0.1756449E-015  0.9000767E+02  0.7816164E-02  0.1186339E+00
        -11   -1    0    0    0    0  0.00000000000E+00  0.00000000000E+00  0.45593999997E+02  0.45594000000E+02  0.51100000000E-03 0.  1.
         11   -1    0    0    0    0 -0.00000000000E+00 -0.00000000000E+00 -0.45593999997E+02  0.45594000000E+02  0.51100000000E-03 0. -1.
    9900012    2    1    2    0    0  0.58815186136E+00 -0.35349785667E+00 -0.96036778637E+00  0.90007665458E+02  0.89999925842E+02 0.  0.
        -12    1    1    2    0    0 -0.58815186136E+00  0.35349785667E+00  0.96036778637E+00  0.11803345423E+01  0.00000000000E+00 0.  1.
         11    1    3    3    0    0 -0.99829077657E+01 -0.35267653572E+02  0.14203941319E+02  0.39309258263E+02  0.51100000000E-03 0. -1.
        -11    1    3    3    0    0  0.76172000913E+01 -0.23615725575E+01 -0.10245919486E+02  0.12983744782E+02  0.51100000000E-03 0.  1.
        -12    1    3    3    0    0  0.29538595359E+01  0.37275728273E+02 -0.49183896190E+01  0.37714662413E+02  0.00000000000E+00 0.  1.
</event>
<event>
 7    1  0.1756449E-015  0.9000776E+02  0.7816164E-02  0.1186339E+00
        -11   -1    0    0    0    0  0.00000000000E+00  0.00000000000E+00  0.45593999997E+02  0.45594000000E+02  0.51100000000E-03 0.  1.
         11   -1    0    0    0    0 -0.00000000000E+00 -0.00000000000E+00 -0.45593999997E+02  0.45594000000E+02  0.51100000000E-03 0. -1.
    9900012    2    1    2    0    0  0.65211031581E+00  0.94481496178E+00  0.27392648485E+00  0.90007763204E+02  0.90000024878E+02 0.  0.
        -12    1    1    2    0    0 -0.65211031581E+00 -0.94481496178E+00 -0.27392648485E+00  0.11802367962E+01  0.00000000000E+00 0.  1.
         11    1    3    3    0    0  0.60000283987E+01  0.32563443110E+01 -0.62293257302E+01  0.92416783309E+01  0.51100000000E-03 0. -1.
        -11    1    3    3    0    0  0.85883914141E+01  0.29022281885E+01 -0.35272852646E+02  0.36419191775E+02  0.51100000000E-03 0.  1.
        -12    1    3    3    0    0 -0.13936309497E+02 -0.52137575378E+01  0.41776104861E+02  0.44346893098E+02  0.00000000000E+00 0.  1.
</event>
<event>
 7    1  0.1756449E-015  0.9000779E+02  0.7816164E-02  0.1186339E+00
        -11   -1    0    0    0    0  0.00000000000E+00  0.00000000000E+00  0.45593999997E+02  0.45594000000E+02  0.51100000000E-03 0.  1.
         11   -1    0    0    0    0 -0.00000000000E+00 -0.00000000000E+00 -0.45593999997E+02  0.45594000000E+02  0.51100000000E-03 0. -1.
    9900012    2    1    2    0    0  0.24343778320E+00  0.96885776984E+00  0.62844429286E+00  0.90007792577E+02  0.90000054639E+02 0.  0.
        -12    1    1    2    0    0 -0.24343778320E+00 -0.96885776984E+00 -0.62844429286E+00  0.11802074232E+01  0.00000000000E+00 0.  1.
         11    1    3    3    0    0 -0.30194038771E+02  0.75378229254E+01 -0.22804016770E+02  0.38581367690E+02  0.51100000000E-03 0. -1.
        -11    1    3    3    0    0 -0.46888606065E+01 -0.64756465953E+00 -0.42120167929E+01  0.63360744551E+01  0.51100000000E-03 0.  1.
        -12    1    3    3    0    0  0.35126337160E+02 -0.59214004960E+01  0.27644477856E+02  0.45090350432E+02  0.00000000000E+00 0.  1.
</event>
<event>
 7    1  0.1756449E-015  0.9000773E+02  0.7816164E-02  0.1186339E+00
        -11   -1    0    0    0    0  0.00000000000E+00  0.00000000000E+00  0.45593999997E+02  0.45594000000E+02  0.51100000000E-03 0.  1.
         11   -1    0    0    0    0 -0.00000000000E+00 -0.00000000000E+00 -0.45593999997E+02  0.45594000000E+02  0.51100000000E-03 0. -1.
    9900012    2    1    2    0    0  0.80804048481E+00  0.76673226102E+00  0.39015567394E+00  0.90007733405E+02  0.89999994686E+02 0.  0.
        -12    1    1    2    0    0 -0.80804048481E+00 -0.76673226102E+00 -0.39015567394E+00  0.11802665949E+01  0.00000000000E+00 0.  1.
         11    1    3    3    0    0 -0.58306682547E+01 -0.15372969503E+01 -0.77035173932E+01  0.97828500294E+01  0.51100000000E-03 0. -1.
        -11    1    3    3    0    0 -0.17025569131E+02  0.29477225804E+02 -0.15239984970E+02  0.37296568039E+02  0.51100000000E-03 0.  1.
         12    1    3    3    0    0  0.23664277871E+02 -0.27173196593E+02  0.23333658037E+02  0.42928315336E+02  0.00000000000E+00 0. -1.
</event>
<event>
 7    1  0.1756449E-015  0.9000780E+02  0.7816164E-02  0.1186339E+00
        -11   -1    0    0    0    0  0.00000000000E+00  0.00000000000E+00  0.45593999997E+02  0.45594000000E+02  0.51100000000E-03 0. -1.
         11   -1    0    0    0    0 -0.00000000000E+00 -0.00000000000E+00 -0.45593999997E+02  0.45594000000E+02  0.51100000000E-03 0.  1.
    9900012    2    1    2    0    0  0.65008216164E-01 -0.10921362638E+01  0.44258732711E+00  0.90007800344E+02  0.90000062508E+02 0.  0.
        -12    1    1    2    0    0 -0.65008216164E-01  0.10921362638E+01 -0.44258732711E+00  0.11801996564E+01  0.00000000000E+00 0.  1.
         11    1    3    3    0    0 -0.10944274910E+02 -0.13966811432E+02  0.31836011371E+02  0.36446955910E+02  0.51100000000E-03 0. -1.
        -11    1    3    3    0    0 -0.98843380800E+01  0.35948243454E+01  0.41441612434E+01  0.11304732373E+02  0.51100000000E-03 0.  1.
        -12    1    3    3    0    0  0.20893621206E+02  0.92798508225E+01 -0.35537585287E+02  0.42256112060E+02  0.00000000000E+00 0.  1.
</event>
<event>
 7    1  0.1756449E-015  0.9000778E+02  0.7816164E-02  0.1186339E+00
        -11   -1    0    0    0    0  0.00000000000E+00  0.00000000000E+00  0.45593999997E+02  0.45594000000E+02  0.51100000000E-03 0.  1.
         11   -1    0    0    0    0 -0.00000000000E+00 -0.00000000000E+00 -0.45593999997E+02  0.45594000000E+02  0.51100000000E-03 0. -1.
    9900012    2    1    2    0    0  0.84480559686E+00  0.60435242990E+00 -0.56034246850E+00  0.90007778818E+02  0.90000040699E+02 0.  0.
        -12    1    1    2    0    0 -0.84480559686E+00 -0.60435242990E+00  0.56034246850E+00  0.11802211818E+01  0.00000000000E+00 0.  1.
         11    1    3    3    0    0 -0.11909851789E+02 -0.90926294665E+01  0.18721488716E+01  0.15100510651E+02  0.51100000000E-03 0. -1.
        -11    1    3    3    0    0  0.26384005553E+01 -0.73052058153E+01  0.33229429051E+02  0.34125095528E+02  0.51100000000E-03 0.  1.
         12    1    3    3    0    0  0.10116256831E+02  0.17002187712E+02 -0.35661920391E+02  0.40782172640E+02  0.00000000000E+00 0. -1.
</event>
<event>
 7    1  0.1756449E-015  0.9000769E+02  0.7816164E-02  0.1186339E+00
        -11   -1    0    0    0    0  0.00000000000E+00  0.00000000000E+00  0.45593999997E+02  0.45594000000E+02  0.51100000000E-03 0. -1.
         11   -1    0    0    0    0 -0.00000000000E+00 -0.00000000000E+00 -0.45593999997E+02  0.45594000000E+02  0.51100000000E-03 0.  1.
    9900012    2    1    2    0    0  0.40453206609E+00  0.10065512960E+01 -0.46512801609E+00  0.90007688272E+02  0.89999948957E+02 0.  0.
        -12    1    1    2    0    0 -0.40453206609E+00 -0.10065512960E+01  0.46512801609E+00  0.11803117280E+01  0.00000000000E+00 0.  1.
         11    1    3    3    0    0  0.28157808205E+02 -0.18226608411E+02  0.18295965239E+02  0.38207509227E+02  0.51100000000E-03 0. -1.
        -11    1    3    3    0    0  0.20147165530E+01  0.60502897532E+01  0.75918011322E+01  0.99146625549E+01  0.51100000000E-03 0.  1.
        -12    1    3    3    0    0 -0.29767992691E+02  0.13182869954E+02 -0.26352894387E+02  0.41885516490E+02  0.00000000000E+00 0.  1.
</event>
<event>
 7    1  0.1756449E-015  0.9000775E+02  0.7816164E-02  0.1186339E+00
        -11   -1    0    0    0    0  0.00000000000E+00  0.00000000000E+00  0.45593999997E+02  0.45594000000E+02  0.51100000000E-03 0.  1.
         11   -1    0    0    0    0 -0.00000000000E+00 -0.00000000000E+00 -0.45593999997E+02  0.45594000000E+02  0.51100000000E-03 0. -1.
    9900012    2    1    2    0    0  0.78707432640E+00  0.61076050573E+00  0.63282802581E+00  0.90007751848E+02  0.90000013372E+02 0.  0.
        -12    1    1    2    0    0 -0.78707432640E+00 -0.61076050573E+00 -0.63282802581E+00  0.11802481522E+01  0.00000000000E+00 0.  1.
         11    1    3    3    0    0 -0.34652410873E+02  0.11342537729E+02 -0.91353988934E+00  0.36472966658E+02  0.51100000000E-03 0. -1.
        -11    1    3    3    0    0 -0.64569152067E+01 -0.21622779114E+00  0.75353130963E+01  0.99256965582E+01  0.51100000000E-03 0.  1.
        -12    1    3    3    0    0  0.41896400406E+02 -0.10515549432E+02 -0.59889451812E+01  0.43609088631E+02  0.00000000000E+00 0.  1.
</event>
<event>
 7    1  0.1756449E-015  0.9000775E+02  0.7816164E-02  0.1186339E+00
        -11   -1    0    0    0    0  0.00000000000E+00  0.00000000000E+00  0.45593999997E+02  0.45594000000E+02  0.51100000000E-03 0. -1.
         11   -1    0    0    0    0 -0.00000000000E+00 -0.00000000000E+00 -0.45593999997E+02  0.45594000000E+02  0.51100000000E-03 0.  1.
    9900012    2    1    2    0    0 -0.60139474301E+00 -0.76232499642E+00  0.67094854392E+00  0.90007751303E+02  0.90000012821E+02 0.  0.
        -12    1    1    2    0    0  0.60139474301E+00  0.76232499642E+00 -0.67094854392E+00  0.11802486965E+01  0.00000000000E+00 0.  1.
         11    1    3    3    0    0 -0.36136424090E+02 -0.20178187488E+02 -0.52823181072E+01  0.41724133078E+02  0.51100000000E-03 0. -1.
        -11    1    3    3    0    0  0.14578744906E+01  0.54932651539E-01  0.88633752851E+01  0.89826408886E+01  0.51100000000E-03 0.  1.
        -12    1    3    3    0    0  0.34077154856E+02  0.19360929840E+02 -0.29101086340E+01  0.39300977337E+02  0.00000000000E+00 0.  1.
</event>
<event>
 7    1  0.1756449E-015  0.9000784E+02  0.7816164E-02  0.1186339E+00
        -11   -1    0    0    0    0  0.00000000000E+00  0.00000000000E+00  0.45593999997E+02  0.45594000000E+02  0.51100000000E-03 0.  1.
         11   -1    0    0    0    0 -0.00000000000E+00 -0.00000000000E+00 -0.45593999997E+02  0.45594000000E+02  0.51100000000E-03 0. -1.
    9900012    2    1    2    0    0 -0.98742097277E+00 -0.30284903477E+00 -0.57100780063E+00  0.90007844238E+02  0.90000106981E+02 0.  0.
        -12    1    1    2    0    0  0.98742097277E+00  0.30284903477E+00  0.57100780063E+00  0.11801557625E+01  0.00000000000E+00 0.  1.
         11    1    3    3    0    0  0.76384458418E+01 -0.22870292510E+01  0.92795609908E+01  0.12234647936E+02  0.51100000000E-03 0. -1.
        -11    1    3    3    0    0  0.31544834036E+02  0.14158604696E+02  0.34236826000E+00  0.34578314846E+02  0.51100000000E-03 0.  1.
         12    1    3    3    0    0 -0.40170700851E+02 -0.12174424479E+02 -0.10192937051E+02  0.43194881456E+02  0.00000000000E+00 0. -1.
</event>
<event>
 7    1  0.1756449E-015  0.9000823E+02  0.7816164E-02  0.1186338E+00
        -11   -1    0    0    0    0  0.00000000000E+00  0.00000000000E+00  0.45593999997E+02  0.45594000000E+02  0.51100000000E-03 0. -1.
         11   -1    0    0    0    0 -0.00000000000E+00 -0.00000000000E+00 -0.45593999997E+02  0.45594000000E+02  0.51100000000E-03 0.  1.
    9900012    2    1    2    0    0  0.10786414906E+01  0.39096212281E+00 -0.27484245616E+00  0.90008230013E+02  0.90000497848E+02 0.  0.
        -12    1    1    2    0    0 -0.10786414906E+01 -0.39096212281E+00  0.27484245616E+00  0.11797699871E+01  0.00000000000E+00 0.  1.
         11    1    3    3    0    0 -0.43001869729E+01 -0.45712101207E+01  0.68746314011E+01  0.93084975765E+01  0.51100000000E-03 0. -1.
        -11    1    3    3    0    0  0.16767667032E+02  0.38997830398E+02  0.51480560052E+01  0.42760822190E+02  0.51100000000E-03 0.  1.
         12    1    3    3    0    0 -0.11388838568E+02 -0.34035658155E+02 -0.12297529862E+02  0.37938910246E+02  0.00000000000E+00 0. -1.
</event>
<event>
 7    1  0.1756449E-015  0.9000787E+02  0.7816164E-02  0.1186339E+00
        -11   -1    0    0    0    0  0.00000000000E+00  0.00000000000E+00  0.45593999997E+02  0.45594000000E+02  0.51100000000E-03 0.  1.
         11   -1    0    0    0    0 -0.00000000000E+00 -0.00000000000E+00 -0.45593999997E+02  0.45594000000E+02  0.51100000000E-03 0. -1.
    9900012    2    1    2    0    0 -0.10800372289E+01 -0.43226027543E+00 -0.19844091777E+00  0.90007869431E+02  0.90000132508E+02 0.  0.
        -12    1    1    2    0    0  0.10800372289E+01  0.43226027543E+00  0.19844091777E+00  0.11801305688E+01  0.00000000000E+00 0.  1.
         11    1    3    3    0    0 -0.24964748946E+02 -0.44604553764E+01 -0.32191243948E+02  0.40980611749E+02  0.51100000000E-03 0. -1.
        -11    1    3    3    0    0  0.79989620230E+01  0.36841329861E+01 -0.40080696304E+01  0.96757868790E+01  0.51100000000E-03 0.  1.
        -12    1    3    3    0    0  0.15885749694E+02  0.34406211487E+00  0.36000872661E+02  0.39351470804E+02  0.00000000000E+00 0.  1.
</event>
<event>
 7    1  0.1756449E-015  0.9000773E+02  0.7816164E-02  0.1186339E+00
        -11   -1    0    0    0    0  0.00000000000E+00  0.00000000000E+00  0.45593999997E+02  0.45594000000E+02  0.51100000000E-03 0. -1.
         11   -1    0    0    0    0 -0.00000000000E+00 -0.00000000000E+00 -0.45593999997E+02  0.45594000000E+02  0.51100000000E-03 0.  1.
    9900012    2    1    2    0    0 -0.17846150409E+00 -0.74848537497E+00 -0.89496227775E+00  0.90007730394E+02  0.89999991635E+02 0.  0.
        -12    1    1    2    0    0  0.17846150409E+00  0.74848537497E+00  0.89496227775E+00  0.11802696063E+01  0.00000000000E+00 0.  1.
         11    1    3    3    0    0  0.22113212973E+02  0.38123762525E+00  0.28044604430E+02  0.35716093963E+02  0.51100000000E-03 0. -1.
        -11    1    3    3    0    0 -0.74308230459E+01 -0.95034196349E+01  0.73967351415E+01  0.14150752874E+02  0.51100000000E-03 0.  1.
        -12    1    3    3    0    0 -0.14860851431E+02  0.83736966347E+01 -0.36336301849E+02  0.40140883556E+02  0.00000000000E+00 0.  1.
</event>
<event>
 7    1  0.1756449E-015  0.9000752E+02  0.7816164E-02  0.1186339E+00
        -11   -1    0    0    0    0  0.00000000000E+00  0.00000000000E+00  0.45593999997E+02  0.45594000000E+02  0.51100000000E-03 0. -1.
         11   -1    0    0    0    0 -0.00000000000E+00 -0.00000000000E+00 -0.45593999997E+02  0.45594000000E+02  0.51100000000E-03 0.  1.
    9900012    2    1    2    0    0  0.87447946271E+00  0.75062218793E+00 -0.25572420037E+00  0.90007515834E+02  0.89999774243E+02 0.  0.
        -12    1    1    2    0    0 -0.87447946271E+00 -0.75062218793E+00  0.25572420037E+00  0.11804841661E+01  0.00000000000E+00 0.  1.
         11    1    3    3    0    0 -0.80652022367E+01 -0.17858838706E+02  0.27013641056E+02  0.33372479836E+02  0.51100000000E-03 0. -1.
        -11    1    3    3    0    0  0.24513370351E+00 -0.14065597059E+02 -0.15501315989E+01  0.14152880251E+02  0.51100000000E-03 0.  1.
        -12    1    3    3    0    0  0.86945479959E+01  0.32675057952E+02 -0.25719233657E+02  0.42482155748E+02  0.00000000000E+00 0.  1.
</event>
<event>
 7    1  0.1756449E-015  0.9000771E+02  0.7816164E-02  0.1186339E+00
        -11   -1    0    0    0    0  0.00000000000E+00  0.00000000000E+00  0.45593999997E+02  0.45594000000E+02  0.51100000000E-03 0.  1.
         11   -1    0    0    0    0 -0.00000000000E+00 -0.00000000000E+00 -0.45593999997E+02  0.45594000000E+02  0.51100000000E-03 0. -1.
    9900012    2    1    2    0    0 -0.36134693087E-01 -0.30068483848E+00 -0.11407732502E+01  0.90007711605E+02  0.89999972598E+02 0.  0.
        -12    1    1    2    0    0  0.36134693087E-01  0.30068483848E+00  0.11407732502E+01  0.11802883955E+01  0.00000000000E+00 0.  1.
         11    1    3    3    0    0 -0.34743349946E+01 -0.11489983572E+01 -0.93989962499E+01  0.10086244675E+02  0.51100000000E-03 0. -1.
        -11    1    3    3    0    0  0.40418197439E+02  0.32997000715E+01  0.12936770462E+02  0.42566168902E+02  0.51100000000E-03 0.  1.
         12    1    3    3    0    0 -0.36979997138E+02 -0.24513865528E+01 -0.46785474622E+01  0.37355298027E+02  0.00000000000E+00 0. -1.
</event>
<event>
 7    1  0.1756449E-015  0.9000821E+02  0.7816164E-02  0.1186338E+00
        -11   -1    0    0    0    0  0.00000000000E+00  0.00000000000E+00  0.45593999997E+02  0.45594000000E+02  0.51100000000E-03 0. -1.
         11   -1    0    0    0    0 -0.00000000000E+00 -0.00000000000E+00 -0.45593999997E+02  0.45594000000E+02  0.51100000000E-03 0.  1.
    9900012    2    1    2    0    0  0.41014849017E+00  0.22745455996E+00  0.10825638083E+01  0.90008211138E+02  0.90000478723E+02 0.  0.
        -12    1    1    2    0    0 -0.41014849017E+00 -0.22745455996E+00 -0.10825638083E+01  0.11797888624E+01  0.00000000000E+00 0.  1.
         11    1    3    3    0    0 -0.49494201461E+01 -0.77528709237E+01  0.79185681394E+01  0.12137029661E+02  0.51100000000E-03 0. -1.
        -11    1    3    3    0    0  0.10545068525E+02 -0.25589491614E+02  0.20358617520E+02  0.34358315716E+02  0.51100000000E-03 0.  1.
         12    1    3    3    0    0 -0.51854998891E+01  0.33569817098E+02 -0.27194621851E+02  0.43512865761E+02  0.00000000000E+00 0. -1.
</event>
<event>
 7    1  0.1756449E-015  0.9000773E+02  0.7816164E-02  0.1186339E+00
        -11   -1    0    0    0    0  0.00000000000E+00  0.00000000000E+00  0.45593999997E+02  0.45594000000E+02  0.51100000000E-03 0. -1.
         11   -1    0    0    0    0 -0.00000000000E+00 -0.00000000000E+00 -0.45593999997E+02  0.45594000000E+02  0.51100000000E-03 0.  1.
    9900012    2    1    2    0    0  0.65594032254E+00  0.43369636686E+00  0.88015893514E+00  0.90007733083E+02  0.89999994359E+02 0.  0.
        -12    1    1    2    0    0 -0.65594032254E+00 -0.43369636686E+00 -0.88015893514E+00  0.11802669175E+01  0.00000000000E+00 0.  1.
         11    1    3    3    0    0 -0.27522993044E+01  0.58777420098E+01  0.99962707245E+01  0.11918407245E+02  0.51100000000E-03 0. -1.
        -11    1    3    3    0    0 -0.27060601687E+02 -0.26436176194E+02 -0.14862841379E+02  0.40645437991E+02  0.51100000000E-03 0.  1.
         12    1    3    3    0    0  0.30468841314E+02  0.20992130551E+02  0.57467295895E+01  0.37443887846E+02  0.00000000000E+00 0. -1.
</event>
<event>
 7    1  0.1756449E-015  0.9000775E+02  0.7816164E-02  0.1186339E+00
        -11   -1    0    0    0    0  0.00000000000E+00  0.00000000000E+00  0.45593999997E+02  0.45594000000E+02  0.51100000000E-03 0.  1.
         11   -1    0    0    0    0 -0.00000000000E+00 -0.00000000000E+00 -0.45593999997E+02  0.45594000000E+02  0.51100000000E-03 0. -1.
    9900012    2    1    2    0    0  0.54600900030E+00 -0.78415604674E+00 -0.69279484022E+00  0.90007749508E+02  0.90000011001E+02 0.  0.
        -12    1    1    2    0    0 -0.54600900030E+00  0.78415604674E+00  0.69279484022E+00  0.11802504923E+01  0.00000000000E+00 0.  1.
         11    1    3    3    0    0  0.41046718427E+01 -0.23655195945E+01 -0.10314776745E+02  0.11350710703E+02  0.51100000000E-03 0. -1.
        -11    1    3    3    0    0 -0.14631068711E+02 -0.32697089491E+02  0.20186238037E+02  0.41117539313E+02  0.51100000000E-03 0.  1.
         12    1    3    3    0    0  0.11072405869E+02  0.34278453039E+02 -0.10564256132E+02  0.37539499492E+02  0.00000000000E+00 0. -1.
</event>
<event>
 7    1  0.1756449E-015  0.9000775E+02  0.7816164E-02  0.1186339E+00
        -11   -1    0    0    0    0  0.00000000000E+00  0.00000000000E+00  0.45593999997E+02  0.45594000000E+02  0.51100000000E-03 0. -1.
         11   -1    0    0    0    0 -0.00000000000E+00 -0.00000000000E+00 -0.45593999997E+02  0.45594000000E+02  0.51100000000E-03 0.  1.
    9900012    2    1    2    0    0 -0.10837076349E+01 -0.46515748454E+00 -0.46843879435E-01  0.90007750843E+02  0.90000012354E+02 0.  0.
        -12    1    1    2    0    0  0.10837076349E+01  0.46515748454E+00  0.46843879435E-01  0.11802491569E+01  0.00000000000E+00 0.  1.
         11    1    3    3    0    0 -0.58957713183E+01  0.22617121921E+02  0.30056376934E+02  0.38074665043E+02  0.51100000000E-03 0. -1.
        -11    1    3    3    0    0 -0.77361124109E+01 -0.40537259259E+01  0.50112482900E+01  0.10069396149E+02  0.51100000000E-03 0.  1.
        -12    1    3    3    0    0  0.12548176094E+02 -0.19028553479E+02 -0.35114469104E+02  0.41863689652E+02  0.00000000000E+00 0.  1.
</event>
<event>
 7    1  0.1756449E-015  0.9000820E+02  0.7816164E-02  0.1186338E+00
        -11   -1    0    0    0    0  0.00000000000E+00  0.00000000000E+00  0.45593999997E+02  0.45594000000E+02  0.51100000000E-03 0.  1.
         11   -1    0    0    0    0 -0.00000000000E+00 -0.00000000000E+00 -0.45593999997E+02  0.45594000000E+02  0.51100000000E-03 0. -1.
    9900012    2    1    2    0    0 -0.31910373907E+00  0.34181594005E-03 -0.11358226188E+01  0.90008203266E+02  0.90000470748E+02 0.  0.
        -12    1    1    2    0    0  0.31910373907E+00 -0.34181594005E-03  0.11358226188E+01  0.11797967344E+01  0.00000000000E+00 0.  1.
         11    1    3    3    0    0 -0.29343463682E+01 -0.40185169170E+02 -0.12354799569E+01  0.40311097986E+02  0.51100000000E-03 0. -1.
        -11    1    3    3    0    0 -0.25018374418E+01  0.20436528547E+01  0.95403692957E+01  0.10072455219E+02  0.51100000000E-03 0.  1.
        -12    1    3    3    0    0  0.51170800709E+01  0.38141858132E+02 -0.94407119575E+01  0.39624650061E+02  0.00000000000E+00 0.  1.
</event>
<event>
 7    1  0.1756449E-015  0.9000774E+02  0.7816164E-02  0.1186339E+00
        -11   -1    0    0    0    0  0.00000000000E+00  0.00000000000E+00  0.45593999997E+02  0.45594000000E+02  0.51100000000E-03 0.  1.
         11   -1    0    0    0    0 -0.00000000000E+00 -0.00000000000E+00 -0.45593999997E+02  0.45594000000E+02  0.51100000000E-03 0. -1.
    9900012    2    1    2    0    0 -0.75735695772E+00  0.38103115593E-01 -0.90441790058E+00  0.90007740220E+02  0.90000001591E+02 0.  0.
        -12    1    1    2    0    0  0.75735695772E+00 -0.38103115593E-01  0.90441790058E+00  0.11802597798E+01  0.00000000000E+00 0.  1.
         11    1    3    3    0    0 -0.89433341838E+01  0.11560206540E+01 -0.18166815973E+01  0.91989098464E+01  0.51100000000E-03 0. -1.
        -11    1    3    3    0    0 -0.15817353834E+02  0.16072273078E+02  0.31210536532E+02  0.38504600181E+02  0.51100000000E-03 0.  1.
         12    1    3    3    0    0  0.24003331060E+02 -0.17190190616E+02 -0.30298272836E+02  0.42304230193E+02  0.00000000000E+00 0. -1.
</event>
<event>
 7    1  0.1756449E-015  0.9000776E+02  0.7816164E-02  0.1186339E+00
        -11   -1    0    0    0    0  0.00000000000E+00  0.00000000000E+00  0.45593999997E+02  0.45594000000E+02  0.51100000000E-03 0.  1.
         11   -1    0    0    0    0 -0.00000000000E+00 -0.00000000000E+00 -0.45593999997E+02  0.45594000000E+02  0.51100000000E-03 0. -1.
    9900012    2    1    2    0    0  0.10481087069E+01  0.36407241158E+00 -0.40235877153E+00  0.90007757159E+02  0.90000018754E+02 0.  0.
        -12    1    1    2    0    0 -0.10481087069E+01 -0.36407241158E+00  0.40235877153E+00  0.11802428408E+01  0.00000000000E+00 0.  1.
         11    1    3    3    0    0 -0.38223366432E+01 -0.13495697251E+01 -0.36038420346E+02  0.36265677122E+02  0.51100000000E-03 0. -1.
        -11    1    3    3    0    0 -0.55568230588E+01 -0.78221943174E+01 -0.49286002334E+01  0.10786848797E+02  0.51100000000E-03 0.  1.
        -12    1    3    3    0    0  0.10427268409E+02  0.95358364541E+01  0.40564661807E+02  0.42955231240E+02  0.00000000000E+00 0.  1.
</event>
<event>
 7    1  0.1834058E-015  0.9000774E+02  0.7816164E-02  0.1186339E+00
        -11   -1    0    0    0    0  0.00000000000E+00  0.00000000000E+00  0.45593999997E+02  0.45594000000E+02  0.51100000000E-03 0. -1.
         11   -1    0    0    0    0 -0.00000000000E+00 -0.00000000000E+00 -0.45593999997E+02  0.45594000000E+02  0.51100000000E-03 0.  1.
    9900012    2    1    2    0    0 -0.99702416244E+00 -0.13937780723E+00  0.61605415286E+00  0.90007743217E+02  0.90000004628E+02 0.  0.
        -12    1    1    2    0    0  0.99702416244E+00  0.13937780723E+00 -0.61605415286E+00  0.11802567826E+01  0.00000000000E+00 0.  1.
         11    1    3    3    0    0 -0.53419595929E+01 -0.75610276295E+01 -0.26380356479E+01  0.96262611354E+01  0.51100000000E-03 0. -1.
        -11    1    3    3    0    0 -0.15710662929E+02 -0.14460180431E+02 -0.29346548058E+02  0.36292445921E+02  0.51100000000E-03 0.  1.
         12    1    3    3    0    0  0.20055598360E+02  0.21881830253E+02  0.32600637859E+02  0.44089036161E+02  0.00000000000E+00 0. -1.
</event>
<event>
 7    1  0.1756449E-015  0.9000772E+02  0.7816164E-02  0.1186339E+00
        -11   -1    0    0    0    0  0.00000000000E+00  0.00000000000E+00  0.45593999997E+02  0.45594000000E+02  0.51100000000E-03 0.  1.
         11   -1    0    0    0    0 -0.00000000000E+00 -0.00000000000E+00 -0.45593999997E+02  0.45594000000E+02  0.51100000000E-03 0. -1.
    9900012    2    1    2    0    0  0.32422610905E+00 -0.10886011156E+01  0.32077396773E+00  0.90007715756E+02  0.89999976804E+02 0.  0.
        -12    1    1    2    0    0 -0.32422610905E+00  0.10886011156E+01 -0.32077396773E+00  0.11802842442E+01  0.00000000000E+00 0.  1.
         11    1    3    3    0    0  0.84987838272E+01 -0.20838686361E+02  0.27895746461E+02  0.35842054164E+02  0.51100000000E-03 0. -1.
        -11    1    3    3    0    0 -0.34728483643E+01 -0.53125788360E+01  0.81148370657E+01  0.10302172126E+02  0.51100000000E-03 0.  1.
        -12    1    3    3    0    0 -0.47017093538E+01  0.25062664082E+02 -0.35689809559E+02  0.43863489466E+02  0.00000000000E+00 0.  1.
</event>
<event>
 7    1  0.1756449E-015  0.9000771E+02  0.7816164E-02  0.1186339E+00
        -11   -1    0    0    0    0  0.00000000000E+00  0.00000000000E+00  0.45593999997E+02  0.45594000000E+02  0.51100000000E-03 0. -1.
         11   -1    0    0    0    0 -0.00000000000E+00 -0.00000000000E+00 -0.45593999997E+02  0.45594000000E+02  0.51100000000E-03 0.  1.
    9900012    2    1    2    0    0 -0.17406146510E+00 -0.11664055454E+01  0.47746086352E-01  0.90007712332E+02  0.89999973335E+02 0.  0.
        -12    1    1    2    0    0  0.17406146510E+00  0.11664055454E+01 -0.47746086352E-01  0.11802876678E+01  0.00000000000E+00 0.  1.
         11    1    3    3    0    0 -0.33041773815E+01 -0.32012092984E+01  0.76056421292E+01  0.88888200341E+01  0.51100000000E-03 0. -1.
        -11    1    3    3    0    0 -0.22281999959E+02 -0.11252687170E+02 -0.33954666746E+02  0.42142969578E+02  0.51100000000E-03 0.  1.
         12    1    3    3    0    0  0.25412115876E+02  0.13287490923E+02  0.26396770704E+02  0.38975922720E+02  0.00000000000E+00 0. -1.
</event>
<event>
 7    1  0.1756449E-015  0.9000770E+02  0.7816164E-02  0.1186339E+00
        -11   -1    0    0    0    0  0.00000000000E+00  0.00000000000E+00  0.45593999997E+02  0.45594000000E+02  0.51100000000E-03 0. -1.
         11   -1    0    0    0    0 -0.00000000000E+00 -0.00000000000E+00 -0.45593999997E+02  0.45594000000E+02  0.51100000000E-03 0.  1.
    9900012    2    1    2    0    0 -0.35949343251E+00 -0.51960158975E+00  0.99694225986E+00  0.90007696984E+02  0.89999957784E+02 0.  0.
        -12    1    1    2    0    0  0.35949343251E+00  0.51960158975E+00 -0.99694225986E+00  0.11803030160E+01  0.00000000000E+00 0.  1.
         11    1    3    3    0    0  0.21411647361E+01  0.22525690032E+02 -0.65345382964E+01  0.23551889284E+02  0.51100000000E-03 0. -1.
        -11    1    3    3    0    0 -0.32114676955E+01  0.20857785751E+02  0.79323937364E+01  0.22545146303E+02  0.51100000000E-03 0.  1.
         12    1    3    3    0    0  0.71080952688E+00 -0.43903077372E+02 -0.40091318008E+00  0.43910661397E+02  0.00000000000E+00 0. -1.
</event>
<event>
 7    1  0.1756449E-015  0.9000779E+02  0.7816164E-02  0.1186339E+00
        -11   -1    0    0    0    0  0.00000000000E+00  0.00000000000E+00  0.45593999997E+02  0.45594000000E+02  0.51100000000E-03 0. -1.
         11   -1    0    0    0    0 -0.00000000000E+00 -0.00000000000E+00 -0.45593999997E+02  0.45594000000E+02  0.51100000000E-03 0.  1.
    9900012    2    1    2    0    0 -0.36593548678E+00  0.91638199261E+00  0.64748325443E+00  0.90007788450E+02  0.90000050458E+02 0.  0.
        -12    1    1    2    0    0  0.36593548678E+00 -0.91638199261E+00 -0.64748325443E+00  0.11802115495E+01  0.00000000000E+00 0.  1.
         11    1    3    3    0    0 -0.12611190153E+02  0.24853941921E+01  0.15545032004E+01  0.12947423752E+02  0.51100000000E-03 0. -1.
        -11    1    3    3    0    0 -0.30904570352E+02 -0.10475183440E+02 -0.40861865317E+01  0.32886454010E+02  0.51100000000E-03 0.  1.
         12    1    3    3    0    0  0.43149825018E+02  0.89061712401E+01  0.31791665857E+01  0.44173910688E+02  0.00000000000E+00 0. -1.
</event>
<event>
 7    1  0.1756449E-015  0.9000797E+02  0.7816164E-02  0.1186339E+00
        -11   -1    0    0    0    0  0.00000000000E+00  0.00000000000E+00  0.45593999997E+02  0.45594000000E+02  0.51100000000E-03 0.  1.
         11   -1    0    0    0    0 -0.00000000000E+00 -0.00000000000E+00 -0.45593999997E+02  0.45594000000E+02  0.51100000000E-03 0. -1.
    9900012    2    1    2    0    0  0.12193011216E-01  0.10345575307E+01 -0.56746999750E+00  0.90007966038E+02  0.90000230389E+02 0.  0.
        -12    1    1    2    0    0 -0.12193011216E-01 -0.10345575307E+01  0.56746999750E+00  0.11800339622E+01  0.00000000000E+00 0.  1.
         11    1    3    3    0    0  0.27777451210E+02 -0.77313169431E+01  0.23622831795E+02  0.37274632657E+02  0.51100000000E-03 0. -1.
        -11    1    3    3    0    0  0.43433002109E+01 -0.66335660035E+01  0.24072984631E+01  0.82863466496E+01  0.51100000000E-03 0.  1.
        -12    1    3    3    0    0 -0.32108558410E+02  0.15399440477E+02 -0.26597600256E+02  0.44446986732E+02  0.00000000000E+00 0.  1.
</event>
<event>
 7    1  0.1756449E-015  0.9000803E+02  0.7816164E-02  0.1186338E+00
        -11   -1    0    0    0    0  0.00000000000E+00  0.00000000000E+00  0.45593999997E+02  0.45594000000E+02  0.51100000000E-03 0.  1.
         11   -1    0    0    0    0 -0.00000000000E+00 -0.00000000000E+00 -0.45593999997E+02  0.45594000000E+02  0.51100000000E-03 0. -1.
    9900012    2    1    2    0    0  0.45468509520E+00  0.60280471058E+00 -0.90675745115E+00  0.90008033420E+02  0.90000298661E+02 0.  0.
        -12    1    1    2    0    0 -0.45468509520E+00 -0.60280471058E+00  0.90675745115E+00  0.11799665801E+01  0.00000000000E+00 0.  1.
         11    1    3    3    0    0  0.44294561120E+01 -0.35269510618E+02 -0.91124467471E+01  0.36695982705E+02  0.51100000000E-03 0. -1.
        -11    1    3    3    0    0  0.52958191086E+01 -0.70127456098E+01  0.92252339384E+00  0.88360257295E+01  0.51100000000E-03 0.  1.
        -12    1    3    3    0    0 -0.92705901255E+01  0.42885060938E+02  0.72831659021E+01  0.44476024986E+02  0.00000000000E+00 0.  1.
</event>
<event>
 7    1  0.1756449E-015  0.9000756E+02  0.7816164E-02  0.1186339E+00
        -11   -1    0    0    0    0  0.00000000000E+00  0.00000000000E+00  0.45593999997E+02  0.45594000000E+02  0.51100000000E-03 0.  1.
         11   -1    0    0    0    0 -0.00000000000E+00 -0.00000000000E+00 -0.45593999997E+02  0.45594000000E+02  0.51100000000E-03 0. -1.
    9900012    2    1    2    0    0  0.11198288443E+01 -0.31750047468E+00 -0.19653322198E+00  0.90007555804E+02  0.89999814741E+02 0.  0.
        -12    1    1    2    0    0 -0.11198288443E+01  0.31750047468E+00  0.19653322198E+00  0.11804441958E+01  0.00000000000E+00 0.  1.
         11    1    3    3    0    0  0.35062408077E+01 -0.30287622181E+02  0.27055552298E+01  0.30609701262E+02  0.51100000000E-03 0. -1.
        -11    1    3    3    0    0  0.20229791694E+02  0.19166814371E+02  0.11885756482E+02  0.30296574930E+02  0.51100000000E-03 0.  1.
        -12    1    3    3    0    0 -0.22616203657E+02  0.10803307336E+02 -0.14787844934E+02  0.29101279612E+02  0.00000000000E+00 0.  1.
</event>
<event>
 7    1  0.1881018E-015  0.9000735E+02  0.7816164E-02  0.1186340E+00
        -11   -1    0    0    0    0  0.00000000000E+00  0.00000000000E+00  0.45593999997E+02  0.45594000000E+02  0.51100000000E-03 0. -1.
         11   -1    0    0    0    0 -0.00000000000E+00 -0.00000000000E+00 -0.45593999997E+02  0.45594000000E+02  0.51100000000E-03 0.  1.
    9900012    2    1    2    0    0 -0.40377029655E+00  0.37990810704E+00  0.10423897305E+01  0.90007348920E+02  0.89999605125E+02 0.  0.
        -12    1    1    2    0    0  0.40377029655E+00 -0.37990810704E+00 -0.10423897305E+01  0.11806510799E+01  0.00000000000E+00 0.  1.
         11    1    3    3    0    0 -0.74957022734E+01  0.43390171573E+01  0.63119513629E+01  0.10716965649E+02  0.51100000000E-03 0. -1.
        -11    1    3    3    0    0 -0.11725379584E+02  0.29718113847E+02 -0.20340435027E+02  0.37873263847E+02  0.51100000000E-03 0.  1.
         12    1    3    3    0    0  0.18817311561E+02 -0.33677222898E+02  0.15070873395E+02  0.41417119424E+02  0.00000000000E+00 0. -1.
</event>
<event>
 7    1  0.1756449E-015  0.9000772E+02  0.7816164E-02  0.1186339E+00
        -11   -1    0    0    0    0  0.00000000000E+00  0.00000000000E+00  0.45593999997E+02  0.45594000000E+02  0.51100000000E-03 0.  1.
         11   -1    0    0    0    0 -0.00000000000E+00 -0.00000000000E+00 -0.45593999997E+02  0.45594000000E+02  0.51100000000E-03 0. -1.
    9900012    2    1    2    0    0 -0.71207448368E+00 -0.85511856670E+00 -0.39341535968E+00  0.90007723135E+02  0.89999984280E+02 0.  0.
        -12    1    1    2    0    0  0.71207448368E+00  0.85511856670E+00  0.39341535968E+00  0.11802768653E+01  0.00000000000E+00 0.  1.
         11    1    3    3    0    0  0.10412117356E+02  0.14436208048E+01 -0.10001587182E+01  0.10559192516E+02  0.51100000000E-03 0. -1.
        -11    1    3    3    0    0 -0.60734623475E+01  0.31501494662E+02  0.22208279955E+02  0.39018441917E+02  0.51100000000E-03 0.  1.
         12    1    3    3    0    0 -0.50507294923E+01 -0.33800234033E+02 -0.21601536597E+02  0.40430088702E+02  0.00000000000E+00 0. -1.
</event>
<event>
 7    1  0.1756449E-015  0.9000770E+02  0.7816164E-02  0.1186339E+00
        -11   -1    0    0    0    0  0.00000000000E+00  0.00000000000E+00  0.45593999997E+02  0.45594000000E+02  0.51100000000E-03 0.  1.
         11   -1    0    0    0    0 -0.00000000000E+00 -0.00000000000E+00 -0.45593999997E+02  0.45594000000E+02  0.51100000000E-03 0. -1.
    9900012    2    1    2    0    0  0.83983561098E+00 -0.52244982390E+00 -0.64406988676E+00  0.90007701864E+02  0.89999962728E+02 0.  0.
        -12    1    1    2    0    0 -0.83983561098E+00  0.52244982390E+00  0.64406988676E+00  0.11802981365E+01  0.00000000000E+00 0.  1.
         11    1    3    3    0    0  0.61262910028E+01  0.30202098567E+02  0.82263559110E+01  0.31896255754E+02  0.51100000000E-03 0. -1.
        -11    1    3    3    0    0 -0.22344951823E+01  0.13167769296E+02 -0.33368524389E+01  0.13766542827E+02  0.51100000000E-03 0.  1.
        -12    1    3    3    0    0 -0.30519602095E+01 -0.43892317687E+02 -0.55335733589E+01  0.44344903282E+02  0.00000000000E+00 0.  1.
</event>
<event>
 7    1  0.1756449E-015  0.9000788E+02  0.7816164E-02  0.1186339E+00
        -11   -1    0    0    0    0  0.00000000000E+00  0.00000000000E+00  0.45593999997E+02  0.45594000000E+02  0.51100000000E-03 0.  1.
         11   -1    0    0    0    0 -0.00000000000E+00 -0.00000000000E+00 -0.45593999997E+02  0.45594000000E+02  0.51100000000E-03 0. -1.
    9900012    2    1    2    0    0  0.27440950452E+00 -0.10368389865E+00 -0.11430843220E+01  0.90007875984E+02  0.90000139146E+02 0.  0.
        -12    1    1    2    0    0 -0.27440950452E+00  0.10368389865E+00  0.11430843220E+01  0.11801240165E+01  0.00000000000E+00 0.  1.
         11    1    3    3    0    0  0.27196110711E+02 -0.29677126171E+02  0.57451765486E+01  0.40661619611E+02  0.51100000000E-03 0. -1.
        -11    1    3    3    0    0 -0.48980747187E+01 -0.19200133168E+01  0.67587124037E+01  0.85649156857E+01  0.51100000000E-03 0.  1.
        -12    1    3    3    0    0 -0.22023626488E+02  0.31493455589E+02 -0.13646973274E+02  0.40781340686E+02  0.00000000000E+00 0.  1.
</event>
<event>
 7    1  0.1756449E-015  0.9000779E+02  0.7816164E-02  0.1186339E+00
        -11   -1    0    0    0    0  0.00000000000E+00  0.00000000000E+00  0.45593999997E+02  0.45594000000E+02  0.51100000000E-03 0.  1.
         11   -1    0    0    0    0 -0.00000000000E+00 -0.00000000000E+00 -0.45593999997E+02  0.45594000000E+02  0.51100000000E-03 0. -1.
    9900012    2    1    2    0    0 -0.13233150699E+00 -0.33533105719E-01 -0.11722930189E+01  0.90007785181E+02  0.90000047145E+02 0.  0.
        -12    1    1    2    0    0  0.13233150699E+00  0.33533105719E-01  0.11722930189E+01  0.11802148190E+01  0.00000000000E+00 0.  1.
         11    1    3    3    0    0 -0.34676592197E+02 -0.53497079149E-02 -0.19002447400E+02  0.39541864934E+02  0.51100000000E-03 0. -1.
        -11    1    3    3    0    0 -0.43282844612E+01 -0.55320171537E+01  0.65823206796E+01  0.96262249068E+01  0.51100000000E-03 0.  1.
        -12    1    3    3    0    0  0.38872545151E+02  0.55038337558E+01  0.11247833702E+02  0.40839695340E+02  0.00000000000E+00 0.  1.
</event>
<event>
 7    1  0.1756449E-015  0.9000774E+02  0.7816164E-02  0.1186339E+00
        -11   -1    0    0    0    0  0.00000000000E+00  0.00000000000E+00  0.45593999997E+02  0.45594000000E+02  0.51100000000E-03 0.  1.
         11   -1    0    0    0    0 -0.00000000000E+00 -0.00000000000E+00 -0.45593999997E+02  0.45594000000E+02  0.51100000000E-03 0. -1.
    9900012    2    1    2    0    0  0.56154522915E+00  0.35801576982E+00 -0.97442684548E+00  0.90007739006E+02  0.90000000361E+02 0.  0.
        -12    1    1    2    0    0 -0.56154522915E+00 -0.35801576982E+00  0.97442684548E+00  0.11802609936E+01  0.00000000000E+00 0.  1.
         11    1    3    3    0    0  0.34301402161E+01  0.39537937725E+02 -0.17663001639E+02  0.43439567316E+02  0.51100000000E-03 0. -1.
        -11    1    3    3    0    0 -0.78415320903E+01 -0.58686379626E+01  0.36911080957E+01  0.10466843664E+02  0.51100000000E-03 0.  1.
        -12    1    3    3    0    0  0.49729371033E+01 -0.33311283993E+02  0.12997466698E+02  0.36101328026E+02  0.00000000000E+00 0.  1.
</event>
<event>
 7    1  0.1756449E-015  0.9000763E+02  0.7816164E-02  0.1186339E+00
        -11   -1    0    0    0    0  0.00000000000E+00  0.00000000000E+00  0.45593999997E+02  0.45594000000E+02  0.51100000000E-03 0.  1.
         11   -1    0    0    0    0 -0.00000000000E+00 -0.00000000000E+00 -0.45593999997E+02  0.45594000000E+02  0.51100000000E-03 0. -1.
    9900012    2    1    2    0    0 -0.94872770052E-01 -0.20409503541E+00 -0.11587136322E+01  0.90007630182E+02  0.89999890100E+02 0.  0.
        -12    1    1    2    0    0  0.94872770052E-01  0.20409503541E+00  0.11587136322E+01  0.11803698181E+01  0.00000000000E+00 0.  1.
         11    1    3    3    0    0 -0.13326926891E+02 -0.10273738192E+02 -0.34206199909E+02  0.38121133105E+02  0.51100000000E-03 0. -1.
        -11    1    3    3    0    0 -0.18743406662E+01 -0.71393330380E+01 -0.39532121542E+01  0.83732380689E+01  0.51100000000E-03 0.  1.
        -12    1    3    3    0    0  0.15106394787E+02  0.17208976195E+02  0.37000698430E+02  0.43513259008E+02  0.00000000000E+00 0.  1.
</event>
<event>
 7    1  0.1756449E-015  0.9000771E+02  0.7816164E-02  0.1186339E+00
        -11   -1    0    0    0    0  0.00000000000E+00  0.00000000000E+00  0.45593999997E+02  0.45594000000E+02  0.51100000000E-03 0.  1.
         11   -1    0    0    0    0 -0.00000000000E+00 -0.00000000000E+00 -0.45593999997E+02  0.45594000000E+02  0.51100000000E-03 0. -1.
    9900012    2    1    2    0    0  0.53285579965E+00 -0.87083491631E+00 -0.59227347497E+00  0.90007713330E+02  0.89999974346E+02 0.  0.
        -12    1    1    2    0    0 -0.53285579965E+00  0.87083491631E+00  0.59227347497E+00  0.11802866702E+01  0.00000000000E+00 0.  1.
         11    1    3    3    0    0 -0.78522978660E+01 -0.33186341914E+02 -0.24871593565E+02  0.42208862080E+02  0.51100000000E-03 0. -1.
        -11    1    3    3    0    0 -0.67537356952E+01  0.24196743679E+01  0.16443228876E+01  0.73601336881E+01  0.51100000000E-03 0.  1.
        -12    1    3    3    0    0  0.15138889361E+02  0.29895832630E+02  0.22634997202E+02  0.40438717562E+02  0.00000000000E+00 0.  1.
</event>
<event>
 7    1  0.1756449E-015  0.9000771E+02  0.7816164E-02  0.1186339E+00
        -11   -1    0    0    0    0  0.00000000000E+00  0.00000000000E+00  0.45593999997E+02  0.45594000000E+02  0.51100000000E-03 0.  1.
         11   -1    0    0    0    0 -0.00000000000E+00 -0.00000000000E+00 -0.45593999997E+02  0.45594000000E+02  0.51100000000E-03 0. -1.
    9900012    2    1    2    0    0 -0.10414432782E+01 -0.55204232928E+00 -0.61093036705E-01  0.90007708852E+02  0.89999969809E+02 0.  0.
        -12    1    1    2    0    0  0.10414432782E+01  0.55204232928E+00  0.61093036705E-01  0.11802911480E+01  0.00000000000E+00 0.  1.
         11    1    3    3    0    0 -0.24018820283E+02  0.27340498789E+02  0.18017077745E+01  0.36436969590E+02  0.51100000000E-03 0. -1.
        -11    1    3    3    0    0 -0.34917504957E+01  0.72962131419E+01 -0.48597837070E+01  0.94363417529E+01  0.51100000000E-03 0.  1.
        -12    1    3    3    0    0  0.26469127500E+02 -0.35188754260E+02  0.29969828958E+01  0.44134397509E+02  0.00000000000E+00 0.  1.
</event>
<event>
 7    1  0.1756449E-015  0.9000779E+02  0.7816164E-02  0.1186339E+00
        -11   -1    0    0    0    0  0.00000000000E+00  0.00000000000E+00  0.45593999997E+02  0.45594000000E+02  0.51100000000E-03 0. -1.
         11   -1    0    0    0    0 -0.00000000000E+00 -0.00000000000E+00 -0.45593999997E+02  0.45594000000E+02  0.51100000000E-03 0.  1.
    9900012    2    1    2    0    0 -0.47427289709E+00  0.62224820449E+00  0.88361050160E+00  0.90007790219E+02  0.90000052250E+02 0.  0.
        -12    1    1    2    0    0  0.47427289709E+00 -0.62224820449E+00 -0.88361050160E+00  0.11802097811E+01  0.00000000000E+00 0.  1.
         11    1    3    3    0    0 -0.37367011211E+02 -0.67068525322E+01  0.22784434265E+02  0.44276470532E+02  0.51100000000E-03 0. -1.
        -11    1    3    3    0    0  0.11910365566E+02  0.22070220488E+01  0.41630287351E-02  0.12113123950E+02  0.51100000000E-03 0.  1.
        -12    1    3    3    0    0  0.24982372749E+02  0.51220786879E+01 -0.21904986792E+02  0.33618195737E+02  0.00000000000E+00 0.  1.
</event>
<event>
 7    1  0.1756449E-015  0.9000773E+02  0.7816164E-02  0.1186339E+00
        -11   -1    0    0    0    0  0.00000000000E+00  0.00000000000E+00  0.45593999997E+02  0.45594000000E+02  0.51100000000E-03 0.  1.
         11   -1    0    0    0    0 -0.00000000000E+00 -0.00000000000E+00 -0.45593999997E+02  0.45594000000E+02  0.51100000000E-03 0. -1.
    9900012    2    1    2    0    0 -0.35646661091E+00 -0.27484844353E+00 -0.10910660352E+01  0.90007730876E+02  0.89999992124E+02 0.  0.
        -12    1    1    2    0    0  0.35646661091E+00  0.27484844353E+00  0.10910660352E+01  0.11802691239E+01  0.00000000000E+00 0.  1.
         11    1    3    3    0    0  0.17642269577E+02 -0.18683584805E+02 -0.30794766026E+02  0.40107899868E+02  0.51100000000E-03 0. -1.
        -11    1    3    3    0    0  0.54481319232E+01  0.61474680929E+01 -0.21493386739E+01  0.84907692467E+01  0.51100000000E-03 0.  1.
        -12    1    3    3    0    0 -0.23446868112E+02  0.12261268268E+02  0.31853038664E+02  0.41409061761E+02  0.00000000000E+00 0.  1.
</event>
<event>
 7    1  0.1756449E-015  0.9000775E+02  0.7816164E-02  0.1186339E+00
        -11   -1    0    0    0    0  0.00000000000E+00  0.00000000000E+00  0.45593999997E+02  0.45594000000E+02  0.51100000000E-03 0.  1.
         11   -1    0    0    0    0 -0.00000000000E+00 -0.00000000000E+00 -0.45593999997E+02  0.45594000000E+02  0.51100000000E-03 0. -1.
    9900012    2    1    2    0    0 -0.11749407928E+01 -0.37913848024E-01  0.10515391277E+00  0.90007753978E+02  0.90000015531E+02 0.  0.
        -12    1    1    2    0    0  0.11749407928E+01  0.37913848024E-01 -0.10515391277E+00  0.11802460217E+01  0.00000000000E+00 0.  1.
         11    1    3    3    0    0 -0.37211096970E+01 -0.92057455664E+01 -0.33922350418E+01  0.10492838875E+02  0.51100000000E-03 0. -1.
        -11    1    3    3    0    0  0.26304372426E+02 -0.25990128670E+02  0.59856465215E+00  0.36983308085E+02  0.51100000000E-03 0.  1.
         12    1    3    3    0    0 -0.23758203522E+02  0.35157960388E+02  0.28988243024E+01  0.42531607019E+02  0.00000000000E+00 0. -1.
</event>
<event>
 7    1  0.1756449E-015  0.9000787E+02  0.7816164E-02  0.1186339E+00
        -11   -1    0    0    0    0  0.00000000000E+00  0.00000000000E+00  0.45593999997E+02  0.45594000000E+02  0.51100000000E-03 0. -1.
         11   -1    0    0    0    0 -0.00000000000E+00 -0.00000000000E+00 -0.45593999997E+02  0.45594000000E+02  0.51100000000E-03 0.  1.
    9900012    2    1    2    0    0  0.25839342255E-01  0.96732832083E+00  0.67551589764E+00  0.90007867177E+02  0.90000130224E+02 0.  0.
        -12    1    1    2    0    0 -0.25839342255E-01 -0.96732832083E+00 -0.67551589764E+00  0.11801328230E+01  0.00000000000E+00 0.  1.
         11    1    3    3    0    0 -0.65187130314E+01  0.42562136710E+02  0.79006806396E+01  0.43777275563E+02  0.51100000000E-03 0. -1.
        -11    1    3    3    0    0  0.65141728230E+01 -0.32180932495E+01 -0.65073886734E+00  0.72947949296E+01  0.51100000000E-03 0.  1.
        -12    1    3    3    0    0  0.30379550659E-01 -0.38376715140E+02 -0.65744258747E+01  0.38935796684E+02  0.00000000000E+00 0.  1.
</event>
<event>
 7    1  0.1756449E-015  0.9000777E+02  0.7816164E-02  0.1186339E+00
        -11   -1    0    0    0    0  0.00000000000E+00  0.00000000000E+00  0.45593999997E+02  0.45594000000E+02  0.51100000000E-03 0. -1.
         11   -1    0    0    0    0 -0.00000000000E+00 -0.00000000000E+00 -0.45593999997E+02  0.45594000000E+02  0.51100000000E-03 0.  1.
    9900012    2    1    2    0    0 -0.10051109737E+01 -0.54047810221E+00  0.30096308159E+00  0.90007769758E+02  0.90000031518E+02 0.  0.
        -12    1    1    2    0    0  0.10051109737E+01  0.54047810221E+00 -0.30096308159E+00  0.11802302423E+01  0.00000000000E+00 0.  1.
         11    1    3    3    0    0 -0.19306147838E+02 -0.15566887817E+02  0.33953769531E+02  0.42046567117E+02  0.51100000000E-03 0. -1.
        -11    1    3    3    0    0  0.27410014904E+01 -0.68127525192E+01 -0.66835711194E+01  0.99295926013E+01  0.51100000000E-03 0.  1.
        -12    1    3    3    0    0  0.15560035374E+02  0.21839162234E+02 -0.26969235330E+02  0.38031610040E+02  0.00000000000E+00 0.  1.
</event>
<event>
 7    1  0.1756449E-015  0.9000780E+02  0.7816164E-02  0.1186339E+00
        -11   -1    0    0    0    0  0.00000000000E+00  0.00000000000E+00  0.45593999997E+02  0.45594000000E+02  0.51100000000E-03 0. -1.
         11   -1    0    0    0    0 -0.00000000000E+00 -0.00000000000E+00 -0.45593999997E+02  0.45594000000E+02  0.51100000000E-03 0.  1.
    9900012    2    1    2    0    0  0.89502858853E+00  0.35301493560E+00  0.68350598433E+00  0.90007798259E+02  0.90000060396E+02 0.  0.
        -12    1    1    2    0    0 -0.89502858853E+00 -0.35301493560E+00 -0.68350598433E+00  0.11802017411E+01  0.00000000000E+00 0.  1.
         11    1    3    3    0    0  0.39805448738E+01  0.12467225340E+02 -0.41754184959E+01  0.13737196405E+02  0.51100000000E-03 0. -1.
        -11    1    3    3    0    0 -0.63750334856E+01  0.28129663096E+02  0.17771142460E+02  0.33878200992E+02  0.51100000000E-03 0.  1.
         12    1    3    3    0    0  0.32895172004E+01 -0.40243873501E+02 -0.12912217979E+02  0.42392400863E+02  0.00000000000E+00 0. -1.
</event>
<event>
 7    1  0.1756449E-015  0.9000781E+02  0.7816164E-02  0.1186339E+00
        -11   -1    0    0    0    0  0.00000000000E+00  0.00000000000E+00  0.45593999997E+02  0.45594000000E+02  0.51100000000E-03 0.  1.
         11   -1    0    0    0    0 -0.00000000000E+00 -0.00000000000E+00 -0.45593999997E+02  0.45594000000E+02  0.51100000000E-03 0. -1.
    9900012    2    1    2    0    0  0.49901351220E+00 -0.20603959925E+00 -0.10494663650E+01  0.90007810840E+02  0.90000073143E+02 0.  0.
        -12    1    1    2    0    0 -0.49901351220E+00  0.20603959925E+00  0.10494663650E+01  0.11801891598E+01  0.00000000000E+00 0.  1.
         11    1    3    3    0    0 -0.15037783748E+01  0.86765500019E+01 -0.82101455936E+01  0.12039533225E+02  0.51100000000E-03 0. -1.
        -11    1    3    3    0    0  0.30923611375E+02  0.17693521008E+02  0.13660605968E+02  0.38156815666E+02  0.51100000000E-03 0.  1.
         12    1    3    3    0    0 -0.28920819488E+02 -0.26576110609E+02 -0.64999267398E+01  0.39811461949E+02  0.00000000000E+00 0. -1.
</event>
<event>
 7    1  0.1756449E-015  0.9000753E+02  0.7816164E-02  0.1186339E+00
        -11   -1    0    0    0    0  0.00000000000E+00  0.00000000000E+00  0.45593999997E+02  0.45594000000E+02  0.51100000000E-03 0.  1.
         11   -1    0    0    0    0 -0.00000000000E+00 -0.00000000000E+00 -0.45593999997E+02  0.45594000000E+02  0.51100000000E-03 0. -1.
    9900012    2    1    2    0    0 -0.28453762040E+00  0.10474574488E+01  0.46409189870E+00  0.90007529731E+02  0.89999788324E+02 0.  0.
        -12    1    1    2    0    0  0.28453762040E+00 -0.10474574488E+01 -0.46409189870E+00  0.11804702685E+01  0.00000000000E+00 0.  1.
         11    1    3    3    0    0  0.26266791782E+02  0.20365085000E+02 -0.15326191574E+02  0.36600180136E+02  0.51100000000E-03 0. -1.
        -11    1    3    3    0    0 -0.75116207712E+01  0.68193156426E+01 -0.82803579121E+01  0.13095489294E+02  0.51100000000E-03 0.  1.
        -12    1    3    3    0    0 -0.19039708631E+02 -0.26136943194E+02  0.24070641385E+02  0.40311860301E+02  0.00000000000E+00 0.  1.
</event>
<event>
 7    1  0.1756449E-015  0.9000772E+02  0.7816164E-02  0.1186339E+00
        -11   -1    0    0    0    0  0.00000000000E+00  0.00000000000E+00  0.45593999997E+02  0.45594000000E+02  0.51100000000E-03 0.  1.
         11   -1    0    0    0    0 -0.00000000000E+00 -0.00000000000E+00 -0.45593999997E+02  0.45594000000E+02  0.51100000000E-03 0. -1.
    9900012    2    1    2    0    0 -0.63061358090E+00  0.67759733404E+00 -0.73229472741E+00  0.90007717321E+02  0.89999978389E+02 0.  0.
        -12    1    1    2    0    0  0.63061358090E+00 -0.67759733404E+00  0.73229472741E+00  0.11802826794E+01  0.00000000000E+00 0.  1.
         11    1    3    3    0    0  0.23358521504E+02 -0.26282928591E+02 -0.13165191666E+02  0.37546439698E+02  0.51100000000E-03 0. -1.
        -11    1    3    3    0    0 -0.56066045295E+01 -0.83978927015E+01 -0.15751709764E+01  0.10219578271E+02  0.51100000000E-03 0.  1.
        -12    1    3    3    0    0 -0.18382530555E+02  0.35358418626E+02  0.14008067915E+02  0.42241699351E+02  0.00000000000E+00 0.  1.
</event>
<event>
 7    1  0.1756449E-015  0.9000744E+02  0.7816164E-02  0.1186340E+00
        -11   -1    0    0    0    0  0.00000000000E+00  0.00000000000E+00  0.45593999997E+02  0.45594000000E+02  0.51100000000E-03 0.  1.
         11   -1    0    0    0    0 -0.00000000000E+00 -0.00000000000E+00 -0.45593999997E+02  0.45594000000E+02  0.51100000000E-03 0. -1.
    9900012    2    1    2    0    0 -0.11157956654E+01  0.21628023115E+00 -0.31928854969E+00  0.90007439843E+02  0.89999697249E+02 0.  0.
        -12    1    1    2    0    0  0.11157956654E+01 -0.21628023115E+00  0.31928854969E+00  0.11805601566E+01  0.00000000000E+00 0.  1.
         11    1    3    3    0    0  0.48339526388E+01 -0.10512171611E+01 -0.73773135925E+01  0.88823933564E+01  0.51100000000E-03 0. -1.
        -11    1    3    3    0    0 -0.21659319209E+02  0.83255600855E+00 -0.32212827555E+02  0.38826350813E+02  0.51100000000E-03 0.  1.
         12    1    3    3    0    0  0.15709570904E+02  0.43494138373E+00  0.39270852598E+02  0.42298695674E+02  0.00000000000E+00 0. -1.
</event>
<event>
 7    1  0.1756449E-015  0.9000759E+02  0.7816164E-02  0.1186339E+00
        -11   -1    0    0    0    0  0.00000000000E+00  0.00000000000E+00  0.45593999997E+02  0.45594000000E+02  0.51100000000E-03 0.  1.
         11   -1    0    0    0    0 -0.00000000000E+00 -0.00000000000E+00 -0.45593999997E+02  0.45594000000E+02  0.51100000000E-03 0. -1.
    9900012    2    1    2    0    0  0.67423753824E+00 -0.72483135451E+00  0.64296141568E+00  0.90007586457E+02  0.89999845798E+02 0.  0.
        -12    1    1    2    0    0 -0.67423753824E+00  0.72483135451E+00 -0.64296141568E+00  0.11804135430E+01  0.00000000000E+00 0.  1.
         11    1    3    3    0    0  0.12150052308E+01 -0.10649752321E+02 -0.23818135669E+01  0.10980277698E+02  0.51100000000E-03 0. -1.
        -11    1    3    3    0    0 -0.29306909535E+02 -0.20772136577E+02  0.75786264714E+01  0.36712561664E+02  0.51100000000E-03 0.  1.
         12    1    3    3    0    0  0.28766141842E+02  0.30697057544E+02 -0.45538514888E+01  0.42314747095E+02  0.00000000000E+00 0. -1.
</event>
<event>
 7    1  0.1756449E-015  0.9000776E+02  0.7816164E-02  0.1186339E+00
        -11   -1    0    0    0    0  0.00000000000E+00  0.00000000000E+00  0.45593999997E+02  0.45594000000E+02  0.51100000000E-03 0.  1.
         11   -1    0    0    0    0 -0.00000000000E+00 -0.00000000000E+00 -0.45593999997E+02  0.45594000000E+02  0.51100000000E-03 0. -1.
    9900012    2    1    2    0    0  0.62825419014E+00  0.36619914365E+00 -0.92959822937E+00  0.90007763579E+02  0.90000025259E+02 0.  0.
        -12    1    1    2    0    0 -0.62825419014E+00 -0.36619914365E+00  0.92959822937E+00  0.11802364205E+01  0.00000000000E+00 0.  1.
         11    1    3    3    0    0 -0.58424873345E+00  0.10072099411E+02 -0.39065531705E+01  0.10818950553E+02  0.51100000000E-03 0. -1.
        -11    1    3    3    0    0 -0.35823334632E+02  0.98636031924E+01 -0.46612819572E+00  0.37159376311E+02  0.51100000000E-03 0.  1.
         12    1    3    3    0    0  0.37035837556E+02 -0.19569503460E+02  0.34430831368E+01  0.42029436715E+02  0.00000000000E+00 0. -1.
</event>
<event>
 7    1  0.1756449E-015  0.9000767E+02  0.7816164E-02  0.1186339E+00
        -11   -1    0    0    0    0  0.00000000000E+00  0.00000000000E+00  0.45593999997E+02  0.45594000000E+02  0.51100000000E-03 0. -1.
         11   -1    0    0    0    0 -0.00000000000E+00 -0.00000000000E+00 -0.45593999997E+02  0.45594000000E+02  0.51100000000E-03 0.  1.
    9900012    2    1    2    0    0  0.95048333352E+00 -0.37713125979E+00 -0.58951972666E+00  0.90007669511E+02  0.89999929949E+02 0.  0.
        -12    1    1    2    0    0 -0.95048333352E+00  0.37713125979E+00  0.58951972666E+00  0.11803304887E+01  0.00000000000E+00 0.  1.
         11    1    3    3    0    0 -0.35058333020E+01 -0.26466399713E+01 -0.94842386582E+01  0.10452098041E+02  0.51100000000E-03 0. -1.
        -11    1    3    3    0    0  0.19129551108E+01  0.38875140923E+02 -0.70354671150E+01  0.39552923746E+02  0.51100000000E-03 0.  1.
         12    1    3    3    0    0  0.25433615247E+01 -0.36605632212E+02  0.15930186047E+02  0.40002647724E+02  0.00000000000E+00 0. -1.
</event>
<event>
 7    1  0.1756449E-015  0.9000770E+02  0.7816164E-02  0.1186339E+00
        -11   -1    0    0    0    0  0.00000000000E+00  0.00000000000E+00  0.45593999997E+02  0.45594000000E+02  0.51100000000E-03 0.  1.
         11   -1    0    0    0    0 -0.00000000000E+00 -0.00000000000E+00 -0.45593999997E+02  0.45594000000E+02  0.51100000000E-03 0. -1.
    9900012    2    1    2    0    0  0.36768383733E-01  0.12963683843E+00 -0.11725857822E+01  0.90007697056E+02  0.89999957857E+02 0.  0.
        -12    1    1    2    0    0 -0.36768383733E-01 -0.12963683843E+00  0.11725857822E+01  0.11803029444E+01  0.00000000000E+00 0.  1.
         11    1    3    3    0    0  0.13225269627E+01  0.54379364323E+01 -0.44464947825E+02  0.44815754100E+02  0.51100000000E-03 0. -1.
        -11    1    3    3    0    0 -0.10937331893E+01 -0.56603972865E+01  0.78101309765E+01  0.97074453829E+01  0.51100000000E-03 0.  1.
        -12    1    3    3    0    0 -0.19202538969E+00  0.35209769263E+00  0.35482231066E+02  0.35484497573E+02  0.00000000000E+00 0.  1.
</event>
<event>
 7    1  0.1756449E-015  0.9000769E+02  0.7816164E-02  0.1186339E+00
        -11   -1    0    0    0    0  0.00000000000E+00  0.00000000000E+00  0.45593999997E+02  0.45594000000E+02  0.51100000000E-03 0. -1.
         11   -1    0    0    0    0 -0.00000000000E+00 -0.00000000000E+00 -0.45593999997E+02  0.45594000000E+02  0.51100000000E-03 0.  1.
    9900012    2    1    2    0    0 -0.81752456742E+00 -0.83521120089E-01  0.84723102805E+00  0.90007693849E+02  0.89999954608E+02 0.  0.
        -12    1    1    2    0    0  0.81752456742E+00  0.83521120089E-01 -0.84723102805E+00  0.11803061513E+01  0.00000000000E+00 0.  1.
         11    1    3    3    0    0 -0.67664311805E+01 -0.45973269635E+01 -0.43142489192E+01  0.92483917590E+01  0.51100000000E-03 0. -1.
        -11    1    3    3    0    0 -0.35256307668E+02  0.12869487944E+02 -0.39514212247E+01  0.37739166396E+02  0.51100000000E-03 0.  1.
         12    1    3    3    0    0  0.41205214281E+02 -0.83556821003E+01  0.91129011720E+01  0.43020135694E+02  0.00000000000E+00 0. -1.
</event>
<event>
 7    1  0.1756449E-015  0.9000754E+02  0.7816164E-02  0.1186339E+00
        -11   -1    0    0    0    0  0.00000000000E+00  0.00000000000E+00  0.45593999997E+02  0.45594000000E+02  0.51100000000E-03 0.  1.
         11   -1    0    0    0    0 -0.00000000000E+00 -0.00000000000E+00 -0.45593999997E+02  0.45594000000E+02  0.51100000000E-03 0. -1.
    9900012    2    1    2    0    0 -0.34654457533E+00  0.93684694864E+00 -0.62906054946E+00  0.90007537157E+02  0.89999795848E+02 0.  0.
        -12    1    1    2    0    0  0.34654457533E+00 -0.93684694864E+00  0.62906054946E+00  0.11804628426E+01  0.00000000000E+00 0.  1.
         11    1    3    3    0    0 -0.33157541197E+02 -0.12558505787E+02  0.11167594869E+02  0.37173293925E+02  0.51100000000E-03 0. -1.
        -11    1    3    3    0    0 -0.62942976683E+01  0.14458178522E+01  0.54287656840E+01  0.84368281665E+01  0.51100000000E-03 0.  1.
        -12    1    3    3    0    0  0.39105294290E+02  0.12049534884E+02 -0.17225421102E+02  0.44397415066E+02  0.00000000000E+00 0.  1.
</event>
<event>
 7    1  0.1756449E-015  0.9000807E+02  0.7816164E-02  0.1186338E+00
        -11   -1    0    0    0    0  0.00000000000E+00  0.00000000000E+00  0.45593999997E+02  0.45594000000E+02  0.51100000000E-03 0. -1.
         11   -1    0    0    0    0 -0.00000000000E+00 -0.00000000000E+00 -0.45593999997E+02  0.45594000000E+02  0.51100000000E-03 0.  1.
    9900012    2    1    2    0    0  0.36679090331E+00  0.93552151453E-02  0.11214329398E+01  0.90008069949E+02  0.90000335672E+02 0.  0.
        -12    1    1    2    0    0 -0.36679090331E+00 -0.93552151453E-02 -0.11214329398E+01  0.11799300511E+01  0.00000000000E+00 0.  1.
         11    1    3    3    0    0  0.37803845318E+02 -0.43174795568E+01  0.17408678213E+02  0.41842961510E+02  0.51100000000E-03 0. -1.
        -11    1    3    3    0    0  0.22286782185E+01  0.35506122096E+01 -0.57506463136E+01  0.71164448252E+01  0.51100000000E-03 0.  1.
        -12    1    3    3    0    0 -0.39665732634E+02  0.77622256232E+00 -0.10536598959E+02  0.41048663613E+02  0.00000000000E+00 0.  1.
</event>
<event>
 7    1  0.1756449E-015  0.9000772E+02  0.7816164E-02  0.1186339E+00
        -11   -1    0    0    0    0  0.00000000000E+00  0.00000000000E+00  0.45593999997E+02  0.45594000000E+02  0.51100000000E-03 0. -1.
         11   -1    0    0    0    0 -0.00000000000E+00 -0.00000000000E+00 -0.45593999997E+02  0.45594000000E+02  0.51100000000E-03 0.  1.
    9900012    2    1    2    0    0  0.76876491425E-01 -0.11579242963E+01 -0.21534552089E+00  0.90007715134E+02  0.89999976174E+02 0.  0.
        -12    1    1    2    0    0 -0.76876491425E-01  0.11579242963E+01  0.21534552089E+00  0.11802848657E+01  0.00000000000E+00 0.  1.
         11    1    3    3    0    0  0.31097995782E+02  0.20510250820E+02  0.63355770114E+01  0.37787501461E+02  0.51100000000E-03 0. -1.
        -11    1    3    3    0    0 -0.11032154129E+01  0.83228961793E+01 -0.51205286206E+01  0.98339970853E+01  0.51100000000E-03 0.  1.
        -12    1    3    3    0    0 -0.29917903878E+02 -0.29991071295E+02 -0.14303939117E+01  0.42386216588E+02  0.00000000000E+00 0.  1.
</event>
<event>
 7    1  0.1756449E-015  0.9000770E+02  0.7816164E-02  0.1186339E+00
        -11   -1    0    0    0    0  0.00000000000E+00  0.00000000000E+00  0.45593999997E+02  0.45594000000E+02  0.51100000000E-03 0.  1.
         11   -1    0    0    0    0 -0.00000000000E+00 -0.00000000000E+00 -0.45593999997E+02  0.45594000000E+02  0.51100000000E-03 0. -1.
    9900012    2    1    2    0    0 -0.10940271326E+01 -0.42055711895E-01 -0.44097122027E+00  0.90007695096E+02  0.89999955871E+02 0.  0.
        -12    1    1    2    0    0  0.10940271326E+01  0.42055711895E-01  0.44097122027E+00  0.11803049042E+01  0.00000000000E+00 0.  1.
         11    1    3    3    0    0 -0.38386082570E+01  0.86409840199E+01 -0.23050119276E+01  0.97321425405E+01  0.51100000000E-03 0. -1.
        -11    1    3    3    0    0 -0.31123647869E+02 -0.27096916288E+02 -0.32175353292E+01  0.41391748729E+02  0.51100000000E-03 0.  1.
         12    1    3    3    0    0  0.33868228993E+02  0.18413876557E+02  0.50815760365E+01  0.38883803826E+02  0.00000000000E+00 0. -1.
</event>
<event>
 7    1  0.1756449E-015  0.9000777E+02  0.7816164E-02  0.1186339E+00
        -11   -1    0    0    0    0  0.00000000000E+00  0.00000000000E+00  0.45593999997E+02  0.45594000000E+02  0.51100000000E-03 0.  1.
         11   -1    0    0    0    0 -0.00000000000E+00 -0.00000000000E+00 -0.45593999997E+02  0.45594000000E+02  0.51100000000E-03 0. -1.
    9900012    2    1    2    0    0  0.90256415404E-01 -0.66374214038E+00 -0.97172362296E+00  0.90007768392E+02  0.90000030135E+02 0.  0.
        -12    1    1    2    0    0 -0.90256415404E-01  0.66374214038E+00  0.97172362296E+00  0.11802316081E+01  0.00000000000E+00 0.  1.
         11    1    3    3    0    0 -0.27557174558E+01 -0.93708467939E+00  0.86450468870E+01  0.91218935717E+01  0.51100000000E-03 0. -1.
        -11    1    3    3    0    0  0.30499910090E+02 -0.24739182565E+02  0.72929053198E+01  0.39943186375E+02  0.51100000000E-03 0.  1.
         12    1    3    3    0    0 -0.27653936219E+02  0.25012525104E+02 -0.16909675830E+02  0.40942688446E+02  0.00000000000E+00 0. -1.
</event>
<event>
 7    1  0.1756449E-015  0.9000771E+02  0.7816164E-02  0.1186339E+00
        -11   -1    0    0    0    0  0.00000000000E+00  0.00000000000E+00  0.45593999997E+02  0.45594000000E+02  0.51100000000E-03 0. -1.
         11   -1    0    0    0    0 -0.00000000000E+00 -0.00000000000E+00 -0.45593999997E+02  0.45594000000E+02  0.51100000000E-03 0.  1.
    9900012    2    1    2    0    0  0.43257333252E+00  0.10851014114E+01  0.16889236855E+00  0.90007707920E+02  0.89999968865E+02 0.  0.
        -12    1    1    2    0    0 -0.43257333252E+00 -0.10851014114E+01 -0.16889236855E+00  0.11802920796E+01  0.00000000000E+00 0.  1.
         11    1    3    3    0    0  0.27653837690E+02  0.10442168874E+02  0.26146022568E+02  0.39463757122E+02  0.51100000000E-03 0. -1.
        -11    1    3    3    0    0 -0.10482412735E+02 -0.11605472000E+02  0.39949774983E+01  0.16140873662E+02  0.51100000000E-03 0.  1.
        -12    1    3    3    0    0 -0.16738851622E+02  0.22484045373E+01 -0.29972107698E+02  0.34403077136E+02  0.00000000000E+00 0.  1.
</event>
<event>
 7    1  0.1756449E-015  0.9000773E+02  0.7816164E-02  0.1186339E+00
        -11   -1    0    0    0    0  0.00000000000E+00  0.00000000000E+00  0.45593999997E+02  0.45594000000E+02  0.51100000000E-03 0. -1.
         11   -1    0    0    0    0 -0.00000000000E+00 -0.00000000000E+00 -0.45593999997E+02  0.45594000000E+02  0.51100000000E-03 0.  1.
    9900012    2    1    2    0    0  0.87605727089E+00  0.78049937840E+00  0.12795365770E+00  0.90007734030E+02  0.89999995319E+02 0.  0.
        -12    1    1    2    0    0 -0.87605727089E+00 -0.78049937840E+00 -0.12795365770E+00  0.11802659701E+01  0.00000000000E+00 0.  1.
         11    1    3    3    0    0  0.26841489966E+02 -0.17966439321E+02 -0.25472399235E+02  0.41135163164E+02  0.51100000000E-03 0. -1.
        -11    1    3    3    0    0 -0.55613952109E+01  0.70509769820E+01 -0.50000869524E+01  0.10278436792E+02  0.51100000000E-03 0.  1.
        -12    1    3    3    0    0 -0.20404037485E+02  0.11695961717E+02  0.30600439845E+02  0.38594134074E+02  0.00000000000E+00 0.  1.
</event>
<event>
 7    1  0.2800191E-015  0.9000764E+02  0.7816164E-02  0.1186339E+00
        -11   -1    0    0    0    0  0.00000000000E+00  0.00000000000E+00  0.45593999997E+02  0.45594000000E+02  0.51100000000E-03 0. -1.
         11   -1    0    0    0    0 -0.00000000000E+00 -0.00000000000E+00 -0.45593999997E+02  0.45594000000E+02  0.51100000000E-03 0.  1.
    9900012    2    1    2    0    0  0.63216731568E+00 -0.66790409197E+00  0.73994811163E+00  0.90007637937E+02  0.89999897958E+02 0.  0.
        -12    1    1    2    0    0 -0.63216731568E+00  0.66790409197E+00 -0.73994811163E+00  0.11803620627E+01  0.00000000000E+00 0.  1.
         11    1    3    3    0    0 -0.32826095774E+01 -0.48962744654E+01 -0.73729369028E+01  0.94397684353E+01  0.51100000000E-03 0. -1.
        -11    1    3    3    0    0  0.16304786649E+02  0.74820097750E+01 -0.32969739544E+02  0.37534387750E+02  0.51100000000E-03 0.  1.
         12    1    3    3    0    0 -0.12390009756E+02 -0.32536394015E+01  0.41082624558E+02  0.43033481752E+02  0.00000000000E+00 0. -1.
</event>
<event>
 7    1  0.1756449E-015  0.9000777E+02  0.7816164E-02  0.1186339E+00
        -11   -1    0    0    0    0  0.00000000000E+00  0.00000000000E+00  0.45593999997E+02  0.45594000000E+02  0.51100000000E-03 0. -1.
         11   -1    0    0    0    0 -0.00000000000E+00 -0.00000000000E+00 -0.45593999997E+02  0.45594000000E+02  0.51100000000E-03 0.  1.
    9900012    2    1    2    0    0 -0.87112819658E+00 -0.74494707047E+00 -0.28129916993E+00  0.90007771338E+02  0.90000033119E+02 0.  0.
        -12    1    1    2    0    0  0.87112819658E+00  0.74494707047E+00  0.28129916993E+00  0.11802286625E+01  0.00000000000E+00 0.  1.
         11    1    3    3    0    0 -0.80120866266E+01 -0.18606991452E+01  0.38500931404E+01  0.90817922720E+01  0.51100000000E-03 0. -1.
        -11    1    3    3    0    0 -0.75108691743E+01 -0.21362058586E+02 -0.33952496577E+02  0.40810816297E+02  0.51100000000E-03 0.  1.
         12    1    3    3    0    0  0.14651827604E+02  0.22477810661E+02  0.29821104266E+02  0.40115162768E+02  0.00000000000E+00 0. -1.
</event>
<event>
 7    1  0.1756449E-015  0.9000770E+02  0.7816164E-02  0.1186339E+00
        -11   -1    0    0    0    0  0.00000000000E+00  0.00000000000E+00  0.45593999997E+02  0.45594000000E+02  0.51100000000E-03 0.  1.
         11   -1    0    0    0    0 -0.00000000000E+00 -0.00000000000E+00 -0.45593999997E+02  0.45594000000E+02  0.51100000000E-03 0. -1.
    9900012    2    1    2    0    0 -0.77586020501E+00  0.38811330081E+00 -0.80031829614E+00  0.90007703272E+02  0.89999964155E+02 0.  0.
        -12    1    1    2    0    0  0.77586020501E+00 -0.38811330081E+00  0.80031829614E+00  0.11802967284E+01  0.00000000000E+00 0.  1.
         11    1    3    3    0    0 -0.26165324237E+02 -0.14776424414E+02 -0.22649433918E+02  0.37629294014E+02  0.51100000000E-03 0. -1.
        -11    1    3    3    0    0 -0.19620034828E+01  0.12767158569E+01 -0.87458828694E+01  0.90537245635E+01  0.51100000000E-03 0.  1.
        -12    1    3    3    0    0  0.27351467515E+02  0.13887821858E+02  0.30594998491E+02  0.43324684694E+02  0.00000000000E+00 0.  1.
</event>
<event>
 7    1  0.1756449E-015  0.9000775E+02  0.7816164E-02  0.1186339E+00
        -11   -1    0    0    0    0  0.00000000000E+00  0.00000000000E+00  0.45593999997E+02  0.45594000000E+02  0.51100000000E-03 0.  1.
         11   -1    0    0    0    0 -0.00000000000E+00 -0.00000000000E+00 -0.45593999997E+02  0.45594000000E+02  0.51100000000E-03 0. -1.
    9900012    2    1    2    0    0 -0.91423482199E+00  0.34129674774E+00  0.66384312934E+00  0.90007747281E+02  0.90000008745E+02 0.  0.
        -12    1    1    2    0    0  0.91423482199E+00 -0.34129674774E+00 -0.66384312934E+00  0.11802527188E+01  0.00000000000E+00 0.  1.
         11    1    3    3    0    0  0.21406002952E+02 -0.23059461272E+02  0.23195218651E+02  0.39089306531E+02  0.51100000000E-03 0. -1.
        -11    1    3    3    0    0  0.62000279116E+01 -0.22031757939E+01 -0.68766914865E+01  0.95175215127E+01  0.51100000000E-03 0.  1.
        -12    1    3    3    0    0 -0.28520265685E+02  0.25603933813E+02 -0.15654684035E+02  0.41400919238E+02  0.00000000000E+00 0.  1.
</event>
<event>
 7    1  0.1756449E-015  0.9000773E+02  0.7816164E-02  0.1186339E+00
        -11   -1    0    0    0    0  0.00000000000E+00  0.00000000000E+00  0.45593999997E+02  0.45594000000E+02  0.51100000000E-03 0. -1.
         11   -1    0    0    0    0 -0.00000000000E+00 -0.00000000000E+00 -0.45593999997E+02  0.45594000000E+02  0.51100000000E-03 0.  1.
    9900012    2    1    2    0    0  0.67815750831E-01  0.65409530742E+00  0.98009747229E+00  0.90007732783E+02  0.89999994056E+02 0.  0.
        -12    1    1    2    0    0 -0.67815750831E-01 -0.65409530742E+00 -0.98009747229E+00  0.11802672165E+01  0.00000000000E+00 0.  1.
         11    1    3    3    0    0  0.28258083493E+02  0.58913467184E+01  0.20295915034E+02  0.35286703108E+02  0.51100000000E-03 0. -1.
        -11    1    3    3    0    0  0.68497338915E+01 -0.99464390622E+01  0.35842404921E+01  0.12597511047E+02  0.51100000000E-03 0.  1.
        -12    1    3    3    0    0 -0.35040001634E+02  0.47091876513E+01 -0.22900058054E+02  0.42123518629E+02  0.00000000000E+00 0.  1.
</event>
<event>
 7    1  0.1756449E-015  0.9000774E+02  0.7816164E-02  0.1186339E+00
        -11   -1    0    0    0    0  0.00000000000E+00  0.00000000000E+00  0.45593999997E+02  0.45594000000E+02  0.51100000000E-03 0.  1.
         11   -1    0    0    0    0 -0.00000000000E+00 -0.00000000000E+00 -0.45593999997E+02  0.45594000000E+02  0.51100000000E-03 0. -1.
    9900012    2    1    2    0    0  0.80048840334E+00  0.48087322232E+00 -0.72180195909E+00  0.90007737822E+02  0.89999999162E+02 0.  0.
        -12    1    1    2    0    0 -0.80048840334E+00 -0.48087322232E+00  0.72180195909E+00  0.11802621776E+01  0.00000000000E+00 0.  1.
         11    1    3    3    0    0 -0.11412028957E+02  0.16921405187E+02  0.11309965042E+02  0.23334173822E+02  0.51100000000E-03 0. -1.
        -11    1    3    3    0    0 -0.38061683962E+01  0.95156733563E+01  0.19981323491E+02  0.22456363151E+02  0.51100000000E-03 0.  1.
         12    1    3    3    0    0  0.16018685757E+02 -0.25956205321E+02 -0.32013090492E+02  0.44217200849E+02  0.00000000000E+00 0. -1.
</event>
<event>
 7    1  0.1756449E-015  0.9000767E+02  0.7816164E-02  0.1186339E+00
        -11   -1    0    0    0    0  0.00000000000E+00  0.00000000000E+00  0.45593999997E+02  0.45594000000E+02  0.51100000000E-03 0.  1.
         11   -1    0    0    0    0 -0.00000000000E+00 -0.00000000000E+00 -0.45593999997E+02  0.45594000000E+02  0.51100000000E-03 0. -1.
    9900012    2    1    2    0    0 -0.20259772640E+00 -0.54053049834E+00 -0.10295391912E+01  0.90007673772E+02  0.89999934266E+02 0.  0.
        -12    1    1    2    0    0  0.20259772640E+00  0.54053049834E+00  0.10295391912E+01  0.11803262281E+01  0.00000000000E+00 0.  1.
         11    1    3    3    0    0 -0.53892454006E+01 -0.88744680394E+01 -0.65925235356E+01  0.12298842051E+02  0.51100000000E-03 0. -1.
        -11    1    3    3    0    0  0.15904487757E+02 -0.15700609588E+02  0.32894056977E+02  0.39767836966E+02  0.51100000000E-03 0.  1.
         12    1    3    3    0    0 -0.10717840083E+02  0.24034547129E+02 -0.27331072633E+02  0.37940994755E+02  0.00000000000E+00 0. -1.
</event>
<event>
 7    1  0.1756449E-015  0.9000775E+02  0.7816164E-02  0.1186339E+00
        -11   -1    0    0    0    0  0.00000000000E+00  0.00000000000E+00  0.45593999997E+02  0.45594000000E+02  0.51100000000E-03 0.  1.
         11   -1    0    0    0    0 -0.00000000000E+00 -0.00000000000E+00 -0.45593999997E+02  0.45594000000E+02  0.51100000000E-03 0. -1.
    9900012    2    1    2    0    0 -0.70289445843E+00  0.78646841813E+00  0.52952822472E+00  0.90007748614E+02  0.90000010096E+02 0.  0.
        -12    1    1    2    0    0  0.70289445843E+00 -0.78646841813E+00 -0.52952822472E+00  0.11802513856E+01  0.00000000000E+00 0.  1.
         11    1    3    3    0    0  0.26419258032E+02  0.58985157950E+01  0.32013344399E+02  0.41924025373E+02  0.51100000000E-03 0. -1.
        -11    1    3    3    0    0 -0.16621001414E+02 -0.10753252355E+02 -0.72595253812E+01  0.21085322697E+02  0.51100000000E-03 0.  1.
        -12    1    3    3    0    0 -0.10501151076E+02  0.56412049780E+01 -0.24224290794E+02  0.26998400545E+02  0.00000000000E+00 0.  1.
</event>
<event>
 7    1  0.1756449E-015  0.9000772E+02  0.7816164E-02  0.1186339E+00
        -11   -1    0    0    0    0  0.00000000000E+00  0.00000000000E+00  0.45593999997E+02  0.45594000000E+02  0.51100000000E-03 0.  1.
         11   -1    0    0    0    0 -0.00000000000E+00 -0.00000000000E+00 -0.45593999997E+02  0.45594000000E+02  0.51100000000E-03 0. -1.
    9900012    2    1    2    0    0 -0.27228773579E+00  0.59709936527E+00 -0.98101040796E+00  0.90007724742E+02  0.89999985909E+02 0.  0.
        -12    1    1    2    0    0  0.27228773579E+00 -0.59709936527E+00  0.98101040796E+00  0.11802752576E+01  0.00000000000E+00 0.  1.
         11    1    3    3    0    0  0.17904986986E+02  0.38372459572E+00 -0.33720752788E+02  0.38181474204E+02  0.51100000000E-03 0. -1.
        -11    1    3    3    0    0  0.69737475435E+01  0.27770923972E+01 -0.29705093157E+01  0.80727518752E+01  0.51100000000E-03 0.  1.
        -12    1    3    3    0    0 -0.25151022265E+02 -0.25637176276E+01  0.35710251696E+02  0.43753498663E+02  0.00000000000E+00 0.  1.
</event>
<event>
 7    1  0.1756449E-015  0.9000840E+02  0.7816164E-02  0.1186338E+00
        -11   -1    0    0    0    0  0.00000000000E+00  0.00000000000E+00  0.45593999997E+02  0.45594000000E+02  0.51100000000E-03 0.  1.
         11   -1    0    0    0    0 -0.00000000000E+00 -0.00000000000E+00 -0.45593999997E+02  0.45594000000E+02  0.51100000000E-03 0. -1.
    9900012    2    1    2    0    0  0.79058528334E+00  0.99845362178E-01 -0.86975117282E+00  0.90008397826E+02  0.90000667875E+02 0.  0.
        -12    1    1    2    0    0 -0.79058528334E+00 -0.99845362178E-01  0.86975117282E+00  0.11796021741E+01  0.00000000000E+00 0.  1.
         11    1    3    3    0    0 -0.75374216850E+01 -0.69879839577E+01  0.25196552597E+01  0.10582689088E+02  0.51100000000E-03 0. -1.
        -11    1    3    3    0    0 -0.26952773007E+02  0.25633903298E+02  0.78449004776E+01  0.38014358272E+02  0.51100000000E-03 0.  1.
         12    1    3    3    0    0  0.35280779975E+02 -0.18546073978E+02 -0.11234306910E+02  0.41411350466E+02  0.00000000000E+00 0. -1.
</event>
<event>
 7    1  0.1756449E-015  0.9000781E+02  0.7816164E-02  0.1186339E+00
        -11   -1    0    0    0    0  0.00000000000E+00  0.00000000000E+00  0.45593999997E+02  0.45594000000E+02  0.51100000000E-03 0.  1.
         11   -1    0    0    0    0 -0.00000000000E+00 -0.00000000000E+00 -0.45593999997E+02  0.45594000000E+02  0.51100000000E-03 0. -1.
    9900012    2    1    2    0    0  0.21327626352E+00  0.10802927095E+01 -0.42465539811E+00  0.90007808783E+02  0.90000071058E+02 0.  0.
        -12    1    1    2    0    0 -0.21327626352E+00 -0.10802927095E+01  0.42465539811E+00  0.11801912175E+01  0.00000000000E+00 0.  1.
         11    1    3    3    0    0  0.39010628835E+02  0.12554890256E+02 -0.33987671969E+01  0.41121843954E+02  0.51100000000E-03 0. -1.
        -11    1    3    3    0    0  0.96528593840E+00 -0.88920693539E+01  0.80755450350E+00  0.89806914475E+01  0.51100000000E-03 0.  1.
        -12    1    3    3    0    0 -0.39762638510E+02 -0.25825281922E+01  0.21665572953E+01  0.39905273381E+02  0.00000000000E+00 0.  1.
</event>
<event>
 7    1  0.1756449E-015  0.9000771E+02  0.7816164E-02  0.1186339E+00
        -11   -1    0    0    0    0  0.00000000000E+00  0.00000000000E+00  0.45593999997E+02  0.45594000000E+02  0.51100000000E-03 0.  1.
         11   -1    0    0    0    0 -0.00000000000E+00 -0.00000000000E+00 -0.45593999997E+02  0.45594000000E+02  0.51100000000E-03 0. -1.
    9900012    2    1    2    0    0 -0.17424083875E+00 -0.10364333038E+01  0.53714813405E+00  0.90007711060E+02  0.89999972046E+02 0.  0.
        -12    1    1    2    0    0  0.17424083875E+00  0.10364333038E+01 -0.53714813405E+00  0.11802889397E+01  0.00000000000E+00 0.  1.
         11    1    3    3    0    0  0.34562715272E-01  0.77023982479E+00  0.87349264459E+01  0.87688884270E+01  0.51100000000E-03 0. -1.
        -11    1    3    3    0    0  0.36856384826E+02  0.11580489990E+02  0.65050908344E+01  0.39176741287E+02  0.51100000000E-03 0.  1.
         12    1    3    3    0    0 -0.37065188380E+02 -0.13387163118E+02 -0.14702869146E+02  0.42062081346E+02  0.00000000000E+00 0. -1.
</event>
<event>
 7    1  0.1756449E-015  0.9000776E+02  0.7816164E-02  0.1186339E+00
        -11   -1    0    0    0    0  0.00000000000E+00  0.00000000000E+00  0.45593999997E+02  0.45594000000E+02  0.51100000000E-03 0.  1.
         11   -1    0    0    0    0 -0.00000000000E+00 -0.00000000000E+00 -0.45593999997E+02  0.45594000000E+02  0.51100000000E-03 0. -1.
    9900012    2    1    2    0    0 -0.94098289347E+00 -0.60070595399E+00  0.38296673788E+00  0.90007762748E+02  0.90000024416E+02 0.  0.
        -12    1    1    2    0    0  0.94098289347E+00  0.60070595399E+00 -0.38296673788E+00  0.11802372521E+01  0.00000000000E+00 0.  1.
         11    1    3    3    0    0  0.32164087241E+02  0.54891381527E+01 -0.17213915045E+02  0.36891435552E+02  0.51100000000E-03 0. -1.
        -11    1    3    3    0    0  0.70772445336E+01  0.27582197419E+01  0.76619617857E+01  0.10788921401E+02  0.51100000000E-03 0.  1.
        -12    1    3    3    0    0 -0.40182314668E+02 -0.88480638486E+01  0.99349199972E+01  0.42327405794E+02  0.00000000000E+00 0.  1.
</event>
<event>
 7    1  0.1756449E-015  0.9000778E+02  0.7816164E-02  0.1186339E+00
        -11   -1    0    0    0    0  0.00000000000E+00  0.00000000000E+00  0.45593999997E+02  0.45594000000E+02  0.51100000000E-03 0. -1.
         11   -1    0    0    0    0 -0.00000000000E+00 -0.00000000000E+00 -0.45593999997E+02  0.45594000000E+02  0.51100000000E-03 0.  1.
    9900012    2    1    2    0    0 -0.93934187583E-01  0.11654604746E+01  0.16064626486E+00  0.90007775881E+02  0.90000037722E+02 0.  0.
        -12    1    1    2    0    0  0.93934187583E-01 -0.11654604746E+01 -0.16064626486E+00  0.11802241193E+01  0.00000000000E+00 0.  1.
         11    1    3    3    0    0 -0.50149342101E+00 -0.19010104642E+01 -0.99847535232E+01  0.10176474813E+02  0.51100000000E-03 0. -1.
        -11    1    3    3    0    0  0.49342363015E+01 -0.33277449228E+02 -0.13486784203E+02  0.36244015553E+02  0.51100000000E-03 0.  1.
         12    1    3    3    0    0 -0.45266770681E+01  0.36343920167E+02  0.23632183991E+02  0.43587285515E+02  0.00000000000E+00 0. -1.
</event>
<event>
 7    1  0.1756449E-015  0.9000778E+02  0.7816164E-02  0.1186339E+00
        -11   -1    0    0    0    0  0.00000000000E+00  0.00000000000E+00  0.45593999997E+02  0.45594000000E+02  0.51100000000E-03 0. -1.
         11   -1    0    0    0    0 -0.00000000000E+00 -0.00000000000E+00 -0.45593999997E+02  0.45594000000E+02  0.51100000000E-03 0.  1.
    9900012    2    1    2    0    0  0.87213684413E+00 -0.48917037825E+00  0.62691057368E+00  0.90007776631E+02  0.90000038482E+02 0.  0.
        -12    1    1    2    0    0 -0.87213684413E+00  0.48917037825E+00 -0.62691057368E+00  0.11802233692E+01  0.00000000000E+00 0.  1.
         11    1    3    3    0    0  0.70922109497E+01  0.63555348207E+01 -0.15732636012E+01  0.96523280939E+01  0.51100000000E-03 0. -1.
        -11    1    3    3    0    0  0.93916404448E+01  0.27787589159E+02 -0.20789574942E+02  0.35952182799E+02  0.51100000000E-03 0.  1.
         12    1    3    3    0    0 -0.15611714550E+02 -0.34632294358E+02  0.22989749117E+02  0.44403265737E+02  0.00000000000E+00 0. -1.
</event>
<event>
 7    1  0.1756449E-015  0.9000776E+02  0.7816164E-02  0.1186339E+00
        -11   -1    0    0    0    0  0.00000000000E+00  0.00000000000E+00  0.45593999997E+02  0.45594000000E+02  0.51100000000E-03 0.  1.
         11   -1    0    0    0    0 -0.00000000000E+00 -0.00000000000E+00 -0.45593999997E+02  0.45594000000E+02  0.51100000000E-03 0. -1.
    9900012    2    1    2    0    0  0.60977956269E+00  0.16616500989E+00 -0.99675660734E+00  0.90007760338E+02  0.90000021974E+02 0.  0.
        -12    1    1    2    0    0 -0.60977956269E+00 -0.16616500989E+00  0.99675660734E+00  0.11802396620E+01  0.00000000000E+00 0.  1.
         11    1    3    3    0    0  0.33958727134E+02 -0.14137082716E+02 -0.14330546748E+01  0.36811763096E+02  0.51100000000E-03 0. -1.
        -11    1    3    3    0    0  0.76333802103E+01  0.88257436227E+01 -0.17104286469E+01  0.11793549523E+02  0.51100000000E-03 0.  1.
        -12    1    3    3    0    0 -0.40982327781E+02  0.54775041027E+01  0.21467267144E+01  0.41402447719E+02  0.00000000000E+00 0.  1.
</event>
<event>
 7    1  0.1756449E-015  0.9000790E+02  0.7816164E-02  0.1186339E+00
        -11   -1    0    0    0    0  0.00000000000E+00  0.00000000000E+00  0.45593999997E+02  0.45594000000E+02  0.51100000000E-03 0.  1.
         11   -1    0    0    0    0 -0.00000000000E+00 -0.00000000000E+00 -0.45593999997E+02  0.45594000000E+02  0.51100000000E-03 0. -1.
    9900012    2    1    2    0    0 -0.57279517564E-01  0.11265826649E+01  0.34665821293E+00  0.90007897733E+02  0.90000161183E+02 0.  0.
        -12    1    1    2    0    0  0.57279517564E-01 -0.11265826649E+01 -0.34665821293E+00  0.11801022670E+01  0.00000000000E+00 0.  1.
         11    1    3    3    0    0  0.20232688085E+02 -0.22314165574E+02 -0.15649133992E+02  0.33943763012E+02  0.51100000000E-03 0. -1.
        -11    1    3    3    0    0  0.29240946217E+01 -0.11450008695E+02  0.31046394958E+01  0.12218502982E+02  0.51100000000E-03 0.  1.
        -12    1    3    3    0    0 -0.23214062225E+02  0.34890756934E+02  0.12891152709E+02  0.43845631739E+02  0.00000000000E+00 0.  1.
</event>
<event>
 7    1  0.1843796E-015  0.9000787E+02  0.7816164E-02  0.1186339E+00
        -11   -1    0    0    0    0  0.00000000000E+00  0.00000000000E+00  0.45593999997E+02  0.45594000000E+02  0.51100000000E-03 0. -1.
         11   -1    0    0    0    0 -0.00000000000E+00 -0.00000000000E+00 -0.45593999997E+02  0.45594000000E+02  0.51100000000E-03 0.  1.
    9900012    2    1    2    0    0  0.67742911754E+00  0.64359953714E+00  0.72081617875E+00  0.90007870119E+02  0.90000133204E+02 0.  0.
        -12    1    1    2    0    0 -0.67742911754E+00 -0.64359953714E+00 -0.72081617875E+00  0.11801298814E+01  0.00000000000E+00 0.  1.
         11    1    3    3    0    0 -0.12596350813E+01  0.61654552389E+01  0.78457472447E+01  0.10057597572E+02  0.51100000000E-03 0. -1.
        -11    1    3    3    0    0 -0.16255747609E+02  0.33089794280E+02 -0.14930757621E+01  0.36897331764E+02  0.51100000000E-03 0.  1.
         12    1    3    3    0    0  0.18192811807E+02 -0.38611649982E+02 -0.56318553039E+01  0.43052940782E+02  0.00000000000E+00 0. -1.
</event>
<event>
 7    1  0.1756449E-015  0.9000772E+02  0.7816164E-02  0.1186339E+00
        -11   -1    0    0    0    0  0.00000000000E+00  0.00000000000E+00  0.45593999997E+02  0.45594000000E+02  0.51100000000E-03 0.  1.
         11   -1    0    0    0    0 -0.00000000000E+00 -0.00000000000E+00 -0.45593999997E+02  0.45594000000E+02  0.51100000000E-03 0. -1.
    9900012    2    1    2    0    0 -0.10787125470E+01 -0.13574569592E+00 -0.45936861759E+00  0.90007717331E+02  0.89999978399E+02 0.  0.
        -12    1    1    2    0    0  0.10787125470E+01  0.13574569592E+00  0.45936861759E+00  0.11802826695E+01  0.00000000000E+00 0.  1.
         11    1    3    3    0    0 -0.20060164207E+01  0.64474684194E+01  0.75933912417E+01  0.10161374991E+02  0.51100000000E-03 0. -1.
        -11    1    3    3    0    0  0.26882903461E+02 -0.20240778906E+02  0.20095761374E+02  0.39194632983E+02  0.51100000000E-03 0.  1.
         12    1    3    3    0    0 -0.25955599588E+02  0.13657564791E+02 -0.28148521233E+02  0.40651709356E+02  0.00000000000E+00 0. -1.
</event>
<event>
 7    1  0.1756449E-015  0.9000767E+02  0.7816164E-02  0.1186339E+00
        -11   -1    0    0    0    0  0.00000000000E+00  0.00000000000E+00  0.45593999997E+02  0.45594000000E+02  0.51100000000E-03 0.  1.
         11   -1    0    0    0    0 -0.00000000000E+00 -0.00000000000E+00 -0.45593999997E+02  0.45594000000E+02  0.51100000000E-03 0. -1.
    9900012    2    1    2    0    0  0.28500996391E+00 -0.49682914568E+00 -0.10320419636E+01  0.90007669329E+02  0.89999929764E+02 0.  0.
        -12    1    1    2    0    0 -0.28500996391E+00  0.49682914568E+00  0.10320419636E+01  0.11803306715E+01  0.00000000000E+00 0.  1.
         11    1    3    3    0    0 -0.57580077699E+01 -0.30633796684E+02 -0.26070484362E+02  0.40635628553E+02  0.51100000000E-03 0. -1.
        -11    1    3    3    0    0 -0.67194984655E+01 -0.26070531774E+01  0.61477051668E+01  0.94732605251E+01  0.51100000000E-03 0.  1.
        -12    1    3    3    0    0  0.12762516199E+02  0.32744020715E+02  0.18890737232E+02  0.39898780251E+02  0.00000000000E+00 0.  1.
</event>
<event>
 7    1  0.1756449E-015  0.9000771E+02  0.7816164E-02  0.1186339E+00
        -11   -1    0    0    0    0  0.00000000000E+00  0.00000000000E+00  0.45593999997E+02  0.45594000000E+02  0.51100000000E-03 0.  1.
         11   -1    0    0    0    0 -0.00000000000E+00 -0.00000000000E+00 -0.45593999997E+02  0.45594000000E+02  0.51100000000E-03 0. -1.
    9900012    2    1    2    0    0 -0.48879173413E+00 -0.95605233088E+00 -0.49004055822E+00  0.90007706322E+02  0.89999967245E+02 0.  0.
        -12    1    1    2    0    0  0.48879173413E+00  0.95605233088E+00  0.49004055822E+00  0.11802936785E+01  0.00000000000E+00 0.  1.
         11    1    3    3    0    0  0.25215684659E+02 -0.27049733916E+02 -0.20343153411E+02  0.42206193250E+02  0.51100000000E-03 0. -1.
        -11    1    3    3    0    0 -0.30586347189E+01 -0.34794793103E+01  0.70082558264E+01  0.84010518748E+01  0.51100000000E-03 0.  1.
        -12    1    3    3    0    0 -0.22645841674E+02  0.29573160895E+02  0.12844857027E+02  0.39400461196E+02  0.00000000000E+00 0.  1.
</event>
<event>
 7    1  0.1756449E-015  0.9000796E+02  0.7816164E-02  0.1186339E+00
        -11   -1    0    0    0    0  0.00000000000E+00  0.00000000000E+00  0.45593999997E+02  0.45594000000E+02  0.51100000000E-03 0. -1.
         11   -1    0    0    0    0 -0.00000000000E+00 -0.00000000000E+00 -0.45593999997E+02  0.45594000000E+02  0.51100000000E-03 0.  1.
    9900012    2    1    2    0    0  0.43168533734E+00 -0.84425520514E+00  0.70240774995E+00  0.90007959438E+02  0.90000223702E+02 0.  0.
        -12    1    1    2    0    0 -0.43168533734E+00  0.84425520514E+00 -0.70240774995E+00  0.11800405625E+01  0.00000000000E+00 0.  1.
         11    1    3    3    0    0  0.76241624719E+01 -0.10117877577E+00  0.22992097619E+01  0.79639472834E+01  0.51100000000E-03 0. -1.
        -11    1    3    3    0    0  0.62476000463E+01 -0.40023512756E+02 -0.12013121708E+01  0.40526006845E+02  0.51100000000E-03 0.  1.
         12    1    3    3    0    0 -0.13440077181E+02  0.39280436326E+02 -0.39548984120E+00  0.41518005309E+02  0.00000000000E+00 0. -1.
</event>
<event>
 7    1  0.1756449E-015  0.9000773E+02  0.7816164E-02  0.1186339E+00
        -11   -1    0    0    0    0  0.00000000000E+00  0.00000000000E+00  0.45593999997E+02  0.45594000000E+02  0.51100000000E-03 0.  1.
         11   -1    0    0    0    0 -0.00000000000E+00 -0.00000000000E+00 -0.45593999997E+02  0.45594000000E+02  0.51100000000E-03 0. -1.
    9900012    2    1    2    0    0  0.83136901630E+00 -0.81437991335E+00  0.19660805243E+00  0.90007727230E+02  0.89999988430E+02 0.  0.
        -12    1    1    2    0    0 -0.83136901630E+00  0.81437991335E+00 -0.19660805243E+00  0.11802727697E+01  0.00000000000E+00 0.  1.
         11    1    3    3    0    0 -0.58989158571E+01 -0.86278971334E+01  0.32550903566E+01  0.10946845697E+02  0.51100000000E-03 0. -1.
        -11    1    3    3    0    0 -0.28317223461E+02  0.17206855012E+02  0.17379348341E+02  0.37416343394E+02  0.51100000000E-03 0.  1.
         12    1    3    3    0    0  0.35047508334E+02 -0.93933377924E+01 -0.20437830645E+02  0.41644538139E+02  0.00000000000E+00 0. -1.
</event>
<event>
 7    1  0.1756449E-015  0.9000776E+02  0.7816164E-02  0.1186339E+00
        -11   -1    0    0    0    0  0.00000000000E+00  0.00000000000E+00  0.45593999997E+02  0.45594000000E+02  0.51100000000E-03 0. -1.
         11   -1    0    0    0    0 -0.00000000000E+00 -0.00000000000E+00 -0.45593999997E+02  0.45594000000E+02  0.51100000000E-03 0.  1.
    9900012    2    1    2    0    0  0.93121468920E+00 -0.59427313731E+00  0.41551938083E+00  0.90007755231E+02  0.90000016800E+02 0.  0.
        -12    1    1    2    0    0 -0.93121468920E+00  0.59427313731E+00 -0.41551938083E+00  0.11802447691E+01  0.00000000000E+00 0.  1.
         11    1    3    3    0    0 -0.35495852060E+02  0.13774975013E+02 -0.77691935247E+00  0.38082923391E+02  0.51100000000E-03 0. -1.
        -11    1    3    3    0    0 -0.96836709079E-02  0.85042568970E+01  0.25617500664E+01  0.88817252157E+01  0.51100000000E-03 0.  1.
        -12    1    3    3    0    0  0.36436750420E+02 -0.22873505048E+02 -0.13693113330E+01  0.43043106624E+02  0.00000000000E+00 0.  1.
</event>
<event>
 7    1  0.1756449E-015  0.9000774E+02  0.7816164E-02  0.1186339E+00
        -11   -1    0    0    0    0  0.00000000000E+00  0.00000000000E+00  0.45593999997E+02  0.45594000000E+02  0.51100000000E-03 0.  1.
         11   -1    0    0    0    0 -0.00000000000E+00 -0.00000000000E+00 -0.45593999997E+02  0.45594000000E+02  0.51100000000E-03 0. -1.
    9900012    2    1    2    0    0  0.47093829504E+00  0.93976772679E+00 -0.53672871355E+00  0.90007735636E+02  0.89999996946E+02 0.  0.
        -12    1    1    2    0    0 -0.47093829504E+00 -0.93976772679E+00  0.53672871355E+00  0.11802643645E+01  0.00000000000E+00 0.  1.
         11    1    3    3    0    0 -0.37035262336E+01 -0.76684719054E+01 -0.88918580155E+01  0.12312055359E+02  0.51100000000E-03 0. -1.
        -11    1    3    3    0    0 -0.37636988652E+01  0.47886204745E+01  0.42243864331E+02  0.42680679342E+02  0.51100000000E-03 0.  1.
         12    1    3    3    0    0  0.79381633938E+01  0.38196191577E+01 -0.33888735029E+02  0.35015000935E+02  0.00000000000E+00 0. -1.
</event>
<event>
 7    1  0.1756449E-015  0.9000770E+02  0.7816164E-02  0.1186339E+00
        -11   -1    0    0    0    0  0.00000000000E+00  0.00000000000E+00  0.45593999997E+02  0.45594000000E+02  0.51100000000E-03 0. -1.
         11   -1    0    0    0    0 -0.00000000000E+00 -0.00000000000E+00 -0.45593999997E+02  0.45594000000E+02  0.51100000000E-03 0.  1.
    9900012    2    1    2    0    0  0.22279800640E+00 -0.74176588233E+00  0.89064559240E+00  0.90007701247E+02  0.89999962103E+02 0.  0.
        -12    1    1    2    0    0 -0.22279800640E+00  0.74176588233E+00 -0.89064559240E+00  0.11802987533E+01  0.00000000000E+00 0.  1.
         11    1    3    3    0    0  0.91199203578E+01  0.37180808001E+01  0.11567542543E+00  0.98493884700E+01  0.51100000000E-03 0. -1.
        -11    1    3    3    0    0  0.26218184893E+02 -0.24957772539E+02  0.11725103294E+02  0.38049463554E+02  0.51100000000E-03 0.  1.
         12    1    3    3    0    0 -0.35115307245E+02  0.20497925857E+02 -0.10950133127E+02  0.42108849222E+02  0.00000000000E+00 0. -1.
</event>
<event>
 7    1  0.1756449E-015  0.9000772E+02  0.7816164E-02  0.1186339E+00
        -11   -1    0    0    0    0  0.00000000000E+00  0.00000000000E+00  0.45593999997E+02  0.45594000000E+02  0.51100000000E-03 0. -1.
         11   -1    0    0    0    0 -0.00000000000E+00 -0.00000000000E+00 -0.45593999997E+02  0.45594000000E+02  0.51100000000E-03 0.  1.
    9900012    2    1    2    0    0 -0.71227832939E+00  0.94038933324E+00 -0.37147994940E-01  0.90007723554E+02  0.89999984704E+02 0.  0.
        -12    1    1    2    0    0  0.71227832939E+00 -0.94038933324E+00  0.37147994940E-01  0.11802764465E+01  0.00000000000E+00 0.  1.
         11    1    3    3    0    0 -0.76628400408E+00 -0.14238602590E+02  0.63961256109E+01  0.15628033081E+02  0.51100000000E-03 0. -1.
        -11    1    3    3    0    0 -0.20312203285E+02 -0.19316697648E+02 -0.17215067536E+02  0.32894968626E+02  0.51100000000E-03 0.  1.
         12    1    3    3    0    0  0.20366208960E+02  0.34495689571E+02  0.10781793931E+02  0.41484721847E+02  0.00000000000E+00 0. -1.
</event>
<event>
 7    1  0.1756449E-015  0.9000779E+02  0.7816164E-02  0.1186339E+00
        -11   -1    0    0    0    0  0.00000000000E+00  0.00000000000E+00  0.45593999997E+02  0.45594000000E+02  0.51100000000E-03 0. -1.
         11   -1    0    0    0    0 -0.00000000000E+00 -0.00000000000E+00 -0.45593999997E+02  0.45594000000E+02  0.51100000000E-03 0.  1.
    9900012    2    1    2    0    0  0.29954373507E+00  0.58583963659E+00 -0.97977141003E+00  0.90007793855E+02  0.90000055934E+02 0.  0.
        -12    1    1    2    0    0 -0.29954373507E+00 -0.58583963659E+00  0.97977141003E+00  0.11802061451E+01  0.00000000000E+00 0.  1.
         11    1    3    3    0    0  0.20959984744E+01 -0.91229708404E+01  0.96845711878E+01  0.13468954151E+02  0.51100000000E-03 0. -1.
        -11    1    3    3    0    0 -0.45767173533E+01  0.40913354518E+02  0.50732511653E+01  0.41479956573E+02  0.51100000000E-03 0.  1.
         12    1    3    3    0    0  0.27802626140E+01 -0.31204544041E+02 -0.15737593763E+02  0.35058883132E+02  0.00000000000E+00 0. -1.
</event>
<event>
 7    1  0.2515687E-015  0.9000771E+02  0.7816164E-02  0.1186339E+00
        -11   -1    0    0    0    0  0.00000000000E+00  0.00000000000E+00  0.45593999997E+02  0.45594000000E+02  0.51100000000E-03 0.  1.
         11   -1    0    0    0    0 -0.00000000000E+00 -0.00000000000E+00 -0.45593999997E+02  0.45594000000E+02  0.51100000000E-03 0. -1.
    9900012    2    1    2    0    0 -0.58873049925E+00 -0.72688803196E+00  0.71979402357E+00  0.90007714760E+02  0.89999975795E+02 0.  0.
        -12    1    1    2    0    0  0.58873049925E+00  0.72688803196E+00 -0.71979402357E+00  0.11802852401E+01  0.00000000000E+00 0.  1.
         11    1    3    3    0    0  0.48080706643E+01 -0.42249326222E+01  0.73276309149E+01  0.97294282597E+01  0.51100000000E-03 0. -1.
        -11    1    3    3    0    0  0.36826379527E+02  0.75121754851E+01 -0.36545989193E+01  0.37762032561E+02  0.51100000000E-03 0.  1.
         12    1    3    3    0    0 -0.42223180691E+02 -0.40141308949E+01 -0.29532379721E+01  0.42516253939E+02  0.00000000000E+00 0. -1.
</event>
<event>
 7    1  0.1756449E-015  0.9000786E+02  0.7816164E-02  0.1186339E+00
        -11   -1    0    0    0    0  0.00000000000E+00  0.00000000000E+00  0.45593999997E+02  0.45594000000E+02  0.51100000000E-03 0.  1.
         11   -1    0    0    0    0 -0.00000000000E+00 -0.00000000000E+00 -0.45593999997E+02  0.45594000000E+02  0.51100000000E-03 0. -1.
    9900012    2    1    2    0    0  0.10811853796E+01 -0.45360256236E+00 -0.13421697581E+00  0.90007859624E+02  0.90000122571E+02 0.  0.
        -12    1    1    2    0    0 -0.10811853796E+01  0.45360256236E+00  0.13421697581E+00  0.11801403756E+01  0.00000000000E+00 0.  1.
         11    1    3    3    0    0  0.23753829271E+02 -0.94674865093E+00 -0.24520206375E+02  0.34152324356E+02  0.51100000000E-03 0. -1.
        -11    1    3    3    0    0  0.49522292961E+01 -0.16260559157E+00 -0.10346572428E+02  0.11471816632E+02  0.51100000000E-03 0.  1.
        -12    1    3    3    0    0 -0.27624873187E+02  0.65575168014E+00  0.34732561827E+02  0.44383718636E+02  0.00000000000E+00 0.  1.
</event>
<event>
 7    1  0.1756449E-015  0.9000771E+02  0.7816164E-02  0.1186339E+00
        -11   -1    0    0    0    0  0.00000000000E+00  0.00000000000E+00  0.45593999997E+02  0.45594000000E+02  0.51100000000E-03 0.  1.
         11   -1    0    0    0    0 -0.00000000000E+00 -0.00000000000E+00 -0.45593999997E+02  0.45594000000E+02  0.51100000000E-03 0. -1.
    9900012    2    1    2    0    0  0.11304707921E+01  0.18796010278E+00 -0.28247497174E+00  0.90007709645E+02  0.89999970612E+02 0.  0.
        -12    1    1    2    0    0 -0.11304707921E+01 -0.18796010278E+00  0.28247497174E+00  0.11802903549E+01  0.00000000000E+00 0.  1.
         11    1    3    3    0    0 -0.96937659967E+01 -0.33986237960E+02  0.52973603747E+01  0.35736472924E+02  0.51100000000E-03 0. -1.
        -11    1    3    3    0    0  0.76624355366E+01 -0.81332130296E+01 -0.38209744849E+01  0.11809399596E+02  0.51100000000E-03 0.  1.
        -12    1    3    3    0    0  0.31618012522E+01  0.42307411092E+02 -0.17588608615E+01  0.42461837125E+02  0.00000000000E+00 0.  1.
</event>
<event>
 7    1  0.1756449E-015  0.9000776E+02  0.7816164E-02  0.1186339E+00
        -11   -1    0    0    0    0  0.00000000000E+00  0.00000000000E+00  0.45593999997E+02  0.45594000000E+02  0.51100000000E-03 0.  1.
         11   -1    0    0    0    0 -0.00000000000E+00 -0.00000000000E+00 -0.45593999997E+02  0.45594000000E+02  0.51100000000E-03 0. -1.
    9900012    2    1    2    0    0  0.93545221904E+00  0.40317442300E+00  0.59610940226E+00  0.90007759817E+02  0.90000021447E+02 0.  0.
        -12    1    1    2    0    0 -0.93545221904E+00 -0.40317442300E+00 -0.59610940226E+00  0.11802401827E+01  0.00000000000E+00 0.  1.
         11    1    3    3    0    0 -0.36001964031E+02  0.18760592920E+02 -0.37853139663E+01  0.40772905990E+02  0.51100000000E-03 0. -1.
        -11    1    3    3    0    0 -0.10342379080E+01 -0.10124351167E+02  0.12820646222E+01  0.10257476521E+02  0.51100000000E-03 0.  1.
        -12    1    3    3    0    0  0.37971654158E+02 -0.82330673291E+01  0.30993587463E+01  0.38977377307E+02  0.00000000000E+00 0.  1.
</event>
<event>
 7    1  0.1756449E-015  0.9000750E+02  0.7816164E-02  0.1186340E+00
        -11   -1    0    0    0    0  0.00000000000E+00  0.00000000000E+00  0.45593999997E+02  0.45594000000E+02  0.51100000000E-03 0. -1.
         11   -1    0    0    0    0 -0.00000000000E+00 -0.00000000000E+00 -0.45593999997E+02  0.45594000000E+02  0.51100000000E-03 0.  1.
    9900012    2    1    2    0    0 -0.79550145837E+00 -0.11139508301E+00  0.86507211094E+00  0.90007499601E+02  0.89999757795E+02 0.  0.
        -12    1    1    2    0    0  0.79550145837E+00  0.11139508301E+00 -0.86507211094E+00  0.11805003989E+01  0.00000000000E+00 0.  1.
         11    1    3    3    0    0  0.35370142941E+00 -0.11330736786E+01  0.71655794760E+01  0.72632286313E+01  0.51100000000E-03 0. -1.
        -11    1    3    3    0    0  0.33414351178E+02  0.98282905601E+01 -0.24614321527E+02  0.42649489850E+02  0.51100000000E-03 0.  1.
         12    1    3    3    0    0 -0.34563554065E+02 -0.88066119645E+01  0.18313814161E+02  0.40094781120E+02  0.00000000000E+00 0. -1.
</event>
<event>
 7    1  0.1756449E-015  0.9000767E+02  0.7816164E-02  0.1186339E+00
        -11   -1    0    0    0    0  0.00000000000E+00  0.00000000000E+00  0.45593999997E+02  0.45594000000E+02  0.51100000000E-03 0. -1.
         11   -1    0    0    0    0 -0.00000000000E+00 -0.00000000000E+00 -0.45593999997E+02  0.45594000000E+02  0.51100000000E-03 0.  1.
    9900012    2    1    2    0    0 -0.93630982819E+00  0.66438377387E+00  0.27402272378E+00  0.90007673627E+02  0.89999934119E+02 0.  0.
        -12    1    1    2    0    0  0.93630982819E+00 -0.66438377387E+00 -0.27402272378E+00  0.11803263729E+01  0.00000000000E+00 0.  1.
         11    1    3    3    0    0 -0.34003721563E+02 -0.23532690546E+02  0.52530436561E+01  0.41684950191E+02  0.51100000000E-03 0. -1.
        -11    1    3    3    0    0 -0.32471951237E+01  0.69851573429E+01 -0.23332604482E+01  0.80486523006E+01  0.51100000000E-03 0.  1.
        -12    1    3    3    0    0  0.36314606858E+02  0.17211916977E+02 -0.26457604842E+01  0.40274071136E+02  0.00000000000E+00 0.  1.
</event>
<event>
 7    1  0.1756449E-015  0.9000768E+02  0.7816164E-02  0.1186339E+00
        -11   -1    0    0    0    0  0.00000000000E+00  0.00000000000E+00  0.45593999997E+02  0.45594000000E+02  0.51100000000E-03 0.  1.
         11   -1    0    0    0    0 -0.00000000000E+00 -0.00000000000E+00 -0.45593999997E+02  0.45594000000E+02  0.51100000000E-03 0. -1.
    9900012    2    1    2    0    0  0.41911531273E+00  0.50906002899E+00 -0.97896165175E+00  0.90007675606E+02  0.89999936124E+02 0.  0.
        -12    1    1    2    0    0 -0.41911531273E+00 -0.50906002899E+00  0.97896165175E+00  0.11803243936E+01  0.00000000000E+00 0.  1.
         11    1    3    3    0    0  0.28983217012E+02 -0.25994730285E+01 -0.29733858427E+02  0.41603923680E+02  0.51100000000E-03 0. -1.
        -11    1    3    3    0    0 -0.68174573226E+01  0.54768356278E+01 -0.35094386541E+01  0.94228240336E+01  0.51100000000E-03 0.  1.
        -12    1    3    3    0    0 -0.21746644377E+02 -0.23683025703E+01  0.32264335429E+02  0.38980927893E+02  0.00000000000E+00 0.  1.
</event>
<event>
 7    1  0.1756449E-015  0.9000774E+02  0.7816164E-02  0.1186339E+00
        -11   -1    0    0    0    0  0.00000000000E+00  0.00000000000E+00  0.45593999997E+02  0.45594000000E+02  0.51100000000E-03 0.  1.
         11   -1    0    0    0    0 -0.00000000000E+00 -0.00000000000E+00 -0.45593999997E+02  0.45594000000E+02  0.51100000000E-03 0. -1.
    9900012    2    1    2    0    0 -0.26235534272E-01  0.66641331410E+00  0.97376903019E+00  0.90007736838E+02  0.89999998164E+02 0.  0.
        -12    1    1    2    0    0  0.26235534272E-01 -0.66641331410E+00 -0.97376903019E+00  0.11802631624E+01  0.00000000000E+00 0.  1.
         11    1    3    3    0    0  0.37767220890E+02 -0.75021994347E+01 -0.57162757256E+01  0.38927134219E+02  0.51100000000E-03 0. -1.
        -11    1    3    3    0    0  0.55928469573E+01  0.43300044699E+01  0.13167549255E+01  0.71946313034E+01  0.51100000000E-03 0.  1.
        -12    1    3    3    0    0 -0.43386303382E+02  0.38386082789E+01  0.53732898302E+01  0.43885971315E+02  0.00000000000E+00 0.  1.
</event>
<event>
 7    1  0.1756449E-015  0.9000772E+02  0.7816164E-02  0.1186339E+00
        -11   -1    0    0    0    0  0.00000000000E+00  0.00000000000E+00  0.45593999997E+02  0.45594000000E+02  0.51100000000E-03 0.  1.
         11   -1    0    0    0    0 -0.00000000000E+00 -0.00000000000E+00 -0.45593999997E+02  0.45594000000E+02  0.51100000000E-03 0. -1.
    9900012    2    1    2    0    0 -0.77084037110E+00  0.42886354224E+00 -0.78418645171E+00  0.90007717319E+02  0.89999978388E+02 0.  0.
        -12    1    1    2    0    0  0.77084037110E+00 -0.42886354224E+00  0.78418645171E+00  0.11802826808E+01  0.00000000000E+00 0.  1.
         11    1    3    3    0    0 -0.10863310927E+02  0.49036517765E+01 -0.35228844132E+02  0.37190439419E+02  0.51100000000E-03 0. -1.
        -11    1    3    3    0    0 -0.10965900016E+01 -0.47254289210E+01 -0.77613246825E+01  0.91526143373E+01  0.51100000000E-03 0.  1.
        -12    1    3    3    0    0  0.11189060558E+02  0.25064068667E+00  0.42205982362E+02  0.43664663563E+02  0.00000000000E+00 0.  1.
</event>
<event>
 7    1  0.1756449E-015  0.9000771E+02  0.7816164E-02  0.1186339E+00
        -11   -1    0    0    0    0  0.00000000000E+00  0.00000000000E+00  0.45593999997E+02  0.45594000000E+02  0.51100000000E-03 0. -1.
         11   -1    0    0    0    0 -0.00000000000E+00 -0.00000000000E+00 -0.45593999997E+02  0.45594000000E+02  0.51100000000E-03 0.  1.
    9900012    2    1    2    0    0  0.82397592441E+00  0.62869798253E+00  0.56469869323E+00  0.90007711014E+02  0.89999971999E+02 0.  0.
        -12    1    1    2    0    0 -0.82397592441E+00 -0.62869798253E+00 -0.56469869323E+00  0.11802889864E+01  0.00000000000E+00 0.  1.
         11    1    3    3    0    0  0.10909508330E+02  0.18171524817E+01 -0.19738942161E+01  0.11234574926E+02  0.51100000000E-03 0. -1.
        -11    1    3    3    0    0 -0.16909676996E+02  0.20368346425E+02 -0.29450410162E+02  0.39599663776E+02  0.51100000000E-03 0.  1.
         12    1    3    3    0    0  0.68241445906E+01 -0.21556800924E+02  0.31989003071E+02  0.39173472312E+02  0.00000000000E+00 0. -1.
</event>
<event>
 7    1  0.1756449E-015  0.9000787E+02  0.7816164E-02  0.1186339E+00
        -11   -1    0    0    0    0  0.00000000000E+00  0.00000000000E+00  0.45593999997E+02  0.45594000000E+02  0.51100000000E-03 0.  1.
         11   -1    0    0    0    0 -0.00000000000E+00 -0.00000000000E+00 -0.45593999997E+02  0.45594000000E+02  0.51100000000E-03 0. -1.
    9900012    2    1    2    0    0 -0.19698170656E+00  0.77848783827E+00 -0.86478438182E+00  0.90007874102E+02  0.90000137240E+02 0.  0.
        -12    1    1    2    0    0  0.19698170656E+00 -0.77848783827E+00  0.86478438182E+00  0.11801258976E+01  0.00000000000E+00 0.  1.
         11    1    3    3    0    0 -0.64289373845E+01 -0.85152663222E+01 -0.51231540761E+01  0.11835865172E+02  0.51100000000E-03 0. -1.
        -11    1    3    3    0    0  0.37902756382E+02 -0.51736908479E+01 -0.11511202080E+02  0.39948639426E+02  0.51100000000E-03 0.  1.
         12    1    3    3    0    0 -0.31670800705E+02  0.14467445008E+02  0.15769571774E+02  0.38223369504E+02  0.00000000000E+00 0. -1.
</event>
<event>
 7    1  0.1756449E-015  0.9000773E+02  0.7816164E-02  0.1186339E+00
        -11   -1    0    0    0    0  0.00000000000E+00  0.00000000000E+00  0.45593999997E+02  0.45594000000E+02  0.51100000000E-03 0.  1.
         11   -1    0    0    0    0 -0.00000000000E+00 -0.00000000000E+00 -0.45593999997E+02  0.45594000000E+02  0.51100000000E-03 0. -1.
    9900012    2    1    2    0    0  0.63320167922E+00  0.56209697056E+00 -0.82227042897E+00  0.90007734763E+02  0.89999996062E+02 0.  0.
        -12    1    1    2    0    0 -0.63320167923E+00 -0.56209697056E+00  0.82227042897E+00  0.11802652368E+01  0.00000000000E+00 0.  1.
         11    1    3    3    0    0  0.56391056189E+01  0.96150595967E+01 -0.19331190938E+01  0.11313082379E+02  0.51100000000E-03 0. -1.
        -11    1    3    3    0    0  0.33411345926E+02 -0.68183865238E+01  0.15698935805E+02  0.37540178703E+02  0.51100000000E-03 0.  1.
         12    1    3    3    0    0 -0.38417249866E+02 -0.22345761024E+01 -0.14588087140E+02  0.41154473681E+02  0.00000000000E+00 0. -1.
</event>
<event>
 7    1  0.1756449E-015  0.9000763E+02  0.7816164E-02  0.1186339E+00
        -11   -1    0    0    0    0  0.00000000000E+00  0.00000000000E+00  0.45593999997E+02  0.45594000000E+02  0.51100000000E-03 0. -1.
         11   -1    0    0    0    0 -0.00000000000E+00 -0.00000000000E+00 -0.45593999997E+02  0.45594000000E+02  0.51100000000E-03 0.  1.
    9900012    2    1    2    0    0  0.62912000712E+00  0.79460742166E-01  0.99557711363E+00  0.90007627270E+02  0.89999887150E+02 0.  0.
        -12    1    1    2    0    0 -0.62912000712E+00 -0.79460742166E-01 -0.99557711363E+00  0.11803727302E+01  0.00000000000E+00 0.  1.
         11    1    3    3    0    0 -0.39525865399E+02  0.42364392959E+01 -0.50070300257E+00  0.39755404126E+02  0.51100000000E-03 0. -1.
        -11    1    3    3    0    0  0.57752571326E+00  0.26175501176E+01 -0.84672780215E+01  0.88814358029E+01  0.51100000000E-03 0.  1.
        -12    1    3    3    0    0  0.39577459693E+02 -0.67745286713E+01  0.99635581377E+01  0.41370787341E+02  0.00000000000E+00 0.  1.
</event>
<event>
 7    1  0.1756449E-015  0.9000782E+02  0.7816164E-02  0.1186339E+00
        -11   -1    0    0    0    0  0.00000000000E+00  0.00000000000E+00  0.45593999997E+02  0.45594000000E+02  0.51100000000E-03 0. -1.
         11   -1    0    0    0    0 -0.00000000000E+00 -0.00000000000E+00 -0.45593999997E+02  0.45594000000E+02  0.51100000000E-03 0.  1.
    9900012    2    1    2    0    0 -0.65685246514E+00  0.36779815423E+00  0.90889174182E+00  0.90007824233E+02  0.90000086713E+02 0.  0.
        -12    1    1    2    0    0  0.65685246514E+00 -0.36779815423E+00 -0.90889174182E+00  0.11801757672E+01  0.00000000000E+00 0.  1.
         11    1    3    3    0    0 -0.35187052290E+02 -0.45010539571E+01 -0.17221195177E+01  0.35515543519E+02  0.51100000000E-03 0. -1.
        -11    1    3    3    0    0 -0.87877746327E+01 -0.67375475521E+00  0.60457638733E+01  0.10687852429E+02  0.51100000000E-03 0.  1.
        -12    1    3    3    0    0  0.43317974457E+02  0.55426068665E+01 -0.34147526138E+01  0.43804428285E+02  0.00000000000E+00 0.  1.
</event>
<event>
 7    1  0.1756449E-015  0.9000795E+02  0.7816164E-02  0.1186339E+00
        -11   -1    0    0    0    0  0.00000000000E+00  0.00000000000E+00  0.45593999997E+02  0.45594000000E+02  0.51100000000E-03 0. -1.
         11   -1    0    0    0    0 -0.00000000000E+00 -0.00000000000E+00 -0.45593999997E+02  0.45594000000E+02  0.51100000000E-03 0.  1.
    9900012    2    1    2    0    0 -0.45992890009E+00 -0.31573354180E+00  0.10398501398E+01  0.90007953147E+02  0.90000217328E+02 0.  0.
        -12    1    1    2    0    0  0.45992890009E+00  0.31573354180E+00 -0.10398501398E+01  0.11800468532E+01  0.00000000000E+00 0.  1.
         11    1    3    3    0    0 -0.11103750258E+02  0.15714094163E+01 -0.83662966009E+01  0.13991337192E+02  0.51100000000E-03 0. -1.
        -11    1    3    3    0    0 -0.15332977517E+02 -0.75734810075E+01 -0.26376282353E+02  0.31435109116E+02  0.51100000000E-03 0.  1.
         12    1    3    3    0    0  0.25976798874E+02  0.56863380495E+01  0.35782429094E+02  0.44581506839E+02  0.00000000000E+00 0. -1.
</event>
<event>
 7    1  0.1756449E-015  0.9000765E+02  0.7816164E-02  0.1186339E+00
        -11   -1    0    0    0    0  0.00000000000E+00  0.00000000000E+00  0.45593999997E+02  0.45594000000E+02  0.51100000000E-03 0. -1.
         11   -1    0    0    0    0 -0.00000000000E+00 -0.00000000000E+00 -0.45593999997E+02  0.45594000000E+02  0.51100000000E-03 0.  1.
    9900012    2    1    2    0    0  0.51645382128E+00 -0.10599326302E+01 -0.55136215890E-01  0.90007651860E+02  0.89999912064E+02 0.  0.
        -12    1    1    2    0    0 -0.51645382128E+00  0.10599326302E+01  0.55136215890E-01  0.11803481404E+01  0.00000000000E+00 0.  1.
         11    1    3    3    0    0 -0.25030994592E+00  0.44621006637E+01 -0.80180674262E+01  0.91794554802E+01  0.51100000000E-03 0. -1.
        -11    1    3    3    0    0 -0.80412123779E+01 -0.85977969141E+01 -0.34967392387E+02  0.36895822784E+02  0.51100000000E-03 0.  1.
         12    1    3    3    0    0  0.88079761451E+01  0.30757636202E+01  0.42930323597E+02  0.43932373596E+02  0.00000000000E+00 0. -1.
</event>
<event>
 7    1  0.1756449E-015  0.9000776E+02  0.7816164E-02  0.1186339E+00
        -11   -1    0    0    0    0  0.00000000000E+00  0.00000000000E+00  0.45593999997E+02  0.45594000000E+02  0.51100000000E-03 0.  1.
         11   -1    0    0    0    0 -0.00000000000E+00 -0.00000000000E+00 -0.45593999997E+02  0.45594000000E+02  0.51100000000E-03 0. -1.
    9900012    2    1    2    0    0 -0.74468602103E+00  0.75200579514E+00 -0.52239980561E+00  0.90007757846E+02  0.90000019449E+02 0.  0.
        -12    1    1    2    0    0  0.74468602103E+00 -0.75200579514E+00  0.52239980561E+00  0.11802421543E+01  0.00000000000E+00 0.  1.
         11    1    3    3    0    0 -0.17828463499E+01  0.94829832918E+01 -0.84448931930E+00  0.96860041137E+01  0.51100000000E-03 0. -1.
        -11    1    3    3    0    0  0.62801450700E+00  0.28573862355E+02 -0.22686375583E+02  0.36490158255E+02  0.51100000000E-03 0.  1.
         12    1    3    3    0    0  0.41014582187E+00 -0.37304839852E+02  0.23008465097E+02  0.43831595477E+02  0.00000000000E+00 0. -1.
</event>
<event>
 7    1  0.1756449E-015  0.9000775E+02  0.7816164E-02  0.1186339E+00
        -11   -1    0    0    0    0  0.00000000000E+00  0.00000000000E+00  0.45593999997E+02  0.45594000000E+02  0.51100000000E-03 0.  1.
         11   -1    0    0    0    0 -0.00000000000E+00 -0.00000000000E+00 -0.45593999997E+02  0.45594000000E+02  0.51100000000E-03 0. -1.
    9900012    2    1    2    0    0 -0.12069645146E+00  0.91571864073E-02 -0.11740267477E+01  0.90007749903E+02  0.90000011402E+02 0.  0.
        -12    1    1    2    0    0  0.12069645146E+00 -0.91571864073E-02  0.11740267477E+01  0.11802500972E+01  0.00000000000E+00 0.  1.
         11    1    3    3    0    0  0.24807329051E+00  0.80984845136E+01 -0.39058420234E+01  0.89945869248E+01  0.51100000000E-03 0. -1.
        -11    1    3    3    0    0  0.38751254475E+02 -0.17732361341E+01 -0.87303795467E+01  0.39762087685E+02  0.51100000000E-03 0.  1.
         12    1    3    3    0    0 -0.39120024217E+02 -0.63160911931E+01  0.11462194822E+02  0.41251075293E+02  0.00000000000E+00 0. -1.
</event>
<event>
 7    1  0.1756449E-015  0.9000782E+02  0.7816164E-02  0.1186339E+00
        -11   -1    0    0    0    0  0.00000000000E+00  0.00000000000E+00  0.45593999997E+02  0.45594000000E+02  0.51100000000E-03 0. -1.
         11   -1    0    0    0    0 -0.00000000000E+00 -0.00000000000E+00 -0.45593999997E+02  0.45594000000E+02  0.51100000000E-03 0.  1.
    9900012    2    1    2    0    0  0.82971188776E+00  0.79299312275E+00 -0.27487125924E+00  0.90007824539E+02  0.90000087023E+02 0.  0.
        -12    1    1    2    0    0 -0.82971188776E+00 -0.79299312275E+00  0.27487125924E+00  0.11801754609E+01  0.00000000000E+00 0.  1.
         11    1    3    3    0    0  0.12100386575E+02  0.16419221579E+02  0.32548680720E+02  0.38411284923E+02  0.51100000000E-03 0. -1.
        -11    1    3    3    0    0 -0.80243915303E+01  0.23060324540E+01  0.49148827861E+01  0.96883805753E+01  0.51100000000E-03 0.  1.
        -12    1    3    3    0    0 -0.32462831570E+01 -0.17932260910E+02 -0.37738434765E+02  0.41908159041E+02  0.00000000000E+00 0.  1.
</event>
<event>
 7    1  0.1756449E-015  0.9000777E+02  0.7816164E-02  0.1186339E+00
        -11   -1    0    0    0    0  0.00000000000E+00  0.00000000000E+00  0.45593999997E+02  0.45594000000E+02  0.51100000000E-03 0. -1.
         11   -1    0    0    0    0 -0.00000000000E+00 -0.00000000000E+00 -0.45593999997E+02  0.45594000000E+02  0.51100000000E-03 0.  1.
    9900012    2    1    2    0    0  0.76804452209E+00 -0.85228763957E+00 -0.27688756217E+00  0.90007765561E+02  0.90000027267E+02 0.  0.
        -12    1    1    2    0    0 -0.76804452209E+00  0.85228763957E+00  0.27688756217E+00  0.11802344388E+01  0.00000000000E+00 0.  1.
         11    1    3    3    0    0  0.20307912539E+00 -0.10162021046E+02 -0.11675824480E+01  0.10230892527E+02  0.51100000000E-03 0. -1.
        -11    1    3    3    0    0 -0.15663028115E+02  0.48392858881E+01 -0.35818883238E+02  0.39392150669E+02  0.51100000000E-03 0.  1.
         12    1    3    3    0    0  0.16227993511E+02  0.44704475186E+01  0.36709578124E+02  0.40384722365E+02  0.00000000000E+00 0. -1.
</event>
<event>
 7    1  0.1756449E-015  0.9000790E+02  0.7816164E-02  0.1186339E+00
        -11   -1    0    0    0    0  0.00000000000E+00  0.00000000000E+00  0.45593999997E+02  0.45594000000E+02  0.51100000000E-03 0.  1.
         11   -1    0    0    0    0 -0.00000000000E+00 -0.00000000000E+00 -0.45593999997E+02  0.45594000000E+02  0.51100000000E-03 0. -1.
    9900012    2    1    2    0    0  0.96520921676E+00  0.47971372433E+00 -0.48049929075E+00  0.90007900997E+02  0.90000164490E+02 0.  0.
        -12    1    1    2    0    0 -0.96520921676E+00 -0.47971372433E+00  0.48049929075E+00  0.11800990034E+01  0.00000000000E+00 0.  1.
         11    1    3    3    0    0  0.48766462566E+01 -0.12273199064E+02  0.39075256243E+02  0.41246681620E+02  0.51100000000E-03 0. -1.
        -11    1    3    3    0    0 -0.65816817541E+01 -0.49155787230E+01 -0.43859458730E+01  0.93122484049E+01  0.51100000000E-03 0.  1.
        -12    1    3    3    0    0  0.26702447142E+01  0.17668491511E+02 -0.35169809661E+02  0.39448970971E+02  0.00000000000E+00 0.  1.
</event>
<event>
 7    1  0.1756449E-015  0.9000761E+02  0.7816164E-02  0.1186339E+00
        -11   -1    0    0    0    0  0.00000000000E+00  0.00000000000E+00  0.45593999997E+02  0.45594000000E+02  0.51100000000E-03 0. -1.
         11   -1    0    0    0    0 -0.00000000000E+00 -0.00000000000E+00 -0.45593999997E+02  0.45594000000E+02  0.51100000000E-03 0.  1.
    9900012    2    1    2    0    0 -0.10558097418E+01  0.43149029047E+00  0.30398711704E+00  0.90007607587E+02  0.89999867207E+02 0.  0.
        -12    1    1    2    0    0  0.10558097418E+01 -0.43149029047E+00 -0.30398711704E+00  0.11803924131E+01  0.00000000000E+00 0.  1.
         11    1    3    3    0    0 -0.92884259614E+00 -0.79010860931E+01  0.36793753066E+02  0.37643992548E+02  0.51100000000E-03 0. -1.
        -11    1    3    3    0    0  0.42894838105E+01 -0.72093895796E+01  0.36087668811E+01  0.91322597496E+01  0.51100000000E-03 0.  1.
        -12    1    3    3    0    0 -0.44164509562E+01  0.15541965963E+02 -0.40098532830E+02  0.43231355289E+02  0.00000000000E+00 0.  1.
</event>
<event>
 7    1  0.1756449E-015  0.9000771E+02  0.7816164E-02  0.1186339E+00
        -11   -1    0    0    0    0  0.00000000000E+00  0.00000000000E+00  0.45593999997E+02  0.45594000000E+02  0.51100000000E-03 0. -1.
         11   -1    0    0    0    0 -0.00000000000E+00 -0.00000000000E+00 -0.45593999997E+02  0.45594000000E+02  0.51100000000E-03 0.  1.
    9900012    2    1    2    0    0 -0.75286720891E+00  0.70052821282E+00  0.57925759547E+00  0.90007708437E+02  0.89999969389E+02 0.  0.
        -12    1    1    2    0    0  0.75286720891E+00 -0.70052821282E+00 -0.57925759547E+00  0.11802915628E+01  0.00000000000E+00 0.  1.
         11    1    3    3    0    0 -0.32087090260E+01 -0.21358902625E+02  0.18402410326E+02  0.28375116581E+02  0.51100000000E-03 0. -1.
        -11    1    3    3    0    0 -0.57184440292E+01 -0.17599984847E+02 -0.57094785057E+01  0.19366419747E+02  0.51100000000E-03 0.  1.
        -12    1    3    3    0    0  0.81742858463E+01  0.39659415685E+02 -0.12113674225E+02  0.42266172109E+02  0.00000000000E+00 0.  1.
</event>
<event>
 7    1  0.1756449E-015  0.9000770E+02  0.7816164E-02  0.1186339E+00
        -11   -1    0    0    0    0  0.00000000000E+00  0.00000000000E+00  0.45593999997E+02  0.45594000000E+02  0.51100000000E-03 0.  1.
         11   -1    0    0    0    0 -0.00000000000E+00 -0.00000000000E+00 -0.45593999997E+02  0.45594000000E+02  0.51100000000E-03 0. -1.
    9900012    2    1    2    0    0 -0.65518599195E-01 -0.60484203357E+00 -0.10114274236E+01  0.90007698341E+02  0.89999959159E+02 0.  0.
        -12    1    1    2    0    0  0.65518599195E-01  0.60484203357E+00  0.10114274236E+01  0.11803016587E+01  0.00000000000E+00 0.  1.
         11    1    3    3    0    0  0.20292001861E+02 -0.23161352314E+02 -0.26205109734E+02  0.40434160768E+02  0.51100000000E-03 0. -1.
        -11    1    3    3    0    0 -0.38365006721E+01 -0.72070521889E+01  0.20755185237E+01  0.84242575972E+01  0.51100000000E-03 0.  1.
        -12    1    3    3    0    0 -0.16521019788E+02  0.29763562470E+02  0.23118163786E+02  0.41149279976E+02  0.00000000000E+00 0.  1.
</event>
<event>
 7    1  0.1756449E-015  0.9000785E+02  0.7816164E-02  0.1186339E+00
        -11   -1    0    0    0    0  0.00000000000E+00  0.00000000000E+00  0.45593999997E+02  0.45594000000E+02  0.51100000000E-03 0.  1.
         11   -1    0    0    0    0 -0.00000000000E+00 -0.00000000000E+00 -0.45593999997E+02  0.45594000000E+02  0.51100000000E-03 0. -1.
    9900012    2    1    2    0    0  0.24413763039E-01 -0.11397874510E+01 -0.30501272668E+00  0.90007854149E+02  0.90000117024E+02 0.  0.
        -12    1    1    2    0    0 -0.24413763039E-01  0.11397874510E+01  0.30501272668E+00  0.11801458506E+01  0.00000000000E+00 0.  1.
         11    1    3    3    0    0 -0.49354309034E+01 -0.51001190604E+00  0.10751787990E+02  0.11841433004E+02  0.51100000000E-03 0. -1.
        -11    1    3    3    0    0  0.34855211541E+02  0.19401048571E+02 -0.13460119229E+02  0.42100608869E+02  0.51100000000E-03 0.  1.
         12    1    3    3    0    0 -0.29895366874E+02 -0.20030824116E+02  0.24033185130E+01  0.36065812277E+02  0.00000000000E+00 0. -1.
</event>
<event>
 7    1  0.1756449E-015  0.9000769E+02  0.7816164E-02  0.1186339E+00
        -11   -1    0    0    0    0  0.00000000000E+00  0.00000000000E+00  0.45593999997E+02  0.45594000000E+02  0.51100000000E-03 0.  1.
         11   -1    0    0    0    0 -0.00000000000E+00 -0.00000000000E+00 -0.45593999997E+02  0.45594000000E+02  0.51100000000E-03 0. -1.
    9900012    2    1    2    0    0 -0.93009112830E+00  0.70722085096E+00  0.16700030744E+00  0.90007694979E+02  0.89999955753E+02 0.  0.
        -12    1    1    2    0    0  0.93009112830E+00 -0.70722085096E+00 -0.16700030744E+00  0.11803050206E+01  0.00000000000E+00 0.  1.
         11    1    3    3    0    0  0.23050173734E+02  0.29840280725E+02 -0.12131288246E+02  0.39609607644E+02  0.51100000000E-03 0. -1.
        -11    1    3    3    0    0  0.74207628908E+01 -0.48153357685E+01  0.44944529585E+01  0.99224638121E+01  0.51100000000E-03 0.  1.
        -12    1    3    3    0    0 -0.31401027753E+02 -0.24317724105E+02  0.78038355952E+01  0.40475623524E+02  0.00000000000E+00 0.  1.
</event>
<event>
 7    1  0.1756449E-015  0.9000721E+02  0.7816164E-02  0.1186340E+00
        -11   -1    0    0    0    0  0.00000000000E+00  0.00000000000E+00  0.45593999997E+02  0.45594000000E+02  0.51100000000E-03 0.  1.
         11   -1    0    0    0    0 -0.00000000000E+00 -0.00000000000E+00 -0.45593999997E+02  0.45594000000E+02  0.51100000000E-03 0. -1.
    9900012    2    1    2    0    0 -0.95181149337E-01 -0.93355515921E+00  0.71671077598E+00  0.90007212541E+02  0.89999466945E+02 0.  0.
        -12    1    1    2    0    0  0.95181149337E-01  0.93355515921E+00 -0.71671077598E+00  0.11807874588E+01  0.00000000000E+00 0.  1.
         11    1    3    3    0    0 -0.17732411275E+01  0.48381724351E+01  0.87869171478E+01  0.10186373733E+02  0.51100000000E-03 0. -1.
        -11    1    3    3    0    0 -0.18586518827E+02  0.31721867420E+02 -0.27123800029E+01  0.36865872569E+02  0.51100000000E-03 0.  1.
         12    1    3    3    0    0  0.20264578805E+02 -0.37493595014E+02 -0.53578263689E+01  0.42954966239E+02  0.00000000000E+00 0. -1.
</event>
<event>
 7    1  0.1756449E-015  0.9000776E+02  0.7816164E-02  0.1186339E+00
        -11   -1    0    0    0    0  0.00000000000E+00  0.00000000000E+00  0.45593999997E+02  0.45594000000E+02  0.51100000000E-03 0.  1.
         11   -1    0    0    0    0 -0.00000000000E+00 -0.00000000000E+00 -0.45593999997E+02  0.45594000000E+02  0.51100000000E-03 0. -1.
    9900012    2    1    2    0    0 -0.38540579200E+00 -0.30092273091E+00 -0.10741899252E+01  0.90007755911E+02  0.90000017489E+02 0.  0.
        -12    1    1    2    0    0  0.38540579200E+00  0.30092273091E+00  0.10741899252E+01  0.11802440891E+01  0.00000000000E+00 0.  1.
         11    1    3    3    0    0 -0.13853158319E+02 -0.28866823516E+02 -0.56399927982E+01  0.32511736563E+02  0.51100000000E-03 0. -1.
        -11    1    3    3    0    0  0.21173795168E-01 -0.13262504741E+02 -0.47608960508E+00  0.13271064083E+02  0.51100000000E-03 0.  1.
        -12    1    3    3    0    0  0.13446578732E+02  0.41828405526E+02  0.50418924781E+01  0.44224955265E+02  0.00000000000E+00 0.  1.
</event>
<event>
 7    1  0.1756449E-015  0.9000778E+02  0.7816164E-02  0.1186339E+00
        -11   -1    0    0    0    0  0.00000000000E+00  0.00000000000E+00  0.45593999997E+02  0.45594000000E+02  0.51100000000E-03 0. -1.
         11   -1    0    0    0    0 -0.00000000000E+00 -0.00000000000E+00 -0.45593999997E+02  0.45594000000E+02  0.51100000000E-03 0.  1.
    9900012    2    1    2    0    0  0.32883671882E+00  0.53552669478E+00  0.99899740605E+00  0.90007780425E+02  0.90000042326E+02 0.  0.
        -12    1    1    2    0    0 -0.32883671882E+00 -0.53552669478E+00 -0.99899740605E+00  0.11802195752E+01  0.00000000000E+00 0.  1.
         11    1    3    3    0    0  0.10306175596E+02 -0.36077158324E+02 -0.16643821839E+02  0.41046259437E+02  0.51100000000E-03 0. -1.
        -11    1    3    3    0    0  0.56061800921E+01  0.58509863234E+01 -0.31500424100E+01  0.86940245932E+01  0.51100000000E-03 0.  1.
        -12    1    3    3    0    0 -0.15583518970E+02  0.30761698695E+02  0.20792861655E+02  0.40267496394E+02  0.00000000000E+00 0.  1.
</event>
<event>
 7    1  0.2265171E-015  0.9000767E+02  0.7816164E-02  0.1186339E+00
        -11   -1    0    0    0    0  0.00000000000E+00  0.00000000000E+00  0.45593999997E+02  0.45594000000E+02  0.51100000000E-03 0.  1.
         11   -1    0    0    0    0 -0.00000000000E+00 -0.00000000000E+00 -0.45593999997E+02  0.45594000000E+02  0.51100000000E-03 0. -1.
    9900012    2    1    2    0    0 -0.25900651282E+00 -0.73604029351E+00 -0.88562712165E+00  0.90007671619E+02  0.89999932085E+02 0.  0.
        -12    1    1    2    0    0  0.25900651282E+00  0.73604029351E+00  0.88562712165E+00  0.11803283806E+01  0.00000000000E+00 0.  1.
         11    1    3    3    0    0  0.70474350194E+01  0.98679311667E+01 -0.35011250878E+02  0.37051721878E+02  0.51100000000E-03 0. -1.
        -11    1    3    3    0    0  0.72809941019E+01  0.36025102129E+01 -0.45038115616E+01  0.92884484059E+01  0.51100000000E-03 0.  1.
        -12    1    3    3    0    0 -0.14587435634E+02 -0.14206481673E+02  0.38629435318E+02  0.43667501335E+02  0.00000000000E+00 0.  1.
</event>
<event>
 7    1  0.1756449E-015  0.9000795E+02  0.7816164E-02  0.1186339E+00
        -11   -1    0    0    0    0  0.00000000000E+00  0.00000000000E+00  0.45593999997E+02  0.45594000000E+02  0.51100000000E-03 0.  1.
         11   -1    0    0    0    0 -0.00000000000E+00 -0.00000000000E+00 -0.45593999997E+02  0.45594000000E+02  0.51100000000E-03 0. -1.
    9900012    2    1    2    0    0 -0.84124808898E+00 -0.46463697240E+00  0.68477846233E+00  0.90007954490E+02  0.90000218689E+02 0.  0.
        -12    1    1    2    0    0  0.84124808898E+00  0.46463697240E+00 -0.68477846233E+00  0.11800455101E+01  0.00000000000E+00 0.  1.
         11    1    3    3    0    0 -0.83921463000E+01 -0.93367109198E+01 -0.39287893081E+02  0.41244888572E+02  0.51100000000E-03 0. -1.
        -11    1    3    3    0    0 -0.25613079930E+01 -0.72790360798E+01  0.58617762500E+01  0.96904636603E+01  0.51100000000E-03 0.  1.
        -12    1    3    3    0    0  0.10112206204E+02  0.16151110027E+02  0.34110895294E+02  0.39072602257E+02  0.00000000000E+00 0.  1.
</event>
<event>
 7    1  0.1756449E-015  0.9000755E+02  0.7816164E-02  0.1186339E+00
        -11   -1    0    0    0    0  0.00000000000E+00  0.00000000000E+00  0.45593999997E+02  0.45594000000E+02  0.51100000000E-03 0. -1.
         11   -1    0    0    0    0 -0.00000000000E+00 -0.00000000000E+00 -0.45593999997E+02  0.45594000000E+02  0.51100000000E-03 0.  1.
    9900012    2    1    2    0    0 -0.22046947738E+00  0.80705596451E+00  0.83277027965E+00  0.90007554127E+02  0.89999813041E+02 0.  0.
        -12    1    1    2    0    0  0.22046947738E+00 -0.80705596451E+00 -0.83277027965E+00  0.11804458730E+01  0.00000000000E+00 0.  1.
         11    1    3    3    0    0 -0.17468536929E+02  0.28622815165E+02  0.22906832954E+02  0.40609584172E+02  0.51100000000E-03 0. -1.
        -11    1    3    3    0    0  0.66940634502E+01  0.57986708318E+01 -0.58163667144E+01  0.10595526929E+02  0.51100000000E-03 0.  1.
        -12    1    3    3    0    0  0.10554004002E+02 -0.33614430032E+02 -0.16257695960E+02  0.38802443026E+02  0.00000000000E+00 0.  1.
</event>
<event>
 7    1  0.1756449E-015  0.9000780E+02  0.7816164E-02  0.1186339E+00
        -11   -1    0    0    0    0  0.00000000000E+00  0.00000000000E+00  0.45593999997E+02  0.45594000000E+02  0.51100000000E-03 0.  1.
         11   -1    0    0    0    0 -0.00000000000E+00 -0.00000000000E+00 -0.45593999997E+02  0.45594000000E+02  0.51100000000E-03 0. -1.
    9900012    2    1    2    0    0  0.10348236323E+01  0.34074244335E+00 -0.45376652453E+00  0.90007801109E+02  0.90000063284E+02 0.  0.
        -12    1    1    2    0    0 -0.10348236323E+01 -0.34074244335E+00  0.45376652453E+00  0.11801988906E+01  0.00000000000E+00 0.  1.
         11    1    3    3    0    0  0.72797884425E+01  0.35530545330E+02  0.12729987114E+02  0.38437839994E+02  0.51100000000E-03 0. -1.
        -11    1    3    3    0    0  0.10612711611E+02 -0.20381344006E+00 -0.18354975471E+00  0.10616255387E+02  0.51100000000E-03 0.  1.
        -12    1    3    3    0    0 -0.16857676421E+02 -0.34985989447E+02 -0.13000203884E+02  0.40953705729E+02  0.00000000000E+00 0.  1.
</event>
<event>
 7    1  0.1756449E-015  0.9000777E+02  0.7816164E-02  0.1186339E+00
        -11   -1    0    0    0    0  0.00000000000E+00  0.00000000000E+00  0.45593999997E+02  0.45594000000E+02  0.51100000000E-03 0. -1.
         11   -1    0    0    0    0 -0.00000000000E+00 -0.00000000000E+00 -0.45593999997E+02  0.45594000000E+02  0.51100000000E-03 0.  1.
    9900012    2    1    2    0    0 -0.73525491904E+00 -0.75451507170E+00  0.53201420227E+00  0.90007774640E+02  0.90000036465E+02 0.  0.
        -12    1    1    2    0    0  0.73525491904E+00  0.75451507170E+00 -0.53201420227E+00  0.11802253602E+01  0.00000000000E+00 0.  1.
         11    1    3    3    0    0  0.81028339252E+01  0.31867914144E+01  0.20045959014E+01  0.89347614477E+01  0.51100000000E-03 0. -1.
        -11    1    3    3    0    0  0.29756439094E+02 -0.21994940538E+02  0.69239003908E+01  0.37645231753E+02  0.51100000000E-03 0.  1.
         12    1    3    3    0    0 -0.38594527938E+02  0.18053634052E+02 -0.83964820900E+01  0.43427781439E+02  0.00000000000E+00 0. -1.
</event>
<event>
 7    1  0.1756449E-015  0.9000758E+02  0.7816164E-02  0.1186339E+00
        -11   -1    0    0    0    0  0.00000000000E+00  0.00000000000E+00  0.45593999997E+02  0.45594000000E+02  0.51100000000E-03 0. -1.
         11   -1    0    0    0    0 -0.00000000000E+00 -0.00000000000E+00 -0.45593999997E+02  0.45594000000E+02  0.51100000000E-03 0.  1.
    9900012    2    1    2    0    0 -0.39535649853E+00 -0.78802252669E+00  0.78491728723E+00  0.90007584221E+02  0.89999843533E+02 0.  0.
        -12    1    1    2    0    0  0.39535649853E+00  0.78802252669E+00 -0.78491728723E+00  0.11804157790E+01  0.00000000000E+00 0.  1.
         11    1    3    3    0    0  0.11502720619E+01  0.77380541475E+00  0.11334884599E+02  0.11419348045E+02  0.51100000000E-03 0. -1.
        -11    1    3    3    0    0  0.32737701314E+02  0.17066604277E+02 -0.13849684476E+02  0.39431457356E+02  0.51100000000E-03 0.  1.
         12    1    3    3    0    0 -0.34283329875E+02 -0.18628432218E+02  0.32997171641E+01  0.39156778820E+02  0.00000000000E+00 0. -1.
</event>
<event>
 7    1  0.1756449E-015  0.9000765E+02  0.7816164E-02  0.1186339E+00
        -11   -1    0    0    0    0  0.00000000000E+00  0.00000000000E+00  0.45593999997E+02  0.45594000000E+02  0.51100000000E-03 0. -1.
         11   -1    0    0    0    0 -0.00000000000E+00 -0.00000000000E+00 -0.45593999997E+02  0.45594000000E+02  0.51100000000E-03 0.  1.
    9900012    2    1    2    0    0  0.10804511466E+01  0.21507823448E+00  0.42377007868E+00  0.90007654963E+02  0.89999915208E+02 0.  0.
        -12    1    1    2    0    0 -0.10804511466E+01 -0.21507823448E+00 -0.42377007868E+00  0.11803450372E+01  0.00000000000E+00 0.  1.
         11    1    3    3    0    0  0.15662523396E+02 -0.27009520620E+02  0.69476249254E+00  0.31229978201E+02  0.51100000000E-03 0. -1.
        -11    1    3    3    0    0 -0.32909583389E+02  0.20562302457E+02 -0.36864094663E+01  0.38979976605E+02  0.51100000000E-03 0.  1.
         12    1    3    3    0    0  0.18327511139E+02  0.66622963974E+01  0.34154170524E+01  0.19797700156E+02  0.00000000000E+00 0. -1.
</event>
<event>
 7    1  0.1756449E-015  0.9000750E+02  0.7816164E-02  0.1186340E+00
        -11   -1    0    0    0    0  0.00000000000E+00  0.00000000000E+00  0.45593999997E+02  0.45594000000E+02  0.51100000000E-03 0. -1.
         11   -1    0    0    0    0 -0.00000000000E+00 -0.00000000000E+00 -0.45593999997E+02  0.45594000000E+02  0.51100000000E-03 0.  1.
    9900012    2    1    2    0    0  0.15975164857E+00  0.33178276180E+00  0.11215972609E+01  0.90007499765E+02  0.89999757961E+02 0.  0.
        -12    1    1    2    0    0 -0.15975164857E+00 -0.33178276180E+00 -0.11215972609E+01  0.11805002354E+01  0.00000000000E+00 0.  1.
         11    1    3    3    0    0 -0.25499755629E+00 -0.55659714638E+01  0.50144275522E+01  0.74959686517E+01  0.51100000000E-03 0. -1.
        -11    1    3    3    0    0  0.29430289912E+02 -0.25454529531E+02  0.38352156210E+01  0.39099666457E+02  0.51100000000E-03 0.  1.
         12    1    3    3    0    0 -0.29015540707E+02  0.31352283757E+02 -0.77280459123E+01  0.43411864656E+02  0.00000000000E+00 0. -1.
</event>
<event>
 7    1  0.1756449E-015  0.9000772E+02  0.7816164E-02  0.1186339E+00
        -11   -1    0    0    0    0  0.00000000000E+00  0.00000000000E+00  0.45593999997E+02  0.45594000000E+02  0.51100000000E-03 0. -1.
         11   -1    0    0    0    0 -0.00000000000E+00 -0.00000000000E+00 -0.45593999997E+02  0.45594000000E+02  0.51100000000E-03 0.  1.
    9900012    2    1    2    0    0 -0.10598720920E+01 -0.42477870566E+00  0.29882326846E+00  0.90007719887E+02  0.89999980989E+02 0.  0.
        -12    1    1    2    0    0  0.10598720920E+01  0.42477870566E+00 -0.29882326846E+00  0.11802801133E+01  0.00000000000E+00 0.  1.
         11    1    3    3    0    0  0.23891289488E+02  0.68052770787E+00 -0.92900342754E+01  0.25642963332E+02  0.51100000000E-03 0. -1.
        -11    1    3    3    0    0  0.65628239758E+01  0.84031611158E+01 -0.18327836012E+02  0.21203616400E+02  0.51100000000E-03 0.  1.
         12    1    3    3    0    0 -0.31513985556E+02 -0.95084675294E+01  0.27916693556E+02  0.43161140155E+02  0.00000000000E+00 0. -1.
</event>
<event>
 7    1  0.1756449E-015  0.9000775E+02  0.7816164E-02  0.1186339E+00
        -11   -1    0    0    0    0  0.00000000000E+00  0.00000000000E+00  0.45593999997E+02  0.45594000000E+02  0.51100000000E-03 0. -1.
         11   -1    0    0    0    0 -0.00000000000E+00 -0.00000000000E+00 -0.45593999997E+02  0.45594000000E+02  0.51100000000E-03 0.  1.
    9900012    2    1    2    0    0 -0.45359976514E-01 -0.94460654976E+00  0.70614993389E+00  0.90007751386E+02  0.90000012904E+02 0.  0.
        -12    1    1    2    0    0  0.45359976514E-01  0.94460654976E+00 -0.70614993389E+00  0.11802486138E+01  0.00000000000E+00 0.  1.
         11    1    3    3    0    0  0.11374424543E+02 -0.40044596998E+02  0.14584961819E+02  0.44109731284E+02  0.51100000000E-03 0. -1.
        -11    1    3    3    0    0  0.96563760113E-01  0.79426303048E+01  0.31801205268E+01  0.85561596259E+01  0.51100000000E-03 0.  1.
        -12    1    3    3    0    0 -0.11516348280E+02  0.31157360143E+02 -0.17058932412E+02  0.37341860476E+02  0.00000000000E+00 0.  1.
</event>
<event>
 7    1  0.1756449E-015  0.9000774E+02  0.7816164E-02  0.1186339E+00
        -11   -1    0    0    0    0  0.00000000000E+00  0.00000000000E+00  0.45593999997E+02  0.45594000000E+02  0.51100000000E-03 0. -1.
         11   -1    0    0    0    0 -0.00000000000E+00 -0.00000000000E+00 -0.45593999997E+02  0.45594000000E+02  0.51100000000E-03 0.  1.
    9900012    2    1    2    0    0  0.59741380326E+00 -0.73450232621E+00  0.70471076409E+00  0.90007739783E+02  0.90000001148E+02 0.  0.
        -12    1    1    2    0    0 -0.59741380326E+00  0.73450232621E+00 -0.70471076409E+00  0.11802602173E+01  0.00000000000E+00 0.  1.
         11    1    3    3    0    0 -0.23285574609E+01  0.51540280704E+01  0.79558953191E+01  0.97612732668E+01  0.51100000000E-03 0. -1.
        -11    1    3    3    0    0 -0.28984219771E+02  0.15873904933E+02  0.14309574869E+02  0.36011522972E+02  0.51100000000E-03 0.  1.
         12    1    3    3    0    0  0.31910191035E+02 -0.21762435330E+02 -0.21560759424E+02  0.44234943544E+02  0.00000000000E+00 0. -1.
</event>
<event>
 7    1  0.1756449E-015  0.9000757E+02  0.7816164E-02  0.1186339E+00
        -11   -1    0    0    0    0  0.00000000000E+00  0.00000000000E+00  0.45593999997E+02  0.45594000000E+02  0.51100000000E-03 0.  1.
         11   -1    0    0    0    0 -0.00000000000E+00 -0.00000000000E+00 -0.45593999997E+02  0.45594000000E+02  0.51100000000E-03 0. -1.
    9900012    2    1    2    0    0 -0.10242371145E+01 -0.42556189312E+00 -0.40405274323E+00  0.90007566516E+02  0.89999825593E+02 0.  0.
        -12    1    1    2    0    0  0.10242371145E+01  0.42556189312E+00  0.40405274323E+00  0.11804334844E+01  0.00000000000E+00 0.  1.
         11    1    3    3    0    0  0.78514520127E+01  0.22409612892E+02 -0.32754289518E+02  0.40455896118E+02  0.51100000000E-03 0. -1.
        -11    1    3    3    0    0  0.59659954503E+01  0.35903706672E+01  0.84786861398E+01  0.10971416598E+02  0.51100000000E-03 0.  1.
        -12    1    3    3    0    0 -0.14841684577E+02 -0.26425545452E+02  0.23871550635E+02  0.38580253800E+02  0.00000000000E+00 0.  1.
</event>
<event>
 7    1  0.1756449E-015  0.9000775E+02  0.7816164E-02  0.1186339E+00
        -11   -1    0    0    0    0  0.00000000000E+00  0.00000000000E+00  0.45593999997E+02  0.45594000000E+02  0.51100000000E-03 0.  1.
         11   -1    0    0    0    0 -0.00000000000E+00 -0.00000000000E+00 -0.45593999997E+02  0.45594000000E+02  0.51100000000E-03 0. -1.
    9900012    2    1    2    0    0 -0.51433623991E-01 -0.11530547258E+01 -0.24658755502E+00  0.90007751704E+02  0.90000013226E+02 0.  0.
        -12    1    1    2    0    0  0.51433623991E-01  0.11530547258E+01  0.24658755502E+00  0.11802482962E+01  0.00000000000E+00 0.  1.
         11    1    3    3    0    0  0.92724319315E+01  0.39009577659E+01  0.25833582942E+02  0.27723085566E+02  0.51100000000E-03 0. -1.
        -11    1    3    3    0    0  0.18679429486E+02 -0.23606353263E+01  0.58626335672E+01  0.19719638883E+02  0.51100000000E-03 0.  1.
        -12    1    3    3    0    0 -0.28003295042E+02 -0.26933771653E+01 -0.31942804064E+02  0.42565027255E+02  0.00000000000E+00 0.  1.
</event>
<event>
 7    1  0.1756449E-015  0.9000772E+02  0.7816164E-02  0.1186339E+00
        -11   -1    0    0    0    0  0.00000000000E+00  0.00000000000E+00  0.45593999997E+02  0.45594000000E+02  0.51100000000E-03 0.  1.
         11   -1    0    0    0    0 -0.00000000000E+00 -0.00000000000E+00 -0.45593999997E+02  0.45594000000E+02  0.51100000000E-03 0. -1.
    9900012    2    1    2    0    0 -0.91209964350E+00 -0.44434352297E+00 -0.60307374975E+00  0.90007718307E+02  0.89999979389E+02 0.  0.
        -12    1    1    2    0    0  0.91209964350E+00  0.44434352297E+00  0.60307374975E+00  0.11802816925E+01  0.00000000000E+00 0.  1.
         11    1    3    3    0    0  0.96837389412E+01 -0.11440187542E+01 -0.68230799181E+01  0.11901176354E+02  0.51100000000E-03 0. -1.
        -11    1    3    3    0    0  0.90154296103E+01  0.34786324909E+02 -0.70143778614E+01  0.36613766110E+02  0.51100000000E-03 0.  1.
         12    1    3    3    0    0 -0.19611268195E+02 -0.34086649678E+02  0.13234384030E+02  0.41492775843E+02  0.00000000000E+00 0. -1.
</event>
<event>
 7    1  0.1756449E-015  0.9000778E+02  0.7816164E-02  0.1186339E+00
        -11   -1    0    0    0    0  0.00000000000E+00  0.00000000000E+00  0.45593999997E+02  0.45594000000E+02  0.51100000000E-03 0.  1.
         11   -1    0    0    0    0 -0.00000000000E+00 -0.00000000000E+00 -0.45593999997E+02  0.45594000000E+02  0.51100000000E-03 0. -1.
    9900012    2    1    2    0    0  0.61694762474E+00 -0.47067120175E+00 -0.88925117484E+00  0.90007778240E+02  0.90000040112E+02 0.  0.
        -12    1    1    2    0    0 -0.61694762474E+00  0.47067120175E+00  0.88925117484E+00  0.11802217604E+01  0.00000000000E+00 0.  1.
         11    1    3    3    0    0 -0.12475317358E+02 -0.27139216267E+02 -0.21605256480E+02  0.36864043601E+02  0.51100000000E-03 0. -1.
        -11    1    3    3    0    0 -0.41565356517E+01 -0.86576463968E+01  0.34159977032E+01  0.10193167826E+02  0.51100000000E-03 0.  1.
        -12    1    3    3    0    0  0.17248800634E+02  0.35326191462E+02  0.17300007602E+02  0.42950566813E+02  0.00000000000E+00 0.  1.
</event>
<event>
 7    1  0.1756449E-015  0.9000810E+02  0.7816164E-02  0.1186338E+00
        -11   -1    0    0    0    0  0.00000000000E+00  0.00000000000E+00  0.45593999997E+02  0.45594000000E+02  0.51100000000E-03 0.  1.
         11   -1    0    0    0    0 -0.00000000000E+00 -0.00000000000E+00 -0.45593999997E+02  0.45594000000E+02  0.51100000000E-03 0. -1.
    9900012    2    1    2    0    0  0.51064479344E+00  0.38931486035E-01 -0.10629592780E+01  0.90008103313E+02  0.90000369476E+02 0.  0.
        -12    1    1    2    0    0 -0.51064479344E+00 -0.38931486035E-01  0.10629592780E+01  0.11798966872E+01  0.00000000000E+00 0.  1.
         11    1    3    3    0    0  0.79285784812E+01  0.61229090909E+01  0.11853110171E+01  0.10087484074E+02  0.51100000000E-03 0. -1.
        -11    1    3    3    0    0  0.46449422395E+01  0.28330718462E+02  0.21963912439E+02  0.36147178961E+02  0.51100000000E-03 0.  1.
         12    1    3    3    0    0 -0.12062875927E+02 -0.34414696067E+02 -0.24212182734E+02  0.43773440278E+02  0.00000000000E+00 0. -1.
</event>
<event>
 7    1  0.1756449E-015  0.9000770E+02  0.7816164E-02  0.1186339E+00
        -11   -1    0    0    0    0  0.00000000000E+00  0.00000000000E+00  0.45593999997E+02  0.45594000000E+02  0.51100000000E-03 0. -1.
         11   -1    0    0    0    0 -0.00000000000E+00 -0.00000000000E+00 -0.45593999997E+02  0.45594000000E+02  0.51100000000E-03 0.  1.
    9900012    2    1    2    0    0  0.94770611403E+00 -0.41280612212E+00  0.56970112526E+00  0.90007697011E+02  0.89999957812E+02 0.  0.
        -12    1    1    2    0    0 -0.94770611403E+00  0.41280612212E+00 -0.56970112526E+00  0.11803029887E+01  0.00000000000E+00 0.  1.
         11    1    3    3    0    0  0.23454326427E+02 -0.37598955668E+02 -0.44262304630E+00  0.44316845678E+02  0.51100000000E-03 0. -1.
        -11    1    3    3    0    0 -0.11891378446E+01  0.59046438501E+01 -0.43893056835E+01  0.74528432464E+01  0.51100000000E-03 0.  1.
        -12    1    3    3    0    0 -0.21317482468E+02  0.31281505695E+02  0.54016298551E+01  0.38238008087E+02  0.00000000000E+00 0.  1.
</event>
<event>
 7    1  0.1756449E-015  0.9000775E+02  0.7816164E-02  0.1186339E+00
        -11   -1    0    0    0    0  0.00000000000E+00  0.00000000000E+00  0.45593999997E+02  0.45594000000E+02  0.51100000000E-03 0.  1.
         11   -1    0    0    0    0 -0.00000000000E+00 -0.00000000000E+00 -0.45593999997E+02  0.45594000000E+02  0.51100000000E-03 0. -1.
    9900012    2    1    2    0    0  0.56087307164E-01  0.61269728284E+00 -0.10071949209E+01  0.90007751994E+02  0.90000013521E+02 0.  0.
        -12    1    1    2    0    0 -0.56087307164E-01 -0.61269728284E+00  0.10071949209E+01  0.11802480058E+01  0.00000000000E+00 0.  1.
         11    1    3    3    0    0  0.61442326624E+01  0.21445602054E+02 -0.32232800320E+02  0.39199730346E+02  0.51100000000E-03 0. -1.
        -11    1    3    3    0    0  0.93821516261E+01  0.25890027084E+00 -0.84423597718E+00  0.94236157143E+01  0.51100000000E-03 0.  1.
        -12    1    3    3    0    0 -0.15470296981E+02 -0.21091805042E+02  0.32069841376E+02  0.41384405934E+02  0.00000000000E+00 0.  1.
</event>
<event>
 7    1  0.1756449E-015  0.9000768E+02  0.7816164E-02  0.1186339E+00
        -11   -1    0    0    0    0  0.00000000000E+00  0.00000000000E+00  0.45593999997E+02  0.45594000000E+02  0.51100000000E-03 0.  1.
         11   -1    0    0    0    0 -0.00000000000E+00 -0.00000000000E+00 -0.45593999997E+02  0.45594000000E+02  0.51100000000E-03 0. -1.
    9900012    2    1    2    0    0  0.96172369638E+00 -0.66293114494E+00 -0.16957026696E+00  0.90007684683E+02  0.89999945321E+02 0.  0.
        -12    1    1    2    0    0 -0.96172369638E+00  0.66293114494E+00  0.16957026696E+00  0.11803153166E+01  0.00000000000E+00 0.  1.
         11    1    3    3    0    0  0.31389813795E+02 -0.82331149385E+01 -0.12145149694E+02  0.34649808846E+02  0.51100000000E-03 0. -1.
        -11    1    3    3    0    0  0.61779869649E+01 -0.60863077200E+01 -0.77137696368E+01  0.11606588942E+02  0.51100000000E-03 0.  1.
        -12    1    3    3    0    0 -0.36606077064E+02  0.13656491513E+02  0.19689349064E+02  0.43751286896E+02  0.00000000000E+00 0.  1.
</event>
<event>
 7    1  0.1756449E-015  0.9000781E+02  0.7816164E-02  0.1186339E+00
        -11   -1    0    0    0    0  0.00000000000E+00  0.00000000000E+00  0.45593999997E+02  0.45594000000E+02  0.51100000000E-03 0.  1.
         11   -1    0    0    0    0 -0.00000000000E+00 -0.00000000000E+00 -0.45593999997E+02  0.45594000000E+02  0.51100000000E-03 0. -1.
    9900012    2    1    2    0    0  0.26835823005E+00  0.81611349804E+00  0.80919356809E+00  0.90007808655E+02  0.90000070929E+02 0.  0.
        -12    1    1    2    0    0 -0.26835823005E+00 -0.81611349804E+00 -0.80919356809E+00  0.11801913455E+01  0.00000000000E+00 0.  1.
         11    1    3    3    0    0  0.21163270584E-01  0.17194039754E+02  0.24530705581E+02  0.29956484565E+02  0.51100000000E-03 0. -1.
        -11    1    3    3    0    0 -0.10798705657E+01  0.14478967797E+02  0.73218887021E+01  0.16260894297E+02  0.51100000000E-03 0.  1.
        -12    1    3    3    0    0  0.13270655252E+01 -0.30856894053E+02 -0.31043400715E+02  0.43790429793E+02  0.00000000000E+00 0.  1.
</event>
<event>
 7    1  0.1756449E-015  0.9000754E+02  0.7816164E-02  0.1186339E+00
        -11   -1    0    0    0    0  0.00000000000E+00  0.00000000000E+00  0.45593999997E+02  0.45594000000E+02  0.51100000000E-03 0.  1.
         11   -1    0    0    0    0 -0.00000000000E+00 -0.00000000000E+00 -0.45593999997E+02  0.45594000000E+02  0.51100000000E-03 0. -1.
    9900012    2    1    2    0    0  0.88477798705E+00 -0.54530021878E+00 -0.55972832209E+00  0.90007542373E+02  0.89999801132E+02 0.  0.
        -12    1    1    2    0    0 -0.88477798705E+00  0.54530021878E+00  0.55972832209E+00  0.11804576272E+01  0.00000000000E+00 0.  1.
         11    1    3    3    0    0 -0.31641554257E+01  0.26243088098E+02 -0.34382658820E+02  0.43369099371E+02  0.51100000000E-03 0. -1.
        -11    1    3    3    0    0  0.59529441463E+01 -0.31357246300E+01  0.21518077529E+01  0.70640349539E+01  0.51100000000E-03 0.  1.
        -12    1    3    3    0    0 -0.19040107335E+01 -0.23652663687E+02  0.31671122745E+02  0.39574408047E+02  0.00000000000E+00 0.  1.
</event>
<event>
 7    1  0.1756449E-015  0.9000774E+02  0.7816164E-02  0.1186339E+00
        -11   -1    0    0    0    0  0.00000000000E+00  0.00000000000E+00  0.45593999997E+02  0.45594000000E+02  0.51100000000E-03 0. -1.
         11   -1    0    0    0    0 -0.00000000000E+00 -0.00000000000E+00 -0.45593999997E+02  0.45594000000E+02  0.51100000000E-03 0.  1.
    9900012    2    1    2    0    0 -0.23783499785E+00  0.79709325162E+00  0.83730954343E+00  0.90007741380E+02  0.90000002766E+02 0.  0.
        -12    1    1    2    0    0  0.23783499785E+00 -0.79709325162E+00 -0.83730954343E+00  0.11802586198E+01  0.00000000000E+00 0.  1.
         11    1    3    3    0    0  0.35203316425E+02  0.17549375943E+02  0.90623891459E+01  0.40365591543E+02  0.51100000000E-03 0. -1.
        -11    1    3    3    0    0  0.41133353609E+01 -0.67378834966E+01  0.52608461231E+00  0.79117233954E+01  0.51100000000E-03 0.  1.
        -12    1    3    3    0    0 -0.39554486784E+02 -0.10014399194E+02 -0.87511642148E+01  0.41730426442E+02  0.00000000000E+00 0.  1.
</event>
<event>
 7    1  0.1756449E-015  0.9000773E+02  0.7816164E-02  0.1186339E+00
        -11   -1    0    0    0    0  0.00000000000E+00  0.00000000000E+00  0.45593999997E+02  0.45594000000E+02  0.51100000000E-03 0. -1.
         11   -1    0    0    0    0 -0.00000000000E+00 -0.00000000000E+00 -0.45593999997E+02  0.45594000000E+02  0.51100000000E-03 0.  1.
    9900012    2    1    2    0    0  0.53776419130E-01  0.38094463668E+00  0.11158023432E+01  0.90007734950E+02  0.89999996251E+02 0.  0.
        -12    1    1    2    0    0 -0.53776419130E-01 -0.38094463668E+00 -0.11158023432E+01  0.11802650502E+01  0.00000000000E+00 0.  1.
         11    1    3    3    0    0 -0.58699082367E+01  0.35697461215E+01 -0.74109592746E+01  0.10105504822E+02  0.51100000000E-03 0. -1.
        -11    1    3    3    0    0  0.12608142242E+02  0.32146288400E+02 -0.14227141023E+02  0.37346494489E+02  0.51100000000E-03 0.  1.
         12    1    3    3    0    0 -0.66844575858E+01 -0.35335089885E+02  0.22753902640E+02  0.42555735639E+02  0.00000000000E+00 0. -1.
</event>
<event>
 7    1  0.1756449E-015  0.9000779E+02  0.7816164E-02  0.1186339E+00
        -11   -1    0    0    0    0  0.00000000000E+00  0.00000000000E+00  0.45593999997E+02  0.45594000000E+02  0.51100000000E-03 0.  1.
         11   -1    0    0    0    0 -0.00000000000E+00 -0.00000000000E+00 -0.45593999997E+02  0.45594000000E+02  0.51100000000E-03 0. -1.
    9900012    2    1    2    0    0 -0.10948217652E+01 -0.44057547126E+00  0.12489552598E-01  0.90007789242E+02  0.90000051260E+02 0.  0.
        -12    1    1    2    0    0  0.10948217652E+01  0.44057547126E+00 -0.12489552598E-01  0.11802107576E+01  0.00000000000E+00 0.  1.
         11    1    3    3    0    0  0.37272667321E+02  0.16272555099E+02 -0.12318714424E+00  0.40670172781E+02  0.51100000000E-03 0. -1.
        -11    1    3    3    0    0 -0.54556264052E+01  0.61979232770E+01  0.37603095444E+01  0.90729289952E+01  0.51100000000E-03 0.  1.
        -12    1    3    3    0    0 -0.32911862681E+02 -0.22911053847E+02 -0.36246328476E+01  0.40264687467E+02  0.00000000000E+00 0.  1.
</event>
<event>
 7    1  0.1756449E-015  0.9000772E+02  0.7816164E-02  0.1186339E+00
        -11   -1    0    0    0    0  0.00000000000E+00  0.00000000000E+00  0.45593999997E+02  0.45594000000E+02  0.51100000000E-03 0. -1.
         11   -1    0    0    0    0 -0.00000000000E+00 -0.00000000000E+00 -0.45593999997E+02  0.45594000000E+02  0.51100000000E-03 0.  1.
    9900012    2    1    2    0    0  0.72300553441E-01  0.11703861371E+01 -0.13431531767E+00  0.90007715422E+02  0.89999976466E+02 0.  0.
        -12    1    1    2    0    0 -0.72300553441E-01 -0.11703861371E+01  0.13431531767E+00  0.11802845778E+01  0.00000000000E+00 0.  1.
         11    1    3    3    0    0 -0.22636016724E+02 -0.16582151707E+02  0.26800037006E+02  0.38802048814E+02  0.51100000000E-03 0. -1.
        -11    1    3    3    0    0  0.10474555010E+01 -0.42134791827E+01  0.51231295310E+01  0.67154319520E+01  0.51100000000E-03 0.  1.
        -12    1    3    3    0    0  0.21660861776E+02  0.21966017027E+02 -0.32057481855E+02  0.44490234656E+02  0.00000000000E+00 0.  1.
</event>
<event>
 7    1  0.1756449E-015  0.9000780E+02  0.7816164E-02  0.1186339E+00
        -11   -1    0    0    0    0  0.00000000000E+00  0.00000000000E+00  0.45593999997E+02  0.45594000000E+02  0.51100000000E-03 0.  1.
         11   -1    0    0    0    0 -0.00000000000E+00 -0.00000000000E+00 -0.45593999997E+02  0.45594000000E+02  0.51100000000E-03 0. -1.
    9900012    2    1    2    0    0 -0.10143806256E+01 -0.11660161893E+00 -0.59186283161E+00  0.90007802727E+02  0.90000064923E+02 0.  0.
        -12    1    1    2    0    0  0.10143806256E+01  0.11660161893E+00  0.59186283161E+00  0.11801972727E+01  0.00000000000E+00 0.  1.
         11    1    3    3    0    0  0.84784001099E+01  0.95609279334E+01 -0.16962804734E+01  0.12890771082E+02  0.51100000000E-03 0. -1.
        -11    1    3    3    0    0 -0.27659482517E+02 -0.15613541344E+02  0.29194995917E+02  0.43141365686E+02  0.51100000000E-03 0.  1.
         12    1    3    3    0    0  0.18166701781E+02  0.59360117919E+01 -0.28090578275E+02  0.33975665960E+02  0.00000000000E+00 0. -1.
</event>
<event>
 7    1  0.1842796E-015  0.9000773E+02  0.7816164E-02  0.1186339E+00
        -11   -1    0    0    0    0  0.00000000000E+00  0.00000000000E+00  0.45593999997E+02  0.45594000000E+02  0.51100000000E-03 0.  1.
         11   -1    0    0    0    0 -0.00000000000E+00 -0.00000000000E+00 -0.45593999997E+02  0.45594000000E+02  0.51100000000E-03 0. -1.
    9900012    2    1    2    0    0  0.91592512093E+00 -0.38381285945E+00 -0.63781713286E+00  0.90007728068E+02  0.89999989279E+02 0.  0.
        -12    1    1    2    0    0 -0.91592512093E+00  0.38381285945E+00  0.63781713286E+00  0.11802719319E+01  0.00000000000E+00 0.  1.
         11    1    3    3    0    0 -0.20332958587E+01  0.94529279354E+01  0.97462466200E+00  0.97181290429E+01  0.51100000000E-03 0. -1.
        -11    1    3    3    0    0 -0.61581675936E+01 -0.22495223649E+02  0.34104501314E+02  0.41316765668E+02  0.51100000000E-03 0.  1.
         12    1    3    3    0    0  0.91073885732E+01  0.12658482854E+02 -0.35716943109E+02  0.38972833357E+02  0.00000000000E+00 0. -1.
</event>
<event>
 7    1  0.1756449E-015  0.9000739E+02  0.7816164E-02  0.1186340E+00
        -11   -1    0    0    0    0  0.00000000000E+00  0.00000000000E+00  0.45593999997E+02  0.45594000000E+02  0.51100000000E-03 0.  1.
         11   -1    0    0    0    0 -0.00000000000E+00 -0.00000000000E+00 -0.45593999997E+02  0.45594000000E+02  0.51100000000E-03 0. -1.
    9900012    2    1    2    0    0 -0.16942273733E+00  0.56700810081E+00 -0.10215878359E+01  0.90007388312E+02  0.89999645037E+02 0.  0.
        -12    1    1    2    0    0  0.16942273733E+00 -0.56700810081E+00  0.10215878359E+01  0.11806116876E+01  0.00000000000E+00 0.  1.
         11    1    3    3    0    0 -0.25877677343E+02  0.55225221531E+01 -0.32497198423E+02  0.41907282675E+02  0.51100000000E-03 0. -1.
        -11    1    3    3    0    0 -0.43137536208E+01 -0.43769426793E+01  0.35667939657E+01  0.71054990658E+01  0.51100000000E-03 0.  1.
        -12    1    3    3    0    0  0.30022008226E+02 -0.57857137305E+00  0.27908816621E+02  0.40994606572E+02  0.00000000000E+00 0.  1.
</event>
<event>
 7    1  0.1756449E-015  0.9000757E+02  0.7816164E-02  0.1186339E+00
        -11   -1    0    0    0    0  0.00000000000E+00  0.00000000000E+00  0.45593999997E+02  0.45594000000E+02  0.51100000000E-03 0.  1.
         11   -1    0    0    0    0 -0.00000000000E+00 -0.00000000000E+00 -0.45593999997E+02  0.45594000000E+02  0.51100000000E-03 0. -1.
    9900012    2    1    2    0    0 -0.84141395844E+00 -0.69473356831E+00 -0.45032426919E+00  0.90007566127E+02  0.89999825200E+02 0.  0.
        -12    1    1    2    0    0  0.84141395844E+00  0.69473356831E+00  0.45032426919E+00  0.11804338727E+01  0.00000000000E+00 0.  1.
         11    1    3    3    0    0 -0.66121660848E+01  0.86884179910E+01 -0.15694946753E+01  0.11030533138E+02  0.51100000000E-03 0. -1.
        -11    1    3    3    0    0 -0.16650534173E+01 -0.69764567564E+01  0.39328192605E+02  0.39976869382E+02  0.51100000000E-03 0.  1.
         12    1    3    3    0    0  0.74358055436E+01 -0.24066948029E+01 -0.38209022199E+02  0.39000163607E+02  0.00000000000E+00 0. -1.
</event>
<event>
 7    1  0.1756449E-015  0.9000777E+02  0.7816164E-02  0.1186339E+00
        -11   -1    0    0    0    0  0.00000000000E+00  0.00000000000E+00  0.45593999997E+02  0.45594000000E+02  0.51100000000E-03 0. -1.
         11   -1    0    0    0    0 -0.00000000000E+00 -0.00000000000E+00 -0.45593999997E+02  0.45594000000E+02  0.51100000000E-03 0.  1.
    9900012    2    1    2    0    0 -0.23979873320E+00  0.96971700796E+00 -0.62856727028E+00  0.90007766412E+02  0.90000028129E+02 0.  0.
        -12    1    1    2    0    0  0.23979873320E+00 -0.96971700796E+00  0.62856727028E+00  0.11802335876E+01  0.00000000000E+00 0.  1.
         11    1    3    3    0    0 -0.36727906652E+01 -0.17766549375E+01 -0.84546682971E+01  0.93876147297E+01  0.51100000000E-03 0. -1.
        -11    1    3    3    0    0  0.10559002742E+02  0.16361148805E+02 -0.32264550380E+02  0.37685288119E+02  0.51100000000E-03 0.  1.
         12    1    3    3    0    0 -0.71260108101E+01 -0.13614776859E+02  0.40090651407E+02  0.42934863564E+02  0.00000000000E+00 0. -1.
</event>
<event>
 7    1  0.1756449E-015  0.9000773E+02  0.7816164E-02  0.1186339E+00
        -11   -1    0    0    0    0  0.00000000000E+00  0.00000000000E+00  0.45593999997E+02  0.45594000000E+02  0.51100000000E-03 0.  1.
         11   -1    0    0    0    0 -0.00000000000E+00 -0.00000000000E+00 -0.45593999997E+02  0.45594000000E+02  0.51100000000E-03 0. -1.
    9900012    2    1    2    0    0  0.87472043377E+00  0.75225449544E+00 -0.24902592735E+00  0.90007730295E+02  0.89999991535E+02 0.  0.
        -12    1    1    2    0    0 -0.87472043377E+00 -0.75225449544E+00  0.24902592735E+00  0.11802697046E+01  0.00000000000E+00 0.  1.
         11    1    3    3    0    0  0.54917016575E+01  0.16831448696E+01 -0.86956810705E+01  0.10421450633E+02  0.51100000000E-03 0. -1.
        -11    1    3    3    0    0  0.26313313646E+02 -0.22020988787E+02  0.20848291311E+02  0.40149292311E+02  0.51100000000E-03 0.  1.
         12    1    3    3    0    0 -0.30930294869E+02  0.21090098413E+02 -0.12401636168E+02  0.39436987352E+02  0.00000000000E+00 0. -1.
</event>
<event>
 7    1  0.1756449E-015  0.9000776E+02  0.7816164E-02  0.1186339E+00
        -11   -1    0    0    0    0  0.00000000000E+00  0.00000000000E+00  0.45593999997E+02  0.45594000000E+02  0.51100000000E-03 0.  1.
         11   -1    0    0    0    0 -0.00000000000E+00 -0.00000000000E+00 -0.45593999997E+02  0.45594000000E+02  0.51100000000E-03 0. -1.
    9900012    2    1    2    0    0  0.88312272548E+00 -0.76410993507E+00  0.17084850067E+00  0.90007763180E+02  0.90000024854E+02 0.  0.
        -12    1    1    2    0    0 -0.88312272548E+00  0.76410993507E+00 -0.17084850067E+00  0.11802368200E+01  0.00000000000E+00 0.  1.
         11    1    3    3    0    0 -0.12286707588E+02 -0.19897622642E+02 -0.30560467317E+02  0.38481433615E+02  0.51100000000E-03 0. -1.
        -11    1    3    3    0    0 -0.59931812036E+01  0.47468500976E+01 -0.45351645576E+01  0.88892364472E+01  0.51100000000E-03 0.  1.
        -12    1    3    3    0    0  0.19163011517E+02  0.14386662609E+02  0.35266480376E+02  0.42637093118E+02  0.00000000000E+00 0.  1.
</event>
<event>
 7    1  0.1756449E-015  0.9000776E+02  0.7816164E-02  0.1186339E+00
        -11   -1    0    0    0    0  0.00000000000E+00  0.00000000000E+00  0.45593999997E+02  0.45594000000E+02  0.51100000000E-03 0.  1.
         11   -1    0    0    0    0 -0.00000000000E+00 -0.00000000000E+00 -0.45593999997E+02  0.45594000000E+02  0.51100000000E-03 0. -1.
    9900012    2    1    2    0    0 -0.21527259488E+00 -0.10650856715E+01 -0.46066799986E+00  0.90007760709E+02  0.90000022350E+02 0.  0.
        -12    1    1    2    0    0  0.21527259488E+00  0.10650856715E+01  0.46066799986E+00  0.11802392909E+01  0.00000000000E+00 0.  1.
         11    1    3    3    0    0 -0.76503164182E+01  0.40318562017E+02 -0.86947655053E+01  0.41948930044E+02  0.51100000000E-03 0. -1.
        -11    1    3    3    0    0  0.43805587084E+01 -0.13923659145E+02 -0.73445597524E+01  0.16340138824E+02  0.51100000000E-03 0.  1.
        -12    1    3    3    0    0  0.30544851149E+01 -0.27459988543E+02  0.15578657258E+02  0.31718691841E+02  0.00000000000E+00 0.  1.
</event>
<event>
 7    1  0.1756449E-015  0.9000774E+02  0.7816164E-02  0.1186339E+00
        -11   -1    0    0    0    0  0.00000000000E+00  0.00000000000E+00  0.45593999997E+02  0.45594000000E+02  0.51100000000E-03 0.  1.
         11   -1    0    0    0    0 -0.00000000000E+00 -0.00000000000E+00 -0.45593999997E+02  0.45594000000E+02  0.51100000000E-03 0. -1.
    9900012    2    1    2    0    0  0.17092468863E+00 -0.94662479287E+00 -0.68388268482E+00  0.90007741861E+02  0.90000003254E+02 0.  0.
        -12    1    1    2    0    0 -0.17092468863E+00  0.94662479287E+00  0.68388268482E+00  0.11802581388E+01  0.00000000000E+00 0.  1.
         11    1    3    3    0    0  0.91295924277E-01  0.17959932588E+01  0.86839718116E+01  0.88682181647E+01  0.51100000000E-03 0. -1.
        -11    1    3    3    0    0 -0.27133819240E+02  0.19863114527E+02  0.16360114261E+02  0.37395732433E+02  0.51100000000E-03 0.  1.
         12    1    3    3    0    0  0.27213448004E+02 -0.22605732579E+02 -0.25727968758E+02  0.43743791264E+02  0.00000000000E+00 0. -1.
</event>
<event>
 7    1  0.1756449E-015  0.9000786E+02  0.7816164E-02  0.1186339E+00
        -11   -1    0    0    0    0  0.00000000000E+00  0.00000000000E+00  0.45593999997E+02  0.45594000000E+02  0.51100000000E-03 0. -1.
         11   -1    0    0    0    0 -0.00000000000E+00 -0.00000000000E+00 -0.45593999997E+02  0.45594000000E+02  0.51100000000E-03 0.  1.
    9900012    2    1    2    0    0 -0.41174852119E-01 -0.38846194669E+00  0.11136096975E+01  0.90007862461E+02  0.90000125445E+02 0.  0.
        -12    1    1    2    0    0  0.41174852119E-01  0.38846194669E+00 -0.11136096975E+01  0.11801375389E+01  0.00000000000E+00 0.  1.
         11    1    3    3    0    0  0.28202129382E+02 -0.16483301363E+02  0.15387905688E+02  0.36108821183E+02  0.51100000000E-03 0. -1.
        -11    1    3    3    0    0  0.12444692163E+01 -0.41215046557E+01  0.98629329129E+01  0.10761642540E+02  0.51100000000E-03 0.  1.
        -12    1    3    3    0    0 -0.29487773450E+02  0.20216344072E+02 -0.24137228903E+02  0.43137398738E+02  0.00000000000E+00 0.  1.
</event>
<event>
 7    1  0.1756449E-015  0.9000815E+02  0.7816164E-02  0.1186338E+00
        -11   -1    0    0    0    0  0.00000000000E+00  0.00000000000E+00  0.45593999997E+02  0.45594000000E+02  0.51100000000E-03 0.  1.
         11   -1    0    0    0    0 -0.00000000000E+00 -0.00000000000E+00 -0.45593999997E+02  0.45594000000E+02  0.51100000000E-03 0. -1.
    9900012    2    1    2    0    0 -0.74148701292E+00  0.88849696725E+00  0.22984133041E+00  0.90008145395E+02  0.90000412114E+02 0.  0.
        -12    1    1    2    0    0  0.74148701292E+00 -0.88849696725E+00 -0.22984133041E+00  0.11798546047E+01  0.00000000000E+00 0.  1.
         11    1    3    3    0    0  0.39264001924E+02 -0.51978868591E+01 -0.12634175242E+02  0.41572854835E+02  0.51100000000E-03 0. -1.
        -11    1    3    3    0    0 -0.18929575565E+01 -0.21626572009E+00  0.94661581900E+01  0.96559934917E+01  0.51100000000E-03 0.  1.
        -12    1    3    3    0    0 -0.38112531380E+02  0.63026495465E+01  0.33978583824E+01  0.38779297068E+02  0.00000000000E+00 0.  1.
</event>
<event>
 7    1  0.1756449E-015  0.9000772E+02  0.7816164E-02  0.1186339E+00
        -11   -1    0    0    0    0  0.00000000000E+00  0.00000000000E+00  0.45593999997E+02  0.45594000000E+02  0.51100000000E-03 0.  1.
         11   -1    0    0    0    0 -0.00000000000E+00 -0.00000000000E+00 -0.45593999997E+02  0.45594000000E+02  0.51100000000E-03 0. -1.
    9900012    2    1    2    0    0  0.34621118049E+00  0.88711529057E+00 -0.69729394750E+00  0.90007722673E+02  0.89999983812E+02 0.  0.
        -12    1    1    2    0    0 -0.34621118049E+00 -0.88711529057E+00  0.69729394750E+00  0.11802773274E+01  0.00000000000E+00 0.  1.
         11    1    3    3    0    0 -0.35843576986E+01  0.10447991125E+00  0.74605580584E+01  0.82775879921E+01  0.51100000000E-03 0. -1.
        -11    1    3    3    0    0 -0.54227097725E+01 -0.20913181796E+02  0.29927957776E+02  0.36911375090E+02  0.51100000000E-03 0.  1.
         12    1    3    3    0    0  0.93532786516E+01  0.21695817176E+02 -0.38085809782E+02  0.44818759590E+02  0.00000000000E+00 0. -1.
</event>
<event>
 7    1  0.1756449E-015  0.9000773E+02  0.7816164E-02  0.1186339E+00
        -11   -1    0    0    0    0  0.00000000000E+00  0.00000000000E+00  0.45593999997E+02  0.45594000000E+02  0.51100000000E-03 0.  1.
         11   -1    0    0    0    0 -0.00000000000E+00 -0.00000000000E+00 -0.45593999997E+02  0.45594000000E+02  0.51100000000E-03 0. -1.
    9900012    2    1    2    0    0  0.68884979001E+00 -0.60842924261E-02 -0.95837414784E+00  0.90007732209E+02  0.89999993474E+02 0.  0.
        -12    1    1    2    0    0 -0.68884979001E+00  0.60842924261E-02  0.95837414784E+00  0.11802677912E+01  0.00000000000E+00 0.  1.
         11    1    3    3    0    0  0.28841742265E+02 -0.30065855744E+02 -0.27654100468E+01  0.41754631737E+02  0.51100000000E-03 0. -1.
        -11    1    3    3    0    0 -0.64680671072E+01 -0.35242317576E+01  0.36775882261E+01  0.82329069597E+01  0.51100000000E-03 0.  1.
        -12    1    3    3    0    0 -0.21684825367E+02  0.33584003209E+02 -0.18705523272E+01  0.40020193512E+02  0.00000000000E+00 0.  1.
</event>
<event>
 7    1  0.1756449E-015  0.9000768E+02  0.7816164E-02  0.1186339E+00
        -11   -1    0    0    0    0  0.00000000000E+00  0.00000000000E+00  0.45593999997E+02  0.45594000000E+02  0.51100000000E-03 0.  1.
         11   -1    0    0    0    0 -0.00000000000E+00 -0.00000000000E+00 -0.45593999997E+02  0.45594000000E+02  0.51100000000E-03 0. -1.
    9900012    2    1    2    0    0 -0.23149318554E+00 -0.11393090377E+01  0.20383059774E+00  0.90007677548E+02  0.89999938092E+02 0.  0.
        -12    1    1    2    0    0  0.23149318554E+00  0.11393090377E+01 -0.20383059774E+00  0.11803224521E+01  0.00000000000E+00 0.  1.
         11    1    3    3    0    0 -0.64417910595E+01 -0.55534372417E+01 -0.10186645935E+01  0.85659217289E+01  0.51100000000E-03 0. -1.
        -11    1    3    3    0    0 -0.45475560709E+01 -0.89617356585E+01  0.38826110755E+02  0.40105608695E+02  0.51100000000E-03 0.  1.
         12    1    3    3    0    0  0.10757853945E+02  0.13375863863E+02 -0.37603615564E+02  0.41336147124E+02  0.00000000000E+00 0. -1.
</event>
<event>
 7    1  0.1756449E-015  0.9000782E+02  0.7816164E-02  0.1186339E+00
        -11   -1    0    0    0    0  0.00000000000E+00  0.00000000000E+00  0.45593999997E+02  0.45594000000E+02  0.51100000000E-03 0. -1.
         11   -1    0    0    0    0 -0.00000000000E+00 -0.00000000000E+00 -0.45593999997E+02  0.45594000000E+02  0.51100000000E-03 0.  1.
    9900012    2    1    2    0    0 -0.10714598903E+01 -0.23728142276E+00  0.43416109704E+00  0.90007820086E+02  0.90000082512E+02 0.  0.
        -12    1    1    2    0    0  0.10714598903E+01  0.23728142276E+00 -0.43416109704E+00  0.11801799136E+01  0.00000000000E+00 0.  1.
         11    1    3    3    0    0 -0.59380493608E+01 -0.32755774100E+02  0.15061991810E+02  0.36538538075E+02  0.51100000000E-03 0. -1.
        -11    1    3    3    0    0  0.39431061501E+01 -0.69972833770E+01  0.48724888980E+01  0.93942114672E+01  0.51100000000E-03 0.  1.
        -12    1    3    3    0    0  0.92348332032E+00  0.39515776054E+02 -0.19500319611E+02  0.44075070545E+02  0.00000000000E+00 0.  1.
</event>
<event>
 7    1  0.1756449E-015  0.9000778E+02  0.7816164E-02  0.1186339E+00
        -11   -1    0    0    0    0  0.00000000000E+00  0.00000000000E+00  0.45593999997E+02  0.45594000000E+02  0.51100000000E-03 0. -1.
         11   -1    0    0    0    0 -0.00000000000E+00 -0.00000000000E+00 -0.45593999997E+02  0.45594000000E+02  0.51100000000E-03 0.  1.
    9900012    2    1    2    0    0 -0.39412591194E+00 -0.66759915349E+00  0.88989073603E+00  0.90007775705E+02  0.90000037544E+02 0.  0.
        -12    1    1    2    0    0  0.39412591194E+00  0.66759915349E+00 -0.88989073603E+00  0.11802242949E+01  0.00000000000E+00 0.  1.
         11    1    3    3    0    0  0.87084686572E+01  0.37913681100E+02  0.40527023244E+01  0.39111494951E+02  0.51100000000E-03 0. -1.
        -11    1    3    3    0    0  0.92174082288E+01 -0.16379235616E+01  0.11626406356E+01  0.94337236317E+01  0.51100000000E-03 0.  1.
        -12    1    3    3    0    0 -0.18320002798E+02 -0.36943356692E+02 -0.43254522240E+01  0.41462557122E+02  0.00000000000E+00 0.  1.
</event>
<event>
 7    1  0.1756449E-015  0.9000760E+02  0.7816164E-02  0.1186339E+00
        -11   -1    0    0    0    0  0.00000000000E+00  0.00000000000E+00  0.45593999997E+02  0.45594000000E+02  0.51100000000E-03 0.  1.
         11   -1    0    0    0    0 -0.00000000000E+00 -0.00000000000E+00 -0.45593999997E+02  0.45594000000E+02  0.51100000000E-03 0. -1.
    9900012    2    1    2    0    0 -0.37987429530E+00  0.70090962020E+00 -0.87049573555E+00  0.90007601084E+02  0.89999860618E+02 0.  0.
        -12    1    1    2    0    0  0.37987429530E+00 -0.70090962020E+00  0.87049573555E+00  0.11803989163E+01  0.00000000000E+00 0.  1.
         11    1    3    3    0    0  0.22876167245E+02 -0.27714358426E+02  0.76432564419E+01  0.36739951825E+02  0.51100000000E-03 0. -1.
        -11    1    3    3    0    0  0.61040105959E+01  0.20495955196E+01  0.81891165674E+01  0.10417361353E+02  0.51100000000E-03 0.  1.
        -12    1    3    3    0    0 -0.29360052137E+02  0.26365672527E+02 -0.16702868745E+02  0.42850287905E+02  0.00000000000E+00 0.  1.
</event>
<event>
 7    1  0.1756449E-015  0.9000812E+02  0.7816164E-02  0.1186338E+00
        -11   -1    0    0    0    0  0.00000000000E+00  0.00000000000E+00  0.45593999997E+02  0.45594000000E+02  0.51100000000E-03 0. -1.
         11   -1    0    0    0    0 -0.00000000000E+00 -0.00000000000E+00 -0.45593999997E+02  0.45594000000E+02  0.51100000000E-03 0.  1.
    9900012    2    1    2    0    0  0.54426083010E+00 -0.32603980659E+00  0.99478209082E+00  0.90008121525E+02  0.90000387929E+02 0.  0.
        -12    1    1    2    0    0 -0.54426083010E+00  0.32603980659E+00 -0.99478209082E+00  0.11798784746E+01  0.00000000000E+00 0.  1.
         11    1    3    3    0    0  0.39406413217E+02 -0.11883934385E+02 -0.91198328105E+01  0.42157616747E+02  0.51100000000E-03 0. -1.
        -11    1    3    3    0    0 -0.18375071466E+01 -0.44058729700E+01  0.54765961080E+01  0.72650708416E+01  0.51100000000E-03 0.  1.
        -12    1    3    3    0    0 -0.37024645240E+02  0.15963767548E+02  0.46380187934E+01  0.40585433936E+02  0.00000000000E+00 0.  1.
</event>
<event>
 7    1  0.1756449E-015  0.9000671E+02  0.7816164E-02  0.1186341E+00
        -11   -1    0    0    0    0  0.00000000000E+00  0.00000000000E+00  0.45593999997E+02  0.45594000000E+02  0.51100000000E-03 0.  1.
         11   -1    0    0    0    0 -0.00000000000E+00 -0.00000000000E+00 -0.45593999997E+02  0.45594000000E+02  0.51100000000E-03 0. -1.
    9900012    2    1    2    0    0 -0.18365260541E+00  0.37691970853E+00 -0.11043760535E+01  0.90006711206E+02  0.89998958988E+02 0.  0.
        -12    1    1    2    0    0  0.18365260541E+00 -0.37691970853E+00  0.11043760535E+01  0.11812887936E+01  0.00000000000E+00 0.  1.
         11    1    3    3    0    0 -0.39653074445E+02  0.39405403344E+01 -0.16259306461E+02  0.43037881197E+02  0.51100000000E-03 0. -1.
        -11    1    3    3    0    0  0.50695329579E+01 -0.70573591508E+01  0.76717777123E+01  0.11591490677E+02  0.51100000000E-03 0.  1.
        -12    1    3    3    0    0  0.34399888882E+02  0.34937385249E+01  0.74831526948E+01  0.35377339332E+02  0.00000000000E+00 0.  1.
</event>
<event>
 7    1  0.1756449E-015  0.9000775E+02  0.7816164E-02  0.1186339E+00
        -11   -1    0    0    0    0  0.00000000000E+00  0.00000000000E+00  0.45593999997E+02  0.45594000000E+02  0.51100000000E-03 0.  1.
         11   -1    0    0    0    0 -0.00000000000E+00 -0.00000000000E+00 -0.45593999997E+02  0.45594000000E+02  0.51100000000E-03 0. -1.
    9900012    2    1    2    0    0 -0.10876162999E+00 -0.17242628915E+00 -0.11625059532E+01  0.90007754259E+02  0.90000015815E+02 0.  0.
        -12    1    1    2    0    0  0.10876162999E+00  0.17242628915E+00  0.11625059532E+01  0.11802457407E+01  0.00000000000E+00 0.  1.
         11    1    3    3    0    0 -0.12838791061E+02 -0.41035200590E+02  0.62202928504E+01  0.43444381533E+02  0.51100000000E-03 0. -1.
        -11    1    3    3    0    0 -0.39324805518E+01  0.55205325853E+01  0.10711296021E+00  0.67788020153E+01  0.51100000000E-03 0.  1.
        -12    1    3    3    0    0  0.16662509983E+02  0.35342241716E+02 -0.74899117638E+01  0.39784570711E+02  0.00000000000E+00 0.  1.
</event>
<event>
 7    1  0.2130659E-015  0.9000773E+02  0.7816164E-02  0.1186339E+00
        -11   -1    0    0    0    0  0.00000000000E+00  0.00000000000E+00  0.45593999997E+02  0.45594000000E+02  0.51100000000E-03 0.  1.
         11   -1    0    0    0    0 -0.00000000000E+00 -0.00000000000E+00 -0.45593999997E+02  0.45594000000E+02  0.51100000000E-03 0. -1.
    9900012    2    1    2    0    0  0.49654973234E+00  0.99201331445E+00 -0.40296190220E+00  0.90007732934E+02  0.89999994209E+02 0.  0.
        -12    1    1    2    0    0 -0.49654973234E+00 -0.99201331445E+00  0.40296190220E+00  0.11802670661E+01  0.00000000000E+00 0.  1.
         11    1    3    3    0    0  0.57048234104E+01  0.76843130003E+01  0.45498681733E-02  0.95704596229E+01  0.51100000000E-03 0. -1.
        -11    1    3    3    0    0 -0.16747196839E+02 -0.74929993588E+01  0.36990952919E+02  0.41290970435E+02  0.51100000000E-03 0.  1.
         12    1    3    3    0    0  0.11538923161E+02  0.80069967294E+00 -0.37398464690E+02  0.39146302876E+02  0.00000000000E+00 0. -1.
</event>
<event>
 7    1  0.1756449E-015  0.9000792E+02  0.7816164E-02  0.1186339E+00
        -11   -1    0    0    0    0  0.00000000000E+00  0.00000000000E+00  0.45593999997E+02  0.45594000000E+02  0.51100000000E-03 0.  1.
         11   -1    0    0    0    0 -0.00000000000E+00 -0.00000000000E+00 -0.45593999997E+02  0.45594000000E+02  0.51100000000E-03 0. -1.
    9900012    2    1    2    0    0  0.38216338256E+00 -0.10787167964E+01 -0.28796010285E+00  0.90007915343E+02  0.90000179025E+02 0.  0.
        -12    1    1    2    0    0 -0.38216338256E+00  0.10787167964E+01  0.28796010285E+00  0.11800846574E+01  0.00000000000E+00 0.  1.
         11    1    3    3    0    0  0.46430294116E+01 -0.36589913019E+01 -0.65611139648E+01  0.88314300192E+01  0.51100000000E-03 0. -1.
        -11    1    3    3    0    0 -0.42358722052E+02 -0.26322921138E+01  0.20086233433E+01  0.42487937860E+02  0.51100000000E-03 0.  1.
         12    1    3    3    0    0  0.38097856022E+02  0.52125666193E+01  0.42645305186E+01  0.38688547463E+02  0.00000000000E+00 0. -1.
</event>
<event>
 7    1  0.1756449E-015  0.9000782E+02  0.7816164E-02  0.1186339E+00
        -11   -1    0    0    0    0  0.00000000000E+00  0.00000000000E+00  0.45593999997E+02  0.45594000000E+02  0.51100000000E-03 0. -1.
         11   -1    0    0    0    0 -0.00000000000E+00 -0.00000000000E+00 -0.45593999997E+02  0.45594000000E+02  0.51100000000E-03 0.  1.
    9900012    2    1    2    0    0  0.45907812513E+00 -0.69721929010E+00  0.83424219178E+00  0.90007818871E+02  0.90000081280E+02 0.  0.
        -12    1    1    2    0    0 -0.45907812513E+00  0.69721929010E+00 -0.83424219178E+00  0.11801811293E+01  0.00000000000E+00 0.  1.
         11    1    3    3    0    0 -0.58135569316E+01 -0.56857853326E+01 -0.12432029852E+02  0.14855334582E+02  0.51100000000E-03 0. -1.
        -11    1    3    3    0    0 -0.95102755201E+01  0.14005200666E+02 -0.26490301049E+02  0.31437669062E+02  0.51100000000E-03 0.  1.
         12    1    3    3    0    0  0.15782910577E+02 -0.90166346233E+01  0.39756573092E+02  0.43714815226E+02  0.00000000000E+00 0. -1.
</event>
<event>
 7    1  0.1756449E-015  0.9000792E+02  0.7816164E-02  0.1186339E+00
        -11   -1    0    0    0    0  0.00000000000E+00  0.00000000000E+00  0.45593999997E+02  0.45594000000E+02  0.51100000000E-03 0.  1.
         11   -1    0    0    0    0 -0.00000000000E+00 -0.00000000000E+00 -0.45593999997E+02  0.45594000000E+02  0.51100000000E-03 0. -1.
    9900012    2    1    2    0    0  0.49135756508E+00  0.54580566432E+00 -0.92371062832E+00  0.90007924831E+02  0.90000188638E+02 0.  0.
        -12    1    1    2    0    0 -0.49135756508E+00 -0.54580566432E+00  0.92371062832E+00  0.11800751691E+01  0.00000000000E+00 0.  1.
         11    1    3    3    0    0 -0.15988996511E+02 -0.17932177023E+02  0.27421165818E+02  0.36457253288E+02  0.51100000000E-03 0. -1.
        -11    1    3    3    0    0 -0.49971723272E+01  0.34962755692E+01  0.71778956833E+01  0.94190159159E+01  0.51100000000E-03 0.  1.
        -12    1    3    3    0    0  0.21477526403E+02  0.14981707118E+02 -0.35522772130E+02  0.44131655627E+02  0.00000000000E+00 0.  1.
</event>
<event>
 7    1  0.1756449E-015  0.9000774E+02  0.7816164E-02  0.1186339E+00
        -11   -1    0    0    0    0  0.00000000000E+00  0.00000000000E+00  0.45593999997E+02  0.45594000000E+02  0.51100000000E-03 0. -1.
         11   -1    0    0    0    0 -0.00000000000E+00 -0.00000000000E+00 -0.45593999997E+02  0.45594000000E+02  0.51100000000E-03 0.  1.
    9900012    2    1    2    0    0 -0.94100324018E+00 -0.40818282378E+00  0.58387212725E+00  0.90007742835E+02  0.90000004240E+02 0.  0.
        -12    1    1    2    0    0  0.94100324018E+00  0.40818282378E+00 -0.58387212725E+00  0.11802571655E+01  0.00000000000E+00 0.  1.
         11    1    3    3    0    0  0.14152495564E+02 -0.17380043382E+02  0.29696056022E+02  0.37205037054E+02  0.51100000000E-03 0. -1.
        -11    1    3    3    0    0 -0.26113827491E+01 -0.43318399761E+01  0.72559024314E+01  0.88449012315E+01  0.51100000000E-03 0.  1.
        -12    1    3    3    0    0 -0.12482116055E+02  0.21303700534E+02 -0.36368086327E+02  0.43957804549E+02  0.00000000000E+00 0.  1.
</event>
<event>
 7    1  0.1756449E-015  0.9000787E+02  0.7816164E-02  0.1186339E+00
        -11   -1    0    0    0    0  0.00000000000E+00  0.00000000000E+00  0.45593999997E+02  0.45594000000E+02  0.51100000000E-03 0.  1.
         11   -1    0    0    0    0 -0.00000000000E+00 -0.00000000000E+00 -0.45593999997E+02  0.45594000000E+02  0.51100000000E-03 0. -1.
    9900012    2    1    2    0    0 -0.14078560757E+00  0.93064762159E+00 -0.71187891719E+00  0.90007874085E+02  0.90000137223E+02 0.  0.
        -12    1    1    2    0    0  0.14078560757E+00 -0.93064762159E+00  0.71187891719E+00  0.11801259152E+01  0.00000000000E+00 0.  1.
         11    1    3    3    0    0  0.19615059086E+02 -0.47084970962E+01 -0.31638879908E+02  0.37522516039E+02  0.51100000000E-03 0. -1.
        -11    1    3    3    0    0 -0.62940686182E+01  0.27141679296E+01 -0.83846884002E+01  0.10829820273E+02  0.51100000000E-03 0.  1.
        -12    1    3    3    0    0 -0.13461776075E+02  0.29249767882E+01  0.39311689391E+02  0.41655537772E+02  0.00000000000E+00 0.  1.
</event>
<event>
 7    1  0.1756449E-015  0.9000770E+02  0.7816164E-02  0.1186339E+00
        -11   -1    0    0    0    0  0.00000000000E+00  0.00000000000E+00  0.45593999997E+02  0.45594000000E+02  0.51100000000E-03 0.  1.
         11   -1    0    0    0    0 -0.00000000000E+00 -0.00000000000E+00 -0.45593999997E+02  0.45594000000E+02  0.51100000000E-03 0. -1.
    9900012    2    1    2    0    0 -0.76514095042E+00 -0.75152776209E-01 -0.89555650246E+00  0.90007699164E+02  0.89999959993E+02 0.  0.
        -12    1    1    2    0    0  0.76514095042E+00  0.75152776209E-01  0.89555650246E+00  0.11803008358E+01  0.00000000000E+00 0.  1.
         11    1    3    3    0    0  0.82280303850E+01  0.54419834578E+01 -0.35293765678E+02  0.36646494566E+02  0.51100000000E-03 0. -1.
        -11    1    3    3    0    0 -0.25520098717E+01  0.66913099354E+01 -0.68223080995E+01  0.98909186177E+01  0.51100000000E-03 0.  1.
        -12    1    3    3    0    0 -0.64411614637E+01 -0.12208446169E+02  0.41220517275E+02  0.43470285981E+02  0.00000000000E+00 0.  1.
</event>
<event>
 7    1  0.1756449E-015  0.9000771E+02  0.7816164E-02  0.1186339E+00
        -11   -1    0    0    0    0  0.00000000000E+00  0.00000000000E+00  0.45593999997E+02  0.45594000000E+02  0.51100000000E-03 0. -1.
         11   -1    0    0    0    0 -0.00000000000E+00 -0.00000000000E+00 -0.45593999997E+02  0.45594000000E+02  0.51100000000E-03 0.  1.
    9900012    2    1    2    0    0 -0.57112854859E+00 -0.96497309605E+00  0.36841388349E+00  0.90007707797E+02  0.89999968740E+02 0.  0.
        -12    1    1    2    0    0  0.57112854859E+00  0.96497309605E+00 -0.36841388349E+00  0.11802922031E+01  0.00000000000E+00 0.  1.
         11    1    3    3    0    0 -0.77995415536E+01 -0.49742833971E+01 -0.59004299746E+01  0.10972302307E+02  0.51100000000E-03 0. -1.
        -11    1    3    3    0    0  0.15575323781E+01 -0.16201980407E+02 -0.31708796757E+02  0.35642360588E+02  0.51100000000E-03 0.  1.
         12    1    3    3    0    0  0.56708806269E+01  0.20211290708E+02  0.37977640615E+02  0.43393044902E+02  0.00000000000E+00 0. -1.
</event>
<event>
 7    1  0.1756449E-015  0.9000775E+02  0.7816164E-02  0.1186339E+00
        -11   -1    0    0    0    0  0.00000000000E+00  0.00000000000E+00  0.45593999997E+02  0.45594000000E+02  0.51100000000E-03 0. -1.
         11   -1    0    0    0    0 -0.00000000000E+00 -0.00000000000E+00 -0.45593999997E+02  0.45594000000E+02  0.51100000000E-03 0.  1.
    9900012    2    1    2    0    0 -0.25377442131E+00 -0.88901033855E+00  0.73366158022E+00  0.90007745725E+02  0.90000007169E+02 0.  0.
        -12    1    1    2    0    0  0.25377442131E+00  0.88901033855E+00 -0.73366158022E+00  0.11802542748E+01  0.00000000000E+00 0.  1.
         11    1    3    3    0    0  0.35938881336E+01  0.11611177893E+01 -0.88117079296E+01  0.95869924030E+01  0.51100000000E-03 0. -1.
        -11    1    3    3    0    0  0.18924701274E+02 -0.32703167437E+02  0.17134399709E+02  0.41487698567E+02  0.51100000000E-03 0.  1.
         12    1    3    3    0    0 -0.22772363829E+02  0.30653039309E+02 -0.75890301992E+01  0.38933054756E+02  0.00000000000E+00 0. -1.
</event>
<event>
 7    1  0.1756449E-015  0.9000781E+02  0.7816164E-02  0.1186339E+00
        -11   -1    0    0    0    0  0.00000000000E+00  0.00000000000E+00  0.45593999997E+02  0.45594000000E+02  0.51100000000E-03 0.  1.
         11   -1    0    0    0    0 -0.00000000000E+00 -0.00000000000E+00 -0.45593999997E+02  0.45594000000E+02  0.51100000000E-03 0. -1.
    9900012    2    1    2    0    0 -0.40779685317E+00 -0.13431825683E+00 -0.10993201376E+01  0.90007811696E+02  0.90000074011E+02 0.  0.
        -12    1    1    2    0    0  0.40779685317E+00  0.13431825683E+00  0.10993201376E+01  0.11801883038E+01  0.00000000000E+00 0.  1.
         11    1    3    3    0    0 -0.77497513198E+01 -0.75959237059E+01  0.16463657081E+01  0.10975756137E+02  0.51100000000E-03 0. -1.
        -11    1    3    3    0    0  0.17433664836E+02  0.19277871132E+02  0.31848370728E+02  0.41108243738E+02  0.51100000000E-03 0.  1.
         12    1    3    3    0    0 -0.10091710369E+02 -0.11816265683E+02 -0.34594056573E+02  0.37923811821E+02  0.00000000000E+00 0. -1.
</event>
<event>
 7    1  0.1756449E-015  0.9000770E+02  0.7816164E-02  0.1186339E+00
        -11   -1    0    0    0    0  0.00000000000E+00  0.00000000000E+00  0.45593999997E+02  0.45594000000E+02  0.51100000000E-03 0.  1.
         11   -1    0    0    0    0 -0.00000000000E+00 -0.00000000000E+00 -0.45593999997E+02  0.45594000000E+02  0.51100000000E-03 0. -1.
    9900012    2    1    2    0    0 -0.10333912538E+01  0.53778772969E+00  0.18970579160E+00  0.90007702828E+02  0.89999963706E+02 0.  0.
        -12    1    1    2    0    0  0.10333912538E+01 -0.53778772969E+00 -0.18970579160E+00  0.11802971715E+01  0.00000000000E+00 0.  1.
         11    1    3    3    0    0 -0.31205364291E+01  0.39989187004E+01  0.79646060639E+01  0.94426716766E+01  0.51100000000E-03 0. -1.
        -11    1    3    3    0    0 -0.24371041275E+02  0.29230497926E+02 -0.54299077530E+01  0.38442860979E+02  0.51100000000E-03 0.  1.
         12    1    3    3    0    0  0.26458186450E+02 -0.32691628897E+02 -0.23449925193E+01  0.42122170173E+02  0.00000000000E+00 0. -1.
</event>
<event>
 7    1  0.1756449E-015  0.9000772E+02  0.7816164E-02  0.1186339E+00
        -11   -1    0    0    0    0  0.00000000000E+00  0.00000000000E+00  0.45593999997E+02  0.45594000000E+02  0.51100000000E-03 0. -1.
         11   -1    0    0    0    0 -0.00000000000E+00 -0.00000000000E+00 -0.45593999997E+02  0.45594000000E+02  0.51100000000E-03 0.  1.
    9900012    2    1    2    0    0 -0.11672894443E+01 -0.75631567561E-01 -0.15743443028E+00  0.90007715975E+02  0.89999977025E+02 0.  0.
        -12    1    1    2    0    0  0.11672894443E+01  0.75631567561E-01  0.15743443028E+00  0.11802840254E+01  0.00000000000E+00 0.  1.
         11    1    3    3    0    0  0.71961415198E+01 -0.14003804756E+01 -0.77051499743E+01  0.10635546748E+02  0.51100000000E-03 0. -1.
        -11    1    3    3    0    0 -0.39760757001E+02  0.10764593240E+02 -0.97109266129E+01  0.42321346397E+02  0.51100000000E-03 0.  1.
         12    1    3    3    0    0  0.31397326036E+02 -0.94398443318E+01  0.17258642157E+02  0.37050822830E+02  0.00000000000E+00 0. -1.
</event>
<event>
 7    1  0.1756449E-015  0.9000827E+02  0.7816164E-02  0.1186338E+00
        -11   -1    0    0    0    0  0.00000000000E+00  0.00000000000E+00  0.45593999997E+02  0.45594000000E+02  0.51100000000E-03 0.  1.
         11   -1    0    0    0    0 -0.00000000000E+00 -0.00000000000E+00 -0.45593999997E+02  0.45594000000E+02  0.51100000000E-03 0. -1.
    9900012    2    1    2    0    0  0.78237037513E+00  0.87806339298E+00 -0.93077786436E-01  0.90008270285E+02  0.90000538651E+02 0.  0.
        -12    1    1    2    0    0 -0.78237037513E+00 -0.87806339298E+00  0.93077786436E-01  0.11797297149E+01  0.00000000000E+00 0.  1.
         11    1    3    3    0    0 -0.37761667133E+01 -0.75459346288E+01  0.45987222445E+01  0.96098288753E+01  0.51100000000E-03 0. -1.
        -11    1    3    3    0    0 -0.25325356080E+02 -0.99950102001E+01  0.23036172301E+02  0.35664255551E+02  0.51100000000E-03 0.  1.
         12    1    3    3    0    0  0.29883893168E+02  0.18419008222E+02 -0.27727972332E+02  0.44734185859E+02  0.00000000000E+00 0. -1.
</event>
<event>
 7    1  0.1756449E-015  0.9000780E+02  0.7816164E-02  0.1186339E+00
        -11   -1    0    0    0    0  0.00000000000E+00  0.00000000000E+00  0.45593999997E+02  0.45594000000E+02  0.51100000000E-03 0.  1.
         11   -1    0    0    0    0 -0.00000000000E+00 -0.00000000000E+00 -0.45593999997E+02  0.45594000000E+02  0.51100000000E-03 0. -1.
    9900012    2    1    2    0    0 -0.82781743437E+00  0.66402402792E-01 -0.83855537905E+00  0.90007802513E+02  0.90000064707E+02 0.  0.
        -12    1    1    2    0    0  0.82781743437E+00 -0.66402402792E-01  0.83855537905E+00  0.11801974866E+01  0.00000000000E+00 0.  1.
         11    1    3    3    0    0 -0.11257430422E+02 -0.39569034864E+02 -0.32300179580E+01  0.41265860903E+02  0.51100000000E-03 0. -1.
        -11    1    3    3    0    0  0.45827782651E+01 -0.78075417346E+00  0.61759263116E+01  0.77300387951E+01  0.51100000000E-03 0.  1.
        -12    1    3    3    0    0  0.58468347223E+01  0.40416191440E+02 -0.37844637326E+01  0.41011902816E+02  0.00000000000E+00 0.  1.
</event>
<event>
 7    1  0.1756449E-015  0.9000789E+02  0.7816164E-02  0.1186339E+00
        -11   -1    0    0    0    0  0.00000000000E+00  0.00000000000E+00  0.45593999997E+02  0.45594000000E+02  0.51100000000E-03 0.  1.
         11   -1    0    0    0    0 -0.00000000000E+00 -0.00000000000E+00 -0.45593999997E+02  0.45594000000E+02  0.51100000000E-03 0. -1.
    9900012    2    1    2    0    0 -0.30107173999E+00  0.10177172729E+01 -0.51600769773E+00  0.90007891283E+02  0.90000154648E+02 0.  0.
        -12    1    1    2    0    0  0.30107173999E+00 -0.10177172729E+01  0.51600769773E+00  0.11801087172E+01  0.00000000000E+00 0.  1.
         11    1    3    3    0    0 -0.28863600623E+01  0.78838547832E+01  0.72950514172E+01  0.11122230716E+02  0.51100000000E-03 0. -1.
        -11    1    3    3    0    0  0.36005847219E+01  0.35462442905E+02 -0.80578216027E+01  0.36544186355E+02  0.51100000000E-03 0.  1.
         12    1    3    3    0    0 -0.10152963995E+01 -0.42328580415E+02  0.24676248784E+00  0.42341474212E+02  0.00000000000E+00 0. -1.
</event>
<event>
 7    1  0.1756449E-015  0.9000763E+02  0.7816164E-02  0.1186339E+00
        -11   -1    0    0    0    0  0.00000000000E+00  0.00000000000E+00  0.45593999997E+02  0.45594000000E+02  0.51100000000E-03 0.  1.
         11   -1    0    0    0    0 -0.00000000000E+00 -0.00000000000E+00 -0.45593999997E+02  0.45594000000E+02  0.51100000000E-03 0. -1.
    9900012    2    1    2    0    0  0.17940176790E-03 -0.11013296008E+01  0.42467099008E+00  0.90007630409E+02  0.89999890330E+02 0.  0.
        -12    1    1    2    0    0 -0.17940176790E-03  0.11013296008E+01 -0.42467099008E+00  0.11803695911E+01  0.00000000000E+00 0.  1.
         11    1    3    3    0    0 -0.13254562947E+02 -0.31202524537E+02  0.23398526072E+02  0.41191892394E+02  0.51100000000E-03 0. -1.
        -11    1    3    3    0    0 -0.39344071452E+01 -0.32474916537E+01 -0.60967765294E+00  0.51378467013E+01  0.51100000000E-03 0.  1.
        -12    1    3    3    0    0  0.17189149494E+02  0.33348686590E+02 -0.22364177429E+02  0.43677891314E+02  0.00000000000E+00 0.  1.
</event>
<event>
 7    1  0.1756449E-015  0.9000781E+02  0.7816164E-02  0.1186339E+00
        -11   -1    0    0    0    0  0.00000000000E+00  0.00000000000E+00  0.45593999997E+02  0.45594000000E+02  0.51100000000E-03 0. -1.
         11   -1    0    0    0    0 -0.00000000000E+00 -0.00000000000E+00 -0.45593999997E+02  0.45594000000E+02  0.51100000000E-03 0.  1.
    9900012    2    1    2    0    0 -0.20577000580E+00  0.98463917433E+00  0.61724606312E+00  0.90007810057E+02  0.90000072350E+02 0.  0.
        -12    1    1    2    0    0  0.20577000580E+00 -0.98463917433E+00 -0.61724606312E+00  0.11801899429E+01  0.00000000000E+00 0.  1.
         11    1    3    3    0    0 -0.56215567781E+01 -0.27611417513E+01 -0.65390736948E+01  0.90545728462E+01  0.51100000000E-03 0. -1.
        -11    1    3    3    0    0  0.25451389871E+02 -0.30283585848E+02 -0.44130900537E+01  0.39803821201E+02  0.51100000000E-03 0.  1.
         12    1    3    3    0    0 -0.20035603098E+02  0.34029366773E+02  0.11569409812E+02  0.41149416009E+02  0.00000000000E+00 0. -1.
</event>
<event>
 7    1  0.1756449E-015  0.9000759E+02  0.7816164E-02  0.1186339E+00
        -11   -1    0    0    0    0  0.00000000000E+00  0.00000000000E+00  0.45593999997E+02  0.45594000000E+02  0.51100000000E-03 0.  1.
         11   -1    0    0    0    0 -0.00000000000E+00 -0.00000000000E+00 -0.45593999997E+02  0.45594000000E+02  0.51100000000E-03 0. -1.
    9900012    2    1    2    0    0 -0.27523363808E+00  0.36163249827E+00 -0.10894176134E+01  0.90007592293E+02  0.89999851711E+02 0.  0.
        -12    1    1    2    0    0  0.27523363808E+00 -0.36163249827E+00  0.10894176134E+01  0.11804077074E+01  0.00000000000E+00 0.  1.
         11    1    3    3    0    0 -0.12518441856E+01  0.54131002620E+01 -0.11595646562E+02  0.12857985369E+02  0.51100000000E-03 0. -1.
        -11    1    3    3    0    0  0.35480031416E+02 -0.11955773263E+02 -0.66112985704E+01  0.38019500426E+02  0.51100000000E-03 0.  1.
         12    1    3    3    0    0 -0.34503420869E+02  0.69043054992E+01  0.17117527519E+02  0.39130106497E+02  0.00000000000E+00 0. -1.
</event>
<event>
 7    1  0.1756449E-015  0.9000785E+02  0.7816164E-02  0.1186339E+00
        -11   -1    0    0    0    0  0.00000000000E+00  0.00000000000E+00  0.45593999997E+02  0.45594000000E+02  0.51100000000E-03 0.  1.
         11   -1    0    0    0    0 -0.00000000000E+00 -0.00000000000E+00 -0.45593999997E+02  0.45594000000E+02  0.51100000000E-03 0. -1.
    9900012    2    1    2    0    0  0.89433787718E-01 -0.27942844511E+00 -0.11430967494E+01  0.90007852197E+02  0.90000115046E+02 0.  0.
        -12    1    1    2    0    0 -0.89433787718E-01  0.27942844511E+00  0.11430967494E+01  0.11801478029E+01  0.00000000000E+00 0.  1.
         11    1    3    3    0    0  0.35501655329E+02  0.11459430494E+02 -0.24529533800E+02  0.44647330346E+02  0.51100000000E-03 0. -1.
        -11    1    3    3    0    0 -0.42356545611E+01 -0.18286837536E+01  0.79408515229E+01  0.91837888151E+01  0.51100000000E-03 0.  1.
        -12    1    3    3    0    0 -0.31176566980E+02 -0.99101751851E+01  0.15445585528E+02  0.36176733036E+02  0.00000000000E+00 0.  1.
</event>
<event>
 7    1  0.1756449E-015  0.9000800E+02  0.7816164E-02  0.1186339E+00
        -11   -1    0    0    0    0  0.00000000000E+00  0.00000000000E+00  0.45593999997E+02  0.45594000000E+02  0.51100000000E-03 0.  1.
         11   -1    0    0    0    0 -0.00000000000E+00 -0.00000000000E+00 -0.45593999997E+02  0.45594000000E+02  0.51100000000E-03 0. -1.
    9900012    2    1    2    0    0 -0.47928454766E+00  0.10736429327E+01 -0.99916498149E-01  0.90007997402E+02  0.90000262167E+02 0.  0.
        -12    1    1    2    0    0  0.47928454766E+00 -0.10736429327E+01  0.99916498149E-01  0.11800025980E+01  0.00000000000E+00 0.  1.
         11    1    3    3    0    0  0.33233679030E+02  0.11801446062E+02 -0.21728395770E+02  0.41423118352E+02  0.51100000000E-03 0. -1.
        -11    1    3    3    0    0 -0.63273376721E+01  0.65074862924E+01 -0.95341815542E+00  0.91264224263E+01  0.51100000000E-03 0.  1.
        -12    1    3    3    0    0 -0.27385625905E+02 -0.17235289422E+02  0.22581897428E+02  0.39458456624E+02  0.00000000000E+00 0.  1.
</event>
<event>
 7    1  0.1756449E-015  0.9000779E+02  0.7816164E-02  0.1186339E+00
        -11   -1    0    0    0    0  0.00000000000E+00  0.00000000000E+00  0.45593999997E+02  0.45594000000E+02  0.51100000000E-03 0.  1.
         11   -1    0    0    0    0 -0.00000000000E+00 -0.00000000000E+00 -0.45593999997E+02  0.45594000000E+02  0.51100000000E-03 0. -1.
    9900012    2    1    2    0    0 -0.11028882297E+01  0.37113189476E+00 -0.19697251261E+00  0.90007788366E+02  0.90000050372E+02 0.  0.
        -12    1    1    2    0    0  0.11028882297E+01 -0.37113189476E+00  0.19697251261E+00  0.11802116341E+01  0.00000000000E+00 0.  1.
         11    1    3    3    0    0  0.11807499228E+02  0.10111934283E+02 -0.24608202019E+02  0.29107247548E+02  0.51100000000E-03 0. -1.
        -11    1    3    3    0    0  0.65756868271E+01 -0.27831462389E+02  0.17117400628E+02  0.33329196817E+02  0.51100000000E-03 0.  1.
         12    1    3    3    0    0 -0.19486074285E+02  0.18090660001E+02  0.72938288783E+01  0.27571344001E+02  0.00000000000E+00 0. -1.
</event>
<event>
 7    1  0.1756449E-015  0.9000773E+02  0.7816164E-02  0.1186339E+00
        -11   -1    0    0    0    0  0.00000000000E+00  0.00000000000E+00  0.45593999997E+02  0.45594000000E+02  0.51100000000E-03 0. -1.
         11   -1    0    0    0    0 -0.00000000000E+00 -0.00000000000E+00 -0.45593999997E+02  0.45594000000E+02  0.51100000000E-03 0.  1.
    9900012    2    1    2    0    0 -0.61563358592E+00 -0.70646090242E+00  0.71760095583E+00  0.90007727637E+02  0.89999988842E+02 0.  0.
        -12    1    1    2    0    0  0.61563358592E+00  0.70646090242E+00 -0.71760095583E+00  0.11802723629E+01  0.00000000000E+00 0.  1.
         11    1    3    3    0    0  0.22906275604E+01  0.12045480765E+02  0.44294607923E+01  0.13036897815E+02  0.51100000000E-03 0. -1.
        -11    1    3    3    0    0 -0.28926821871E+02  0.16448219206E+02  0.11203668050E+02  0.35111637909E+02  0.51100000000E-03 0.  1.
         12    1    3    3    0    0  0.26020560725E+02 -0.29200160873E+02 -0.14915527887E+02  0.41859191913E+02  0.00000000000E+00 0. -1.
</event>
<event>
 7    1  0.1756449E-015  0.9000780E+02  0.7816164E-02  0.1186339E+00
        -11   -1    0    0    0    0  0.00000000000E+00  0.00000000000E+00  0.45593999997E+02  0.45594000000E+02  0.51100000000E-03 0.  1.
         11   -1    0    0    0    0 -0.00000000000E+00 -0.00000000000E+00 -0.45593999997E+02  0.45594000000E+02  0.51100000000E-03 0. -1.
    9900012    2    1    2    0    0 -0.23192038854E+00 -0.11516801517E+01  0.11275325559E+00  0.90007801909E+02  0.90000064094E+02 0.  0.
        -12    1    1    2    0    0  0.23192038854E+00  0.11516801517E+01 -0.11275325559E+00  0.11801980915E+01  0.00000000000E+00 0.  1.
         11    1    3    3    0    0  0.25251742665E+01  0.46495430047E+01  0.43423164470E+01  0.68447401423E+01  0.51100000000E-03 0. -1.
        -11    1    3    3    0    0  0.31939080001E+02 -0.15742221871E+02  0.18882745692E+02  0.40304844198E+02  0.51100000000E-03 0.  1.
         12    1    3    3    0    0 -0.34696174656E+02  0.99409987141E+01 -0.23112308883E+02  0.42858217568E+02  0.00000000000E+00 0. -1.
</event>
<event>
 7    1  0.1756449E-015  0.9000793E+02  0.7816164E-02  0.1186339E+00
        -11   -1    0    0    0    0  0.00000000000E+00  0.00000000000E+00  0.45593999997E+02  0.45594000000E+02  0.51100000000E-03 0. -1.
         11   -1    0    0    0    0 -0.00000000000E+00 -0.00000000000E+00 -0.45593999997E+02  0.45594000000E+02  0.51100000000E-03 0.  1.
    9900012    2    1    2    0    0  0.60809862858E+00 -0.63064132704E+00  0.79061928849E+00  0.90007927424E+02  0.90000191266E+02 0.  0.
        -12    1    1    2    0    0 -0.60809862858E+00  0.63064132704E+00 -0.79061928849E+00  0.11800725761E+01  0.00000000000E+00 0.  1.
         11    1    3    3    0    0  0.49633984368E+01 -0.80173136311E+01 -0.25289608969E+01  0.97625962419E+01  0.51100000000E-03 0. -1.
        -11    1    3    3    0    0  0.14675255428E+02 -0.32642075996E+02 -0.12480312807E+00  0.35789437315E+02  0.51100000000E-03 0.  1.
         12    1    3    3    0    0 -0.19030555236E+02  0.40028748301E+02  0.34443833134E+01  0.44455893867E+02  0.00000000000E+00 0. -1.
</event>
<event>
 7    1  0.1756449E-015  0.9000779E+02  0.7816164E-02  0.1186339E+00
        -11   -1    0    0    0    0  0.00000000000E+00  0.00000000000E+00  0.45593999997E+02  0.45594000000E+02  0.51100000000E-03 0.  1.
         11   -1    0    0    0    0 -0.00000000000E+00 -0.00000000000E+00 -0.45593999997E+02  0.45594000000E+02  0.51100000000E-03 0. -1.
    9900012    2    1    2    0    0  0.43497633116E+00 -0.87711049551E+00 -0.65907233099E+00  0.90007786643E+02  0.90000048627E+02 0.  0.
        -12    1    1    2    0    0 -0.43497633116E+00  0.87711049551E+00  0.65907233099E+00  0.11802133568E+01  0.00000000000E+00 0.  1.
         11    1    3    3    0    0  0.20920677358E+02  0.62319323532E+01 -0.19700791696E+02  0.29404641057E+02  0.51100000000E-03 0. -1.
        -11    1    3    3    0    0  0.16112105434E+01 -0.89302869639E+01 -0.16431579521E+02  0.18770797279E+02  0.51100000000E-03 0.  1.
        -12    1    3    3    0    0 -0.22096911570E+02  0.18212441152E+01  0.35473298886E+02  0.41832348307E+02  0.00000000000E+00 0.  1.
</event>
<event>
 7    1  0.1756449E-015  0.9000774E+02  0.7816164E-02  0.1186339E+00
        -11   -1    0    0    0    0  0.00000000000E+00  0.00000000000E+00  0.45593999997E+02  0.45594000000E+02  0.51100000000E-03 0.  1.
         11   -1    0    0    0    0 -0.00000000000E+00 -0.00000000000E+00 -0.45593999997E+02  0.45594000000E+02  0.51100000000E-03 0. -1.
    9900012    2    1    2    0    0  0.44575583220E+00  0.10724401094E+01 -0.21023462089E+00  0.90007735349E+02  0.89999996656E+02 0.  0.
        -12    1    1    2    0    0 -0.44575583220E+00 -0.10724401094E+01  0.21023462089E+00  0.11802646508E+01  0.00000000000E+00 0.  1.
         11    1    3    3    0    0  0.24205386195E+01  0.27803143562E+02 -0.26668708625E+02  0.38601733370E+02  0.51100000000E-03 0. -1.
        -11    1    3    3    0    0 -0.41115327983E+01 -0.16694328396E+01 -0.77592421990E+01  0.89385428187E+01  0.51100000000E-03 0.  1.
        -12    1    3    3    0    0  0.21367500110E+01 -0.25061270613E+02  0.34217716204E+02  0.42467459161E+02  0.00000000000E+00 0.  1.
</event>
<event>
 7    1  0.1756449E-015  0.9000779E+02  0.7816164E-02  0.1186339E+00
        -11   -1    0    0    0    0  0.00000000000E+00  0.00000000000E+00  0.45593999997E+02  0.45594000000E+02  0.51100000000E-03 0.  1.
         11   -1    0    0    0    0 -0.00000000000E+00 -0.00000000000E+00 -0.45593999997E+02  0.45594000000E+02  0.51100000000E-03 0. -1.
    9900012    2    1    2    0    0  0.53708933695E+00 -0.99527578190E+00  0.33743489372E+00  0.90007787669E+02  0.90000049667E+02 0.  0.
        -12    1    1    2    0    0 -0.53708933695E+00  0.99527578190E+00 -0.33743489372E+00  0.11802123306E+01  0.00000000000E+00 0.  1.
         11    1    3    3    0    0  0.38845607584E+02 -0.50925029544E+01 -0.54107299932E+01  0.39549852265E+02  0.51100000000E-03 0. -1.
        -11    1    3    3    0    0  0.12304620469E+01 -0.64649582505E+01  0.68748510889E+01  0.95170005666E+01  0.51100000000E-03 0.  1.
        -12    1    3    3    0    0 -0.39538980294E+02  0.10562185423E+02 -0.11266862020E+01  0.40940934837E+02  0.00000000000E+00 0.  1.
</event>
<event>
 7    1  0.2661420E-015  0.9000776E+02  0.7816164E-02  0.1186339E+00
        -11   -1    0    0    0    0  0.00000000000E+00  0.00000000000E+00  0.45593999997E+02  0.45594000000E+02  0.51100000000E-03 0. -1.
         11   -1    0    0    0    0 -0.00000000000E+00 -0.00000000000E+00 -0.45593999997E+02  0.45594000000E+02  0.51100000000E-03 0.  1.
    9900012    2    1    2    0    0  0.40471110388E-02 -0.19552316204E+00  0.11639266929E+01  0.90007758062E+02  0.90000019668E+02 0.  0.
        -12    1    1    2    0    0 -0.40471110388E-02  0.19552316204E+00 -0.11639266929E+01  0.11802419381E+01  0.00000000000E+00 0.  1.
         11    1    3    3    0    0  0.43280755627E+01  0.88419919497E+01  0.21797335427E+00  0.98468559632E+01  0.51100000000E-03 0. -1.
        -11    1    3    3    0    0  0.97549764605E+01  0.24090990482E+02 -0.24784734683E+02  0.35914042682E+02  0.51100000000E-03 0.  1.
         12    1    3    3    0    0 -0.14079004912E+02 -0.33128505594E+02  0.25730688021E+02  0.44246859417E+02  0.00000000000E+00 0. -1.
</event>
<event>
 7    1  0.1756449E-015  0.9000778E+02  0.7816164E-02  0.1186339E+00
        -11   -1    0    0    0    0  0.00000000000E+00  0.00000000000E+00  0.45593999997E+02  0.45594000000E+02  0.51100000000E-03 0. -1.
         11   -1    0    0    0    0 -0.00000000000E+00 -0.00000000000E+00 -0.45593999997E+02  0.45594000000E+02  0.51100000000E-03 0.  1.
    9900012    2    1    2    0    0 -0.12307087563E+00 -0.26160234466E+00  0.11442617466E+01  0.90007780880E+02  0.90000042787E+02 0.  0.
        -12    1    1    2    0    0  0.12307087563E+00  0.26160234466E+00 -0.11442617466E+01  0.11802191203E+01  0.00000000000E+00 0.  1.
         11    1    3    3    0    0 -0.29934841772E+02 -0.19379981682E+02 -0.24781702263E+02  0.43425927845E+02  0.51100000000E-03 0. -1.
        -11    1    3    3    0    0  0.78885757131E+01 -0.21112499588E+01  0.60344859328E+01  0.10153916678E+02  0.51100000000E-03 0.  1.
        -12    1    3    3    0    0  0.21923195183E+02  0.21229629297E+02  0.19891478077E+02  0.36427936356E+02  0.00000000000E+00 0.  1.
</event>
<event>
 7    1  0.1756449E-015  0.9000779E+02  0.7816164E-02  0.1186339E+00
        -11   -1    0    0    0    0  0.00000000000E+00  0.00000000000E+00  0.45593999997E+02  0.45594000000E+02  0.51100000000E-03 0.  1.
         11   -1    0    0    0    0 -0.00000000000E+00 -0.00000000000E+00 -0.45593999997E+02  0.45594000000E+02  0.51100000000E-03 0. -1.
    9900012    2    1    2    0    0 -0.34676488085E-01 -0.94559221396E+00 -0.70537091645E+00  0.90007790178E+02  0.90000052208E+02 0.  0.
        -12    1    1    2    0    0  0.34676488085E-01  0.94559221396E+00  0.70537091645E+00  0.11802098219E+01  0.00000000000E+00 0.  1.
         11    1    3    3    0    0  0.27097072794E+02  0.15603756939E+02 -0.18612675296E+02  0.36389012992E+02  0.51100000000E-03 0. -1.
        -11    1    3    3    0    0  0.52230819981E+01  0.73620709107E+01 -0.11537043030E+01  0.91000938200E+01  0.51100000000E-03 0.  1.
        -12    1    3    3    0    0 -0.32354831280E+02 -0.23911420064E+02  0.19061008682E+02  0.44518683366E+02  0.00000000000E+00 0.  1.
</event>
<event>
 7    1  0.1756449E-015  0.9000776E+02  0.7816164E-02  0.1186339E+00
        -11   -1    0    0    0    0  0.00000000000E+00  0.00000000000E+00  0.45593999997E+02  0.45594000000E+02  0.51100000000E-03 0. -1.
         11   -1    0    0    0    0 -0.00000000000E+00 -0.00000000000E+00 -0.45593999997E+02  0.45594000000E+02  0.51100000000E-03 0.  1.
    9900012    2    1    2    0    0  0.41596401383E+00 -0.10459220375E+01  0.35493581690E+00  0.90007763412E+02  0.90000025089E+02 0.  0.
        -12    1    1    2    0    0 -0.41596401383E+00  0.10459220375E+01 -0.35493581690E+00  0.11802365879E+01  0.00000000000E+00 0.  1.
         11    1    3    3    0    0  0.28370168319E+01 -0.17594539055E+02  0.33726888086E+02  0.38146027962E+02  0.51100000000E-03 0. -1.
        -11    1    3    3    0    0 -0.88418701427E+00  0.67629980404E+01  0.73061244631E+01  0.99949679390E+01  0.51100000000E-03 0.  1.
        -12    1    3    3    0    0 -0.15368658038E+01  0.97856189765E+01 -0.40678076732E+02  0.41866767511E+02  0.00000000000E+00 0.  1.
</event>
<event>
 7    1  0.1756449E-015  0.9000770E+02  0.7816164E-02  0.1186339E+00
        -11   -1    0    0    0    0  0.00000000000E+00  0.00000000000E+00  0.45593999997E+02  0.45594000000E+02  0.51100000000E-03 0. -1.
         11   -1    0    0    0    0 -0.00000000000E+00 -0.00000000000E+00 -0.45593999997E+02  0.45594000000E+02  0.51100000000E-03 0.  1.
    9900012    2    1    2    0    0  0.42470112438E+00  0.75475153359E+00  0.80192530724E+00  0.90007701258E+02  0.89999962114E+02 0.  0.
        -12    1    1    2    0    0 -0.42470112438E+00 -0.75475153359E+00 -0.80192530724E+00  0.11802987422E+01  0.00000000000E+00 0.  1.
         11    1    3    3    0    0 -0.33945713807E+01 -0.35934464671E+02 -0.12432582411E+02  0.38175620123E+02  0.51100000000E-03 0. -1.
        -11    1    3    3    0    0  0.95164317672E+01 -0.21415087334E+01  0.72012226250E+01  0.12124608892E+02  0.51100000000E-03 0.  1.
        -12    1    3    3    0    0 -0.56971592622E+01  0.38830724938E+02  0.60332850936E+01  0.39707472243E+02  0.00000000000E+00 0.  1.
</event>
<event>
 7    1  0.3101868E-015  0.9000776E+02  0.7816164E-02  0.1186339E+00
        -11   -1    0    0    0    0  0.00000000000E+00  0.00000000000E+00  0.45593999997E+02  0.45594000000E+02  0.51100000000E-03 0. -1.
         11   -1    0    0    0    0 -0.00000000000E+00 -0.00000000000E+00 -0.45593999997E+02  0.45594000000E+02  0.51100000000E-03 0.  1.
    9900012    2    1    2    0    0  0.49719050381E+00 -0.49876109284E+00  0.94710134023E+00  0.90007761900E+02  0.90000023557E+02 0.  0.
        -12    1    1    2    0    0 -0.49719050381E+00  0.49876109284E+00 -0.94710134023E+00  0.11802381003E+01  0.00000000000E+00 0.  1.
         11    1    3    3    0    0 -0.39769987981E+01 -0.89893385334E+01  0.19488949262E+01  0.10021123610E+02  0.51100000000E-03 0. -1.
        -11    1    3    3    0    0  0.26327648497E+00 -0.16880254376E+02 -0.34112433209E+02  0.38061403048E+02  0.51100000000E-03 0.  1.
         12    1    3    3    0    0  0.42109128170E+01  0.25370831817E+02  0.33110639623E+02  0.41925235242E+02  0.00000000000E+00 0. -1.
</event>
<event>
 7    1  0.1756449E-015  0.9000767E+02  0.7816164E-02  0.1186339E+00
        -11   -1    0    0    0    0  0.00000000000E+00  0.00000000000E+00  0.45593999997E+02  0.45594000000E+02  0.51100000000E-03 0.  1.
         11   -1    0    0    0    0 -0.00000000000E+00 -0.00000000000E+00 -0.45593999997E+02  0.45594000000E+02  0.51100000000E-03 0. -1.
    9900012    2    1    2    0    0 -0.41586224303E+00 -0.10009552327E+01 -0.46724411491E+00  0.90007673839E+02  0.89999934334E+02 0.  0.
        -12    1    1    2    0    0  0.41586224303E+00  0.10009552327E+01  0.46724411491E+00  0.11803261608E+01  0.00000000000E+00 0.  1.
         11    1    3    3    0    0 -0.33527499386E+02  0.80900131634E+00 -0.16472174103E+02  0.37364156864E+02  0.51100000000E-03 0. -1.
        -11    1    3    3    0    0 -0.65883094785E+01  0.67521700159E+01  0.17045122727E+01  0.95866044070E+01  0.51100000000E-03 0.  1.
        -12    1    3    3    0    0  0.39699946621E+02 -0.85621265649E+01  0.14300417716E+02  0.43056912568E+02  0.00000000000E+00 0.  1.
</event>
<event>
 7    1  0.1756449E-015  0.9000763E+02  0.7816164E-02  0.1186339E+00
        -11   -1    0    0    0    0  0.00000000000E+00  0.00000000000E+00  0.45593999997E+02  0.45594000000E+02  0.51100000000E-03 0.  1.
         11   -1    0    0    0    0 -0.00000000000E+00 -0.00000000000E+00 -0.45593999997E+02  0.45594000000E+02  0.51100000000E-03 0. -1.
    9900012    2    1    2    0    0  0.10790613262E+01  0.29687431934E+00 -0.37518941110E+00  0.90007629380E+02  0.89999889287E+02 0.  0.
        -12    1    1    2    0    0 -0.10790613262E+01 -0.29687431934E+00  0.37518941110E+00  0.11803706203E+01  0.00000000000E+00 0.  1.
         11    1    3    3    0    0 -0.12047799634E+02 -0.43397336783E+00 -0.38406390538E+02  0.40254051266E+02  0.51100000000E-03 0. -1.
        -11    1    3    3    0    0  0.81926142163E+01 -0.53505526010E+01 -0.10997527614E+01  0.98466642693E+01  0.51100000000E-03 0.  1.
        -12    1    3    3    0    0  0.49342467436E+01  0.60814002882E+01  0.39130953888E+02  0.39906913845E+02  0.00000000000E+00 0.  1.
</event>
<event>
 7    1  0.1756449E-015  0.9000782E+02  0.7816164E-02  0.1186339E+00
        -11   -1    0    0    0    0  0.00000000000E+00  0.00000000000E+00  0.45593999997E+02  0.45594000000E+02  0.51100000000E-03 0.  1.
         11   -1    0    0    0    0 -0.00000000000E+00 -0.00000000000E+00 -0.45593999997E+02  0.45594000000E+02  0.51100000000E-03 0. -1.
    9900012    2    1    2    0    0 -0.20344390315E+00  0.57585101300E+00  0.10098624586E+01  0.90007823744E+02  0.90000086217E+02 0.  0.
        -12    1    1    2    0    0  0.20344390315E+00 -0.57585101300E+00 -0.10098624586E+01  0.11801762565E+01  0.00000000000E+00 0.  1.
         11    1    3    3    0    0  0.55322209863E+01 -0.13144636848E+02 -0.32054105296E+02  0.35083509139E+02  0.51100000000E-03 0. -1.
        -11    1    3    3    0    0  0.73627748648E+01 -0.31617209248E+01 -0.62611019034E+01  0.10168988653E+02  0.51100000000E-03 0.  1.
        -12    1    3    3    0    0 -0.13098439754E+02  0.16882208786E+02  0.39325069658E+02  0.44755325952E+02  0.00000000000E+00 0.  1.
</event>
<event>
 7    1  0.1756449E-015  0.9000769E+02  0.7816164E-02  0.1186339E+00
        -11   -1    0    0    0    0  0.00000000000E+00  0.00000000000E+00  0.45593999997E+02  0.45594000000E+02  0.51100000000E-03 0.  1.
         11   -1    0    0    0    0 -0.00000000000E+00 -0.00000000000E+00 -0.45593999997E+02  0.45594000000E+02  0.51100000000E-03 0. -1.
    9900012    2    1    2    0    0 -0.91646035763E+00 -0.74302149017E+00 -0.33841425364E-01  0.90007692513E+02  0.89999953254E+02 0.  0.
        -12    1    1    2    0    0  0.91646035763E+00  0.74302149017E+00  0.33841425364E-01  0.11803074871E+01  0.00000000000E+00 0.  1.
         11    1    3    3    0    0 -0.51438997223E+01  0.22558699587E+01  0.74092896292E+01  0.92976462986E+01  0.51100000000E-03 0. -1.
        -11    1    3    3    0    0  0.10177441263E+02 -0.22748444033E+02  0.29366224352E+02  0.38515544259E+02  0.51100000000E-03 0.  1.
         12    1    3    3    0    0 -0.59500018980E+01  0.19749552585E+02 -0.36809355406E+02  0.42194501956E+02  0.00000000000E+00 0. -1.
</event>
<event>
 7    1  0.1756449E-015  0.9000775E+02  0.7816164E-02  0.1186339E+00
        -11   -1    0    0    0    0  0.00000000000E+00  0.00000000000E+00  0.45593999997E+02  0.45594000000E+02  0.51100000000E-03 0.  1.
         11   -1    0    0    0    0 -0.00000000000E+00 -0.00000000000E+00 -0.45593999997E+02  0.45594000000E+02  0.51100000000E-03 0. -1.
    9900012    2    1    2    0    0 -0.95572852912E+00 -0.62889863777E+00 -0.28994227664E+00  0.90007747043E+02  0.90000008504E+02 0.  0.
        -12    1    1    2    0    0  0.95572852912E+00  0.62889863777E+00  0.28994227664E+00  0.11802529567E+01  0.00000000000E+00 0.  1.
         11    1    3    3    0    0  0.10012217837E+02  0.87030400998E+01 -0.76113346929E+01  0.15294437847E+02  0.51100000000E-03 0. -1.
        -11    1    3    3    0    0 -0.31700350763E+02 -0.11652702725E-01 -0.21279039976E+02  0.38179967481E+02  0.51100000000E-03 0.  1.
         12    1    3    3    0    0  0.20732404397E+02 -0.93202860349E+01  0.28600432392E+02  0.36533341715E+02  0.00000000000E+00 0. -1.
</event>
<event>
 7    1  0.1756449E-015  0.9000763E+02  0.7816164E-02  0.1186339E+00
        -11   -1    0    0    0    0  0.00000000000E+00  0.00000000000E+00  0.45593999997E+02  0.45594000000E+02  0.51100000000E-03 0. -1.
         11   -1    0    0    0    0 -0.00000000000E+00 -0.00000000000E+00 -0.45593999997E+02  0.45594000000E+02  0.51100000000E-03 0.  1.
    9900012    2    1    2    0    0  0.72990348267E+00  0.65672534554E+00  0.65515844335E+00  0.90007627237E+02  0.89999887117E+02 0.  0.
        -12    1    1    2    0    0 -0.72990348267E+00 -0.65672534554E+00 -0.65515844335E+00  0.11803727629E+01  0.00000000000E+00 0.  1.
         11    1    3    3    0    0 -0.19521986860E+02  0.56633102049E+01  0.33677371300E+02  0.39336324071E+02  0.51100000000E-03 0. -1.
        -11    1    3    3    0    0  0.43445637108E+01 -0.29210580476E+01  0.63063860257E+01  0.81962380957E+01  0.51100000000E-03 0.  1.
        -12    1    3    3    0    0  0.15907326632E+02 -0.20855268118E+01 -0.39328598883E+02  0.42475065071E+02  0.00000000000E+00 0.  1.
</event>
<event>
 7    1  0.1756449E-015  0.9000780E+02  0.7816164E-02  0.1186339E+00
        -11   -1    0    0    0    0  0.00000000000E+00  0.00000000000E+00  0.45593999997E+02  0.45594000000E+02  0.51100000000E-03 0.  1.
         11   -1    0    0    0    0 -0.00000000000E+00 -0.00000000000E+00 -0.45593999997E+02  0.45594000000E+02  0.51100000000E-03 0. -1.
    9900012    2    1    2    0    0 -0.26569483272E+00  0.92581441938E+00 -0.68202005167E+00  0.90007797715E+02  0.90000059845E+02 0.  0.
        -12    1    1    2    0    0  0.26569483272E+00 -0.92581441938E+00  0.68202005167E+00  0.11802022853E+01  0.00000000000E+00 0.  1.
         11    1    3    3    0    0  0.40661719560E+01  0.81608996242E+01  0.26059925486E+01  0.94828916728E+01  0.51100000000E-03 0. -1.
        -11    1    3    3    0    0  0.27111503981E+02  0.88838304422E+01  0.22867522939E+02  0.36563365505E+02  0.51100000000E-03 0.  1.
         12    1    3    3    0    0 -0.31443370770E+02 -0.16118915647E+02 -0.26155535539E+02  0.43961540537E+02  0.00000000000E+00 0. -1.
</event>
<event>
 7    1  0.1756449E-015  0.9000786E+02  0.7816164E-02  0.1186339E+00
        -11   -1    0    0    0    0  0.00000000000E+00  0.00000000000E+00  0.45593999997E+02  0.45594000000E+02  0.51100000000E-03 0. -1.
         11   -1    0    0    0    0 -0.00000000000E+00 -0.00000000000E+00 -0.45593999997E+02  0.45594000000E+02  0.51100000000E-03 0.  1.
    9900012    2    1    2    0    0  0.54571131754E+00 -0.85136889497E+00  0.60836402547E+00  0.90007857371E+02  0.90000120288E+02 0.  0.
        -12    1    1    2    0    0 -0.54571131754E+00  0.85136889497E+00 -0.60836402547E+00  0.11801426290E+01  0.00000000000E+00 0.  1.
         11    1    3    3    0    0  0.83419525160E+01 -0.10954739514E+01 -0.57251910221E+01  0.10176740512E+02  0.51100000000E-03 0. -1.
        -11    1    3    3    0    0 -0.18503133179E+02  0.36960280542E+02  0.34774187405E+01  0.41479160027E+02  0.51100000000E-03 0.  1.
         12    1    3    3    0    0  0.10706891981E+02 -0.36716175486E+02  0.28561363071E+01  0.38351956831E+02  0.00000000000E+00 0. -1.
</event>
<event>
 7    1  0.1756449E-015  0.9000772E+02  0.7816164E-02  0.1186339E+00
        -11   -1    0    0    0    0  0.00000000000E+00  0.00000000000E+00  0.45593999997E+02  0.45594000000E+02  0.51100000000E-03 0.  1.
         11   -1    0    0    0    0 -0.00000000000E+00 -0.00000000000E+00 -0.45593999997E+02  0.45594000000E+02  0.51100000000E-03 0. -1.
    9900012    2    1    2    0    0 -0.10848681931E+01 -0.41339427936E+00  0.21265123001E+00  0.90007722756E+02  0.89999983897E+02 0.  0.
        -12    1    1    2    0    0  0.10848681931E+01  0.41339427936E+00 -0.21265123001E+00  0.11802772438E+01  0.00000000000E+00 0.  1.
         11    1    3    3    0    0  0.68710058252E+01 -0.87651793714E+01 -0.33248153755E+02  0.35063924749E+02  0.51100000000E-03 0. -1.
        -11    1    3    3    0    0  0.17211605656E+00  0.49596650766E+00 -0.10011817508E+02  0.10025572143E+02  0.51100000000E-03 0.  1.
        -12    1    3    3    0    0 -0.81279900749E+01  0.78558185843E+01  0.43472622493E+02  0.44918225864E+02  0.00000000000E+00 0.  1.
</event>
<event>
 7    1  0.1756449E-015  0.9000779E+02  0.7816164E-02  0.1186339E+00
        -11   -1    0    0    0    0  0.00000000000E+00  0.00000000000E+00  0.45593999997E+02  0.45594000000E+02  0.51100000000E-03 0.  1.
         11   -1    0    0    0    0 -0.00000000000E+00 -0.00000000000E+00 -0.45593999997E+02  0.45594000000E+02  0.51100000000E-03 0. -1.
    9900012    2    1    2    0    0  0.11105203998E+01  0.35664827316E+00  0.18009266221E+00  0.90007793698E+02  0.90000055774E+02 0.  0.
        -12    1    1    2    0    0 -0.11105203998E+01 -0.35664827316E+00 -0.18009266221E+00  0.11802063024E+01  0.00000000000E+00 0.  1.
         11    1    3    3    0    0  0.29521037519E+02 -0.44893145720E+01 -0.22284371261E+02  0.37259076804E+02  0.51100000000E-03 0. -1.
        -11    1    3    3    0    0  0.74072438227E+01  0.47170126421E+01 -0.24509038359E+01  0.91172583153E+01  0.51100000000E-03 0.  1.
        -12    1    3    3    0    0 -0.35817760942E+02  0.12895020306E+00  0.24915367760E+02  0.43631458578E+02  0.00000000000E+00 0.  1.
</event>
<event>
 7    1  0.1756449E-015  0.9000776E+02  0.7816164E-02  0.1186339E+00
        -11   -1    0    0    0    0  0.00000000000E+00  0.00000000000E+00  0.45593999997E+02  0.45594000000E+02  0.51100000000E-03 0.  1.
         11   -1    0    0    0    0 -0.00000000000E+00 -0.00000000000E+00 -0.45593999997E+02  0.45594000000E+02  0.51100000000E-03 0. -1.
    9900012    2    1    2    0    0  0.95912198622E+00  0.57405814386E-01 -0.68537976458E+00  0.90007764501E+02  0.90000026192E+02 0.  0.
        -12    1    1    2    0    0 -0.95912198622E+00 -0.57405814386E-01  0.68537976458E+00  0.11802354992E+01  0.00000000000E+00 0.  1.
         11    1    3    3    0    0 -0.16965095478E+02  0.29494891773E+02 -0.20264106742E+02  0.39602993922E+02  0.51100000000E-03 0. -1.
        -11    1    3    3    0    0 -0.86579919976E+01 -0.49361481410E+01  0.18358146202E+01  0.10133933071E+02  0.51100000000E-03 0.  1.
        -12    1    3    3    0    0  0.26582209461E+02 -0.24501337818E+02  0.17742912357E+02  0.40270837508E+02  0.00000000000E+00 0.  1.
</event>
<event>
 7    1  0.1756449E-015  0.9000785E+02  0.7816164E-02  0.1186339E+00
        -11   -1    0    0    0    0  0.00000000000E+00  0.00000000000E+00  0.45593999997E+02  0.45594000000E+02  0.51100000000E-03 0. -1.
         11   -1    0    0    0    0 -0.00000000000E+00 -0.00000000000E+00 -0.45593999997E+02  0.45594000000E+02  0.51100000000E-03 0.  1.
    9900012    2    1    2    0    0 -0.11486876862E+01 -0.17386544153E+00 -0.20748449740E+00  0.90007846447E+02  0.90000109220E+02 0.  0.
        -12    1    1    2    0    0  0.11486876862E+01  0.17386544153E+00  0.20748449740E+00  0.11801535531E+01  0.00000000000E+00 0.  1.
         11    1    3    3    0    0 -0.47310629553E+01  0.38117808121E+01  0.39335025465E+02  0.39801468041E+02  0.51100000000E-03 0. -1.
        -11    1    3    3    0    0  0.57505297650E+01  0.73937835180E+01 -0.38868684982E+00  0.93748442663E+01  0.51100000000E-03 0.  1.
        -12    1    3    3    0    0 -0.21681544959E+01 -0.11379429772E+02 -0.39153823113E+02  0.40831534139E+02  0.00000000000E+00 0.  1.
</event>
<event>
 7    1  0.1756449E-015  0.9000775E+02  0.7816164E-02  0.1186339E+00
        -11   -1    0    0    0    0  0.00000000000E+00  0.00000000000E+00  0.45593999997E+02  0.45594000000E+02  0.51100000000E-03 0. -1.
         11   -1    0    0    0    0 -0.00000000000E+00 -0.00000000000E+00 -0.45593999997E+02  0.45594000000E+02  0.51100000000E-03 0.  1.
    9900012    2    1    2    0    0 -0.51568922524E+00  0.91881018306E+00 -0.53182878703E+00  0.90007750286E+02  0.90000011789E+02 0.  0.
        -12    1    1    2    0    0  0.51568922524E+00 -0.91881018306E+00  0.53182878703E+00  0.11802497144E+01  0.00000000000E+00 0.  1.
         11    1    3    3    0    0  0.12191459072E+02  0.25827173007E+02 -0.26965950814E+02  0.39278964388E+02  0.51100000000E-03 0. -1.
        -11    1    3    3    0    0  0.46626224024E+01  0.51461314828E+01 -0.24410437619E+00  0.69485469066E+01  0.51100000000E-03 0.  1.
        -12    1    3    3    0    0 -0.17369770699E+02 -0.30054494306E+02  0.26678226403E+02  0.43780238992E+02  0.00000000000E+00 0.  1.
</event>
<event>
 7    1  0.1756449E-015  0.9000780E+02  0.7816164E-02  0.1186339E+00
        -11   -1    0    0    0    0  0.00000000000E+00  0.00000000000E+00  0.45593999997E+02  0.45594000000E+02  0.51100000000E-03 0.  1.
         11   -1    0    0    0    0 -0.00000000000E+00 -0.00000000000E+00 -0.45593999997E+02  0.45594000000E+02  0.51100000000E-03 0. -1.
    9900012    2    1    2    0    0  0.67537980855E+00 -0.32449173834E+00 -0.91183807388E+00  0.90007796015E+02  0.90000058122E+02 0.  0.
        -12    1    1    2    0    0 -0.67537980855E+00  0.32449173834E+00  0.91183807388E+00  0.11802039853E+01  0.00000000000E+00 0.  1.
         11    1    3    3    0    0 -0.20933900900E+02 -0.89483033713E+01 -0.31559583921E+02  0.38914106410E+02  0.51100000000E-03 0. -1.
        -11    1    3    3    0    0 -0.92658490191E+00 -0.50573219741E+01 -0.47211145005E+01  0.69802569807E+01  0.51100000000E-03 0.  1.
        -12    1    3    3    0    0  0.22535865611E+02  0.13681133607E+02  0.35368860348E+02  0.44113432624E+02  0.00000000000E+00 0.  1.
</event>
<event>
 7    1  0.1756449E-015  0.9000759E+02  0.7816164E-02  0.1186339E+00
        -11   -1    0    0    0    0  0.00000000000E+00  0.00000000000E+00  0.45593999997E+02  0.45594000000E+02  0.51100000000E-03 0. -1.
         11   -1    0    0    0    0 -0.00000000000E+00 -0.00000000000E+00 -0.45593999997E+02  0.45594000000E+02  0.51100000000E-03 0.  1.
    9900012    2    1    2    0    0  0.10316333313E+01  0.50341630201E+00  0.27510643426E+00  0.90007585304E+02  0.89999844630E+02 0.  0.
        -12    1    1    2    0    0 -0.10316333313E+01 -0.50341630201E+00 -0.27510643426E+00  0.11804146956E+01  0.00000000000E+00 0.  1.
         11    1    3    3    0    0  0.30593314969E+02 -0.19959700716E+02  0.20554970230E+02  0.41914763209E+02  0.51100000000E-03 0. -1.
        -11    1    3    3    0    0  0.36693135263E+01  0.58687946246E+01 -0.57486934100E+01  0.89974489876E+01  0.51100000000E-03 0.  1.
        -12    1    3    3    0    0 -0.33230995164E+02  0.14594322393E+02 -0.14531170386E+02  0.39095373108E+02  0.00000000000E+00 0.  1.
</event>
<event>
 7    1  0.1756449E-015  0.9000772E+02  0.7816164E-02  0.1186339E+00
        -11   -1    0    0    0    0  0.00000000000E+00  0.00000000000E+00  0.45593999997E+02  0.45594000000E+02  0.51100000000E-03 0.  1.
         11   -1    0    0    0    0 -0.00000000000E+00 -0.00000000000E+00 -0.45593999997E+02  0.45594000000E+02  0.51100000000E-03 0. -1.
    9900012    2    1    2    0    0 -0.14017001045E+00 -0.10459751290E+01  0.52852865373E+00  0.90007722855E+02  0.89999983996E+02 0.  0.
        -12    1    1    2    0    0  0.14017001045E+00  0.10459751290E+01 -0.52852865373E+00  0.11802771454E+01  0.00000000000E+00 0.  1.
         11    1    3    3    0    0 -0.54890863379E+01 -0.27310444461E+01 -0.26995678971E+01  0.66989804958E+01  0.51100000000E-03 0. -1.
        -11    1    3    3    0    0  0.39222177835E+02 -0.18349945936E+02 -0.32505435687E+01  0.43424253404E+02  0.51100000000E-03 0.  1.
         12    1    3    3    0    0 -0.33873261508E+02  0.20035015253E+02  0.64786401195E+01  0.39884488954E+02  0.00000000000E+00 0. -1.
</event>
<event>
 7    1  0.1756449E-015  0.9000774E+02  0.7816164E-02  0.1186339E+00
        -11   -1    0    0    0    0  0.00000000000E+00  0.00000000000E+00  0.45593999997E+02  0.45594000000E+02  0.51100000000E-03 0.  1.
         11   -1    0    0    0    0 -0.00000000000E+00 -0.00000000000E+00 -0.45593999997E+02  0.45594000000E+02  0.51100000000E-03 0. -1.
    9900012    2    1    2    0    0  0.24138594020E+00  0.11102817664E+01  0.31939587198E+00  0.90007743038E+02  0.90000004446E+02 0.  0.
        -12    1    1    2    0    0 -0.24138594020E+00 -0.11102817664E+01 -0.31939587198E+00  0.11802569619E+01  0.00000000000E+00 0.  1.
         11    1    3    3    0    0  0.21359399022E+02  0.29573178024E+02 -0.34658030349E+00  0.36481733830E+02  0.51100000000E-03 0. -1.
        -11    1    3    3    0    0  0.56995339204E+01  0.70208086443E+01 -0.12470185708E-01  0.90430413411E+01  0.51100000000E-03 0.  1.
        -12    1    3    3    0    0 -0.26817547002E+02 -0.35483704902E+02  0.67844636117E+00  0.44482967867E+02  0.00000000000E+00 0.  1.
</event>
<event>
 7    1  0.1756449E-015  0.9000706E+02  0.7816164E-02  0.1186340E+00
        -11   -1    0    0    0    0  0.00000000000E+00  0.00000000000E+00  0.45593999997E+02  0.45594000000E+02  0.51100000000E-03 0.  1.
         11   -1    0    0    0    0 -0.00000000000E+00 -0.00000000000E+00 -0.45593999997E+02  0.45594000000E+02  0.51100000000E-03 0. -1.
    9900012    2    1    2    0    0 -0.55013452946E+00 -0.13000732898E+00 -0.10368519831E+01  0.90007063109E+02  0.89999315539E+02 0.  0.
        -12    1    1    2    0    0  0.55013452946E+00  0.13000732898E+00  0.10368519831E+01  0.11809368912E+01  0.00000000000E+00 0.  1.
         11    1    3    3    0    0  0.29507219593E+02 -0.24937351307E+02 -0.13692193616E+02  0.40988091742E+02  0.51100000000E-03 0. -1.
        -11    1    3    3    0    0 -0.30220859010E+01  0.43096665726E+01 -0.77943413582E+01  0.94052106106E+01  0.51100000000E-03 0.  1.
        -12    1    3    3    0    0 -0.27035268222E+02  0.20497677405E+02  0.20449682991E+02  0.39613760757E+02  0.00000000000E+00 0.  1.
</event>
<event>
 7    1  0.1756449E-015  0.9000773E+02  0.7816164E-02  0.1186339E+00
        -11   -1    0    0    0    0  0.00000000000E+00  0.00000000000E+00  0.45593999997E+02  0.45594000000E+02  0.51100000000E-03 0. -1.
         11   -1    0    0    0    0 -0.00000000000E+00 -0.00000000000E+00 -0.45593999997E+02  0.45594000000E+02  0.51100000000E-03 0.  1.
    9900012    2    1    2    0    0  0.10580842489E+01 -0.52059414454E+00 -0.49752477249E-01  0.90007730603E+02  0.89999991847E+02 0.  0.
        -12    1    1    2    0    0 -0.10580842489E+01  0.52059414454E+00  0.49752477249E-01  0.11802693973E+01  0.00000000000E+00 0.  1.
         11    1    3    3    0    0 -0.20129102093E+01  0.11638666829E+02 -0.86239934864E+01  0.14624761092E+02  0.51100000000E-03 0. -1.
        -11    1    3    3    0    0  0.26703080250E+02  0.19635856241E+02 -0.49697905845E+01  0.33515968790E+02  0.51100000000E-03 0.  1.
         12    1    3    3    0    0 -0.23632085792E+02 -0.31795117215E+02  0.13544031594E+02  0.41867000722E+02  0.00000000000E+00 0. -1.
</event>
<event>
 7    1  0.1756449E-015  0.9000796E+02  0.7816164E-02  0.1186339E+00
        -11   -1    0    0    0    0  0.00000000000E+00  0.00000000000E+00  0.45593999997E+02  0.45594000000E+02  0.51100000000E-03 0. -1.
         11   -1    0    0    0    0 -0.00000000000E+00 -0.00000000000E+00 -0.45593999997E+02  0.45594000000E+02  0.51100000000E-03 0.  1.
    9900012    2    1    2    0    0  0.58812083511E+00 -0.84043741504E+00  0.58332148613E+00  0.90007963932E+02  0.90000228256E+02 0.  0.
        -12    1    1    2    0    0 -0.58812083511E+00  0.84043741504E+00 -0.58332148613E+00  0.11800360679E+01  0.00000000000E+00 0.  1.
         11    1    3    3    0    0  0.11219070246E+02  0.15416484951E+02  0.32067792632E+02  0.37307892865E+02  0.51100000000E-03 0. -1.
        -11    1    3    3    0    0  0.98552828418E+01 -0.88769670320E+01  0.13169600913E+01  0.13328973243E+02  0.51100000000E-03 0.  1.
        -12    1    3    3    0    0 -0.20486232253E+02 -0.73799553341E+01 -0.32801431238E+02  0.39371097824E+02  0.00000000000E+00 0.  1.
</event>
<event>
 7    1  0.1756449E-015  0.9000777E+02  0.7816164E-02  0.1186339E+00
        -11   -1    0    0    0    0  0.00000000000E+00  0.00000000000E+00  0.45593999997E+02  0.45594000000E+02  0.51100000000E-03 0.  1.
         11   -1    0    0    0    0 -0.00000000000E+00 -0.00000000000E+00 -0.45593999997E+02  0.45594000000E+02  0.51100000000E-03 0. -1.
    9900012    2    1    2    0    0 -0.76511914437E+00  0.88688677343E+00  0.14483606189E+00  0.90007765727E+02  0.90000027435E+02 0.  0.
        -12    1    1    2    0    0  0.76511914437E+00 -0.88688677343E+00 -0.14483606189E+00  0.11802342728E+01  0.00000000000E+00 0.  1.
         11    1    3    3    0    0 -0.18677164587E+02  0.13098110720E+02 -0.31488469153E+02  0.38883424120E+02  0.51100000000E-03 0. -1.
        -11    1    3    3    0    0 -0.55129715531E+01 -0.48862817489E+01 -0.35887770488E+01  0.81943837866E+01  0.51100000000E-03 0.  1.
        -12    1    3    3    0    0  0.23425016996E+02 -0.73249421976E+01  0.35222082264E+02  0.42929957820E+02  0.00000000000E+00 0.  1.
</event>
<event>
 7    1  0.1756449E-015  0.9000769E+02  0.7816164E-02  0.1186339E+00
        -11   -1    0    0    0    0  0.00000000000E+00  0.00000000000E+00  0.45593999997E+02  0.45594000000E+02  0.51100000000E-03 0.  1.
         11   -1    0    0    0    0 -0.00000000000E+00 -0.00000000000E+00 -0.45593999997E+02  0.45594000000E+02  0.51100000000E-03 0. -1.
    9900012    2    1    2    0    0 -0.20673695589E+00  0.51239207820E+00 -0.10430012681E+01  0.90007687560E+02  0.89999948236E+02 0.  0.
        -12    1    1    2    0    0  0.20673695589E+00 -0.51239207820E+00  0.10430012681E+01  0.11803124400E+01  0.00000000000E+00 0.  1.
         11    1    3    3    0    0 -0.52654601036E+00  0.41587735502E+01 -0.82351555219E+01  0.92406945018E+01  0.51100000000E-03 0. -1.
        -11    1    3    3    0    0 -0.27048533402E+02 -0.19915684053E+02 -0.19830492660E+02  0.39006487536E+02  0.51100000000E-03 0.  1.
         12    1    3    3    0    0  0.27368342456E+02  0.16269302581E+02  0.27022646914E+02  0.41760505523E+02  0.00000000000E+00 0. -1.
</event>
<event>
 7    1  0.1756449E-015  0.9000771E+02  0.7816164E-02  0.1186339E+00
        -11   -1    0    0    0    0  0.00000000000E+00  0.00000000000E+00  0.45593999997E+02  0.45594000000E+02  0.51100000000E-03 0.  1.
         11   -1    0    0    0    0 -0.00000000000E+00 -0.00000000000E+00 -0.45593999997E+02  0.45594000000E+02  0.51100000000E-03 0. -1.
    9900012    2    1    2    0    0 -0.11352542533E-01 -0.43477172029E+00 -0.10972391431E+01  0.90007708059E+02  0.89999969005E+02 0.  0.
        -12    1    1    2    0    0  0.11352542533E-01  0.43477172029E+00  0.10972391431E+01  0.11802919411E+01  0.00000000000E+00 0.  1.
         11    1    3    3    0    0 -0.13109405622E+02  0.29597709761E+02 -0.16237775317E+02  0.36215276974E+02  0.51100000000E-03 0. -1.
        -11    1    3    3    0    0  0.23920813983E+01  0.64643120011E+01 -0.69662416754E+01  0.97998931833E+01  0.51100000000E-03 0.  1.
        -12    1    3    3    0    0  0.10705971681E+02 -0.36496793482E+02  0.22106777849E+02  0.43992537901E+02  0.00000000000E+00 0.  1.
</event>
<event>
 7    1  0.2070171E-015  0.9000767E+02  0.7816164E-02  0.1186339E+00
        -11   -1    0    0    0    0  0.00000000000E+00  0.00000000000E+00  0.45593999997E+02  0.45594000000E+02  0.51100000000E-03 0. -1.
         11   -1    0    0    0    0 -0.00000000000E+00 -0.00000000000E+00 -0.45593999997E+02  0.45594000000E+02  0.51100000000E-03 0.  1.
    9900012    2    1    2    0    0  0.16432156755E+00 -0.11650333953E-01  0.11687816518E+01  0.90007666209E+02  0.89999926603E+02 0.  0.
        -12    1    1    2    0    0 -0.16432156755E+00  0.11650333953E-01 -0.11687816518E+01  0.11803337907E+01  0.00000000000E+00 0.  1.
         11    1    3    3    0    0 -0.34144217628E+01 -0.14218233509E+01 -0.91549851383E+01  0.98738852920E+01  0.51100000000E-03 0. -1.
        -11    1    3    3    0    0 -0.64333943378E+00  0.32577812863E+02 -0.18501676118E+02  0.37470519025E+02  0.51100000000E-03 0.  1.
         12    1    3    3    0    0  0.42220827641E+01 -0.31167639846E+02  0.28825442909E+02  0.42663261892E+02  0.00000000000E+00 0. -1.
</event>
<event>
 7    1  0.1756449E-015  0.9000759E+02  0.7816164E-02  0.1186339E+00
        -11   -1    0    0    0    0  0.00000000000E+00  0.00000000000E+00  0.45593999997E+02  0.45594000000E+02  0.51100000000E-03 0. -1.
         11   -1    0    0    0    0 -0.00000000000E+00 -0.00000000000E+00 -0.45593999997E+02  0.45594000000E+02  0.51100000000E-03 0.  1.
    9900012    2    1    2    0    0 -0.39856554417E+00  0.11063556149E+01  0.10245577220E+00  0.90007587180E+02  0.89999846531E+02 0.  0.
        -12    1    1    2    0    0  0.39856554417E+00 -0.11063556149E+01 -0.10245577220E+00  0.11804128197E+01  0.00000000000E+00 0.  1.
         11    1    3    3    0    0  0.20674143838E+02  0.32022197434E+01  0.28512347316E+02  0.35364224641E+02  0.51100000000E-03 0. -1.
        -11    1    3    3    0    0  0.38112284043E+01  0.75835286495E+00  0.88968128758E+01  0.97084417198E+01  0.51100000000E-03 0.  1.
        -12    1    3    3    0    0 -0.24883937786E+02 -0.28542169934E+01 -0.37306704420E+02  0.44934920820E+02  0.00000000000E+00 0.  1.
</event>
<event>
 7    1  0.1756449E-015  0.9000777E+02  0.7816164E-02  0.1186339E+00
        -11   -1    0    0    0    0  0.00000000000E+00  0.00000000000E+00  0.45593999997E+02  0.45594000000E+02  0.51100000000E-03 0. -1.
         11   -1    0    0    0    0 -0.00000000000E+00 -0.00000000000E+00 -0.45593999997E+02  0.45594000000E+02  0.51100000000E-03 0.  1.
    9900012    2    1    2    0    0 -0.41941112869E+00 -0.10781303099E+01 -0.23382544057E+00  0.90007769092E+02  0.90000030844E+02 0.  0.
        -12    1    1    2    0    0  0.41941112869E+00  0.10781303099E+01  0.23382544057E+00  0.11802309082E+01  0.00000000000E+00 0.  1.
         11    1    3    3    0    0 -0.62996099312E+01 -0.78200548812E+01  0.83262929421E+01  0.13044749827E+02  0.51100000000E-03 0. -1.
        -11    1    3    3    0    0 -0.14212677114E+02  0.29430132418E+02 -0.26208079445E+02  0.41892676130E+02  0.51100000000E-03 0.  1.
         12    1    3    3    0    0  0.20092875917E+02 -0.22688207847E+02  0.17647961063E+02  0.35070343134E+02  0.00000000000E+00 0. -1.
</event>
<event>
 7    1  0.1756449E-015  0.9000777E+02  0.7816164E-02  0.1186339E+00
        -11   -1    0    0    0    0  0.00000000000E+00  0.00000000000E+00  0.45593999997E+02  0.45594000000E+02  0.51100000000E-03 0. -1.
         11   -1    0    0    0    0 -0.00000000000E+00 -0.00000000000E+00 -0.45593999997E+02  0.45594000000E+02  0.51100000000E-03 0.  1.
    9900012    2    1    2    0    0  0.30965145931E-01 -0.29974134482E+00  0.11411094560E+01  0.90007773537E+02  0.90000035347E+02 0.  0.
        -12    1    1    2    0    0 -0.30965145931E-01  0.29974134482E+00 -0.11411094560E+01  0.11802264633E+01  0.00000000000E+00 0.  1.
         11    1    3    3    0    0  0.40927965333E+02 -0.81572948916E+01  0.50860396436E+01  0.42041736474E+02  0.51100000000E-03 0. -1.
        -11    1    3    3    0    0 -0.52703435988E+01 -0.13802809997E+01  0.76376774070E+01  0.93816743560E+01  0.51100000000E-03 0.  1.
        -12    1    3    3    0    0 -0.35626656588E+02  0.92378345465E+01 -0.11582607595E+02  0.38584362706E+02  0.00000000000E+00 0.  1.
</event>
<event>
 7    1  0.1756449E-015  0.9000776E+02  0.7816164E-02  0.1186339E+00
        -11   -1    0    0    0    0  0.00000000000E+00  0.00000000000E+00  0.45593999997E+02  0.45594000000E+02  0.51100000000E-03 0.  1.
         11   -1    0    0    0    0 -0.00000000000E+00 -0.00000000000E+00 -0.45593999997E+02  0.45594000000E+02  0.51100000000E-03 0. -1.
    9900012    2    1    2    0    0 -0.45501742161E+00  0.68387279882E+00 -0.84749122990E+00  0.90007760938E+02  0.90000022582E+02 0.  0.
        -12    1    1    2    0    0  0.45501742161E+00 -0.68387279882E+00  0.84749122990E+00  0.11802390621E+01  0.00000000000E+00 0.  1.
         11    1    3    3    0    0 -0.43094893863E+01 -0.44985111147E+01  0.69450293410E+01  0.93296159529E+01  0.51100000000E-03 0. -1.
        -11    1    3    3    0    0 -0.35120756190E+02 -0.74469104991E+01 -0.15299729833E+02  0.39025705945E+02  0.51100000000E-03 0.  1.
         12    1    3    3    0    0  0.38975228154E+02  0.12629294413E+02  0.75072092620E+01  0.41652439040E+02  0.00000000000E+00 0. -1.
</event>
<event>
 7    1  0.1756449E-015  0.9000778E+02  0.7816164E-02  0.1186339E+00
        -11   -1    0    0    0    0  0.00000000000E+00  0.00000000000E+00  0.45593999997E+02  0.45594000000E+02  0.51100000000E-03 0.  1.
         11   -1    0    0    0    0 -0.00000000000E+00 -0.00000000000E+00 -0.45593999997E+02  0.45594000000E+02  0.51100000000E-03 0. -1.
    9900012    2    1    2    0    0 -0.42324340880E+00  0.47846775620E+00 -0.99239934920E+00  0.90007778476E+02  0.90000040352E+02 0.  0.
        -12    1    1    2    0    0  0.42324340880E+00 -0.47846775620E+00  0.99239934920E+00  0.11802215237E+01  0.00000000000E+00 0.  1.
         11    1    3    3    0    0 -0.14028887669E+02 -0.66223062265E+01  0.64248537968E+01  0.16791169571E+02  0.51100000000E-03 0. -1.
        -11    1    3    3    0    0 -0.13491791975E+02  0.20294240198E+02 -0.27695754215E+02  0.36890912671E+02  0.51100000000E-03 0.  1.
         12    1    3    3    0    0  0.27097436235E+02 -0.13193466215E+02  0.20278501069E+02  0.36325696234E+02  0.00000000000E+00 0. -1.
</event>
<event>
 7    1  0.1756449E-015  0.9000766E+02  0.7816164E-02  0.1186339E+00
        -11   -1    0    0    0    0  0.00000000000E+00  0.00000000000E+00  0.45593999997E+02  0.45594000000E+02  0.51100000000E-03 0. -1.
         11   -1    0    0    0    0 -0.00000000000E+00 -0.00000000000E+00 -0.45593999997E+02  0.45594000000E+02  0.51100000000E-03 0.  1.
    9900012    2    1    2    0    0 -0.50417019191E+00  0.66479587834E+00  0.83490319050E+00  0.90007659168E+02  0.89999919469E+02 0.  0.
        -12    1    1    2    0    0  0.50417019191E+00 -0.66479587834E+00 -0.83490319050E+00  0.11803408320E+01  0.00000000000E+00 0.  1.
         11    1    3    3    0    0 -0.16308674620E+02 -0.20060661399E+02 -0.24554538508E+02  0.35655691905E+02  0.51100000000E-03 0. -1.
        -11    1    3    3    0    0  0.13625154302E+01 -0.82979930320E+01 -0.51115779547E+01  0.98408010905E+01  0.51100000000E-03 0.  1.
        -12    1    3    3    0    0  0.14441988998E+02  0.29023450310E+02  0.30501019653E+02  0.44511166172E+02  0.00000000000E+00 0.  1.
</event>
<event>
 7    1  0.1756449E-015  0.9000763E+02  0.7816164E-02  0.1186339E+00
        -11   -1    0    0    0    0  0.00000000000E+00  0.00000000000E+00  0.45593999997E+02  0.45594000000E+02  0.51100000000E-03 0. -1.
         11   -1    0    0    0    0 -0.00000000000E+00 -0.00000000000E+00 -0.45593999997E+02  0.45594000000E+02  0.51100000000E-03 0.  1.
    9900012    2    1    2    0    0  0.19247120561E+00 -0.36839787953E-01  0.11639899326E+01  0.90007629339E+02  0.89999889246E+02 0.  0.
        -12    1    1    2    0    0 -0.19247120561E+00  0.36839787953E-01 -0.11639899326E+01  0.11803706614E+01  0.00000000000E+00 0.  1.
         11    1    3    3    0    0  0.87798571857E+01 -0.11808892503E+00 -0.82740493865E+01  0.12064813745E+02  0.51100000000E-03 0. -1.
        -11    1    3    3    0    0  0.26302284674E+02 -0.51835050502E+01 -0.18805620529E+02  0.32746454273E+02  0.51100000000E-03 0.  1.
         12    1    3    3    0    0 -0.34889670654E+02  0.52647541873E+01  0.28243659848E+02  0.45196361321E+02  0.00000000000E+00 0. -1.
</event>
<event>
 7    1  0.1756449E-015  0.9000777E+02  0.7816164E-02  0.1186339E+00
        -11   -1    0    0    0    0  0.00000000000E+00  0.00000000000E+00  0.45593999997E+02  0.45594000000E+02  0.51100000000E-03 0. -1.
         11   -1    0    0    0    0 -0.00000000000E+00 -0.00000000000E+00 -0.45593999997E+02  0.45594000000E+02  0.51100000000E-03 0.  1.
    9900012    2    1    2    0    0  0.11050293128E+00 -0.64189312194E-02  0.11750321080E+01  0.90007765890E+02  0.90000027599E+02 0.  0.
        -12    1    1    2    0    0 -0.11050293128E+00  0.64189312194E-02 -0.11750321080E+01  0.11802341104E+01  0.00000000000E+00 0.  1.
         11    1    3    3    0    0 -0.19624712810E+02  0.14235180230E+02  0.33718051841E+02  0.41529227410E+02  0.51100000000E-03 0. -1.
        -11    1    3    3    0    0 -0.64345624597E+01 -0.42471264754E+01 -0.49769483875E+01  0.91766929152E+01  0.51100000000E-03 0.  1.
        -12    1    3    3    0    0  0.26169778201E+02 -0.99944726858E+01 -0.27566071345E+02  0.39301845565E+02  0.00000000000E+00 0.  1.
</event>
<event>
 7    1  0.1756449E-015  0.9000775E+02  0.7816164E-02  0.1186339E+00
        -11   -1    0    0    0    0  0.00000000000E+00  0.00000000000E+00  0.45593999997E+02  0.45594000000E+02  0.51100000000E-03 0.  1.
         11   -1    0    0    0    0 -0.00000000000E+00 -0.00000000000E+00 -0.45593999997E+02  0.45594000000E+02  0.51100000000E-03 0. -1.
    9900012    2    1    2    0    0  0.47305697531E-02  0.84447674279E+00 -0.82451814773E+00  0.90007748534E+02  0.90000010014E+02 0.  0.
        -12    1    1    2    0    0 -0.47305697531E-02 -0.84447674279E+00  0.82451814773E+00  0.11802514662E+01  0.00000000000E+00 0.  1.
         11    1    3    3    0    0 -0.23108442371E+01 -0.10969058188E+02 -0.14528488588E+02  0.18350401073E+02  0.51100000000E-03 0. -1.
        -11    1    3    3    0    0  0.31447060805E+02  0.70163332428E+01  0.24228898046E+02  0.40313596543E+02  0.51100000000E-03 0.  1.
         12    1    3    3    0    0 -0.29131485998E+02  0.47972016883E+01 -0.10524927607E+02  0.31343750918E+02  0.00000000000E+00 0. -1.
</event>
<event>
 7    1  0.1756449E-015  0.9000761E+02  0.7816164E-02  0.1186339E+00
        -11   -1    0    0    0    0  0.00000000000E+00  0.00000000000E+00  0.45593999997E+02  0.45594000000E+02  0.51100000000E-03 0.  1.
         11   -1    0    0    0    0 -0.00000000000E+00 -0.00000000000E+00 -0.45593999997E+02  0.45594000000E+02  0.51100000000E-03 0. -1.
    9900012    2    1    2    0    0  0.62932467844E+00  0.92321642954E+00 -0.38072633826E+00  0.90007605714E+02  0.89999865309E+02 0.  0.
        -12    1    1    2    0    0 -0.62932467844E+00 -0.92321642954E+00  0.38072633826E+00  0.11803942864E+01  0.00000000000E+00 0.  1.
         11    1    3    3    0    0  0.73734538282E+01  0.10261560485E+02  0.75789837076E+01  0.14734600070E+02  0.51100000000E-03 0. -1.
        -11    1    3    3    0    0 -0.31127286651E+01  0.27481421463E+02  0.15264122169E+02  0.31589729838E+02  0.51100000000E-03 0.  1.
         12    1    3    3    0    0 -0.36314004846E+01 -0.36819765518E+02 -0.23223832215E+02  0.43683275805E+02  0.00000000000E+00 0. -1.
</event>
<event>
 7    1  0.1756449E-015  0.9000781E+02  0.7816164E-02  0.1186339E+00
        -11   -1    0    0    0    0  0.00000000000E+00  0.00000000000E+00  0.45593999997E+02  0.45594000000E+02  0.51100000000E-03 0.  1.
         11   -1    0    0    0    0 -0.00000000000E+00 -0.00000000000E+00 -0.45593999997E+02  0.45594000000E+02  0.51100000000E-03 0. -1.
    9900012    2    1    2    0    0  0.88529924104E+00  0.76783719095E+00 -0.13973701715E+00  0.90007807163E+02  0.90000069418E+02 0.  0.
        -12    1    1    2    0    0 -0.88529924104E+00 -0.76783719095E+00  0.13973701715E+00  0.11801928368E+01  0.00000000000E+00 0.  1.
         11    1    3    3    0    0 -0.10743347368E+02  0.67301557845E+01 -0.35790010850E+02  0.37968926591E+02  0.51100000000E-03 0. -1.
        -11    1    3    3    0    0 -0.60229757840E+01  0.18435805877E+01 -0.43300831964E+01  0.76436017313E+01  0.51100000000E-03 0.  1.
        -12    1    3    3    0    0  0.17651622393E+02 -0.78058991812E+01  0.39980357030E+02  0.44395278841E+02  0.00000000000E+00 0.  1.
</event>
<event>
 7    1  0.1756449E-015  0.9000771E+02  0.7816164E-02  0.1186339E+00
        -11   -1    0    0    0    0  0.00000000000E+00  0.00000000000E+00  0.45593999997E+02  0.45594000000E+02  0.51100000000E-03 0.  1.
         11   -1    0    0    0    0 -0.00000000000E+00 -0.00000000000E+00 -0.45593999997E+02  0.45594000000E+02  0.51100000000E-03 0. -1.
    9900012    2    1    2    0    0  0.76256941995E-01  0.26823494323E+00 -0.11468706366E+01  0.90007713017E+02  0.89999974029E+02 0.  0.
        -12    1    1    2    0    0 -0.76256941995E-01 -0.26823494323E+00  0.11468706366E+01  0.11802869833E+01  0.00000000000E+00 0.  1.
         11    1    3    3    0    0 -0.19812268112E+02  0.19900025260E+02 -0.21195623575E+02  0.35182260190E+02  0.51100000000E-03 0. -1.
        -11    1    3    3    0    0  0.11507350816E+02 -0.20408802115E+01 -0.12359718573E+02  0.17010201595E+02  0.51100000000E-03 0.  1.
        -12    1    3    3    0    0  0.83811742384E+01 -0.17590910106E+02  0.32408471512E+02  0.37815251231E+02  0.00000000000E+00 0.  1.
</event>
<event>
 7    1  0.1756449E-015  0.9000789E+02  0.7816164E-02  0.1186339E+00
        -11   -1    0    0    0    0  0.00000000000E+00  0.00000000000E+00  0.45593999997E+02  0.45594000000E+02  0.51100000000E-03 0.  1.
         11   -1    0    0    0    0 -0.00000000000E+00 -0.00000000000E+00 -0.45593999997E+02  0.45594000000E+02  0.51100000000E-03 0. -1.
    9900012    2    1    2    0    0 -0.11065046933E+01 -0.25062530948E+00 -0.32479053879E+00  0.90007892134E+02  0.90000155510E+02 0.  0.
        -12    1    1    2    0    0  0.11065046933E+01  0.25062530948E+00  0.32479053879E+00  0.11801078663E+01  0.00000000000E+00 0.  1.
         11    1    3    3    0    0  0.84580836992E+01  0.24050690087E+01 -0.12779090346E+01  0.88857519975E+01  0.51100000000E-03 0. -1.
        -11    1    3    3    0    0 -0.41983056660E+02  0.11167061604E+02 -0.92824575934E+01  0.44423465991E+02  0.51100000000E-03 0.  1.
         12    1    3    3    0    0  0.32418468268E+02 -0.13822755922E+02  0.10235576089E+02  0.36698674145E+02  0.00000000000E+00 0. -1.
</event>
<event>
 7    1  0.1756449E-015  0.9000767E+02  0.7816164E-02  0.1186339E+00
        -11   -1    0    0    0    0  0.00000000000E+00  0.00000000000E+00  0.45593999997E+02  0.45594000000E+02  0.51100000000E-03 0.  1.
         11   -1    0    0    0    0 -0.00000000000E+00 -0.00000000000E+00 -0.45593999997E+02  0.45594000000E+02  0.51100000000E-03 0. -1.
    9900012    2    1    2    0    0 -0.60836677832E+00 -0.56415676884E+00 -0.83952164191E+00  0.90007669714E+02  0.89999930154E+02 0.  0.
        -12    1    1    2    0    0  0.60836677832E+00  0.56415676884E+00  0.83952164191E+00  0.11803302860E+01  0.00000000000E+00 0.  1.
         11    1    3    3    0    0 -0.95273959375E+01 -0.34281147933E+00  0.24409899804E+01  0.98410987906E+01  0.51100000000E-03 0. -1.
        -11    1    3    3    0    0  0.21041046389E+01 -0.38960304936E+02  0.66954410014E+01  0.39587391269E+02  0.51100000000E-03 0.  1.
         12    1    3    3    0    0  0.68149245204E+01  0.38738959646E+02 -0.99759526237E+01  0.40579179655E+02  0.00000000000E+00 0. -1.
</event>
<event>
 7    1  0.1756449E-015  0.9000776E+02  0.7816164E-02  0.1186339E+00
        -11   -1    0    0    0    0  0.00000000000E+00  0.00000000000E+00  0.45593999997E+02  0.45594000000E+02  0.51100000000E-03 0.  1.
         11   -1    0    0    0    0 -0.00000000000E+00 -0.00000000000E+00 -0.45593999997E+02  0.45594000000E+02  0.51100000000E-03 0. -1.
    9900012    2    1    2    0    0  0.11539906017E+01  0.10507511962E+00  0.22411672023E+00  0.90007761298E+02  0.90000022947E+02 0.  0.
        -12    1    1    2    0    0 -0.11539906017E+01 -0.10507511962E+00 -0.22411672023E+00  0.11802387021E+01  0.00000000000E+00 0.  1.
         11    1    3    3    0    0  0.91821913650E+01  0.33563517684E+01  0.27511773262E+01  0.10156116994E+02  0.51100000000E-03 0. -1.
        -11    1    3    3    0    0 -0.54853648777E+01  0.35019053268E+02 -0.16411757155E+02  0.39061094362E+02  0.51100000000E-03 0.  1.
         12    1    3    3    0    0 -0.25428358856E+01 -0.38270329917E+02  0.13884696549E+02  0.40790549941E+02  0.00000000000E+00 0. -1.
</event>
<event>
 7    1  0.1756449E-015  0.9000845E+02  0.7816164E-02  0.1186338E+00
        -11   -1    0    0    0    0  0.00000000000E+00  0.00000000000E+00  0.45593999997E+02  0.45594000000E+02  0.51100000000E-03 0. -1.
         11   -1    0    0    0    0 -0.00000000000E+00 -0.00000000000E+00 -0.45593999997E+02  0.45594000000E+02  0.51100000000E-03 0.  1.
    9900012    2    1    2    0    0  0.57348656967E+00 -0.84261552721E+00  0.59368395017E+00  0.90008445675E+02  0.90000716355E+02 0.  0.
        -12    1    1    2    0    0 -0.57348656967E+00  0.84261552721E+00 -0.59368395017E+00  0.11795543247E+01  0.00000000000E+00 0.  1.
         11    1    3    3    0    0  0.19996165068E+02 -0.18093585183E+02  0.24646638019E+02  0.36533289040E+02  0.51100000000E-03 0. -1.
        -11    1    3    3    0    0  0.13798877725E+01  0.20429897364E+01  0.10266482094E+02  0.10558340408E+02  0.51100000000E-03 0.  1.
        -12    1    3    3    0    0 -0.20802566271E+02  0.15207979919E+02 -0.34319436162E+02  0.42916816228E+02  0.00000000000E+00 0.  1.
</event>
<event>
 7    1  0.1756449E-015  0.9000777E+02  0.7816164E-02  0.1186339E+00
        -11   -1    0    0    0    0  0.00000000000E+00  0.00000000000E+00  0.45593999997E+02  0.45594000000E+02  0.51100000000E-03 0.  1.
         11   -1    0    0    0    0 -0.00000000000E+00 -0.00000000000E+00 -0.45593999997E+02  0.45594000000E+02  0.51100000000E-03 0. -1.
    9900012    2    1    2    0    0  0.18885736570E+00  0.84016044633E+00 -0.80709147252E+00  0.90007774036E+02  0.90000035854E+02 0.  0.
        -12    1    1    2    0    0 -0.18885736570E+00 -0.84016044633E+00  0.80709147252E+00  0.11802259636E+01  0.00000000000E+00 0.  1.
         11    1    3    3    0    0 -0.78820746054E+01 -0.35537472752E+01  0.44081365544E+00  0.86573978031E+01  0.51100000000E-03 0. -1.
        -11    1    3    3    0    0 -0.17392814018E+02 -0.22880820691E+02  0.23033506938E+02  0.36831839176E+02  0.51100000000E-03 0.  1.
         12    1    3    3    0    0  0.25463745989E+02  0.27274728413E+02 -0.24281412066E+02  0.44518537057E+02  0.00000000000E+00 0. -1.
</event>
<event>
 7    1  0.1756449E-015  0.9000783E+02  0.7816164E-02  0.1186339E+00
        -11   -1    0    0    0    0  0.00000000000E+00  0.00000000000E+00  0.45593999997E+02  0.45594000000E+02  0.51100000000E-03 0.  1.
         11   -1    0    0    0    0 -0.00000000000E+00 -0.00000000000E+00 -0.45593999997E+02  0.45594000000E+02  0.51100000000E-03 0. -1.
    9900012    2    1    2    0    0 -0.69040307543E+00 -0.52938083855E+00 -0.79743417184E+00  0.90007829785E+02  0.90000092338E+02 0.  0.
        -12    1    1    2    0    0  0.69040307543E+00  0.52938083855E+00  0.79743417184E+00  0.11801702154E+01  0.00000000000E+00 0.  1.
         11    1    3    3    0    0 -0.15714869894E+02  0.32740213269E+02 -0.94880803627E+01  0.37535348272E+02  0.51100000000E-03 0. -1.
        -11    1    3    3    0    0  0.25773117211E+01  0.64471915059E+01 -0.51118036948E+01  0.86220270990E+01  0.51100000000E-03 0.  1.
        -12    1    3    3    0    0  0.12447155097E+02 -0.39716785613E+02  0.13802449886E+02  0.43850454414E+02  0.00000000000E+00 0.  1.
</event>
<event>
 7    1  0.1756449E-015  0.9000769E+02  0.7816164E-02  0.1186339E+00
        -11   -1    0    0    0    0  0.00000000000E+00  0.00000000000E+00  0.45593999997E+02  0.45594000000E+02  0.51100000000E-03 0.  1.
         11   -1    0    0    0    0 -0.00000000000E+00 -0.00000000000E+00 -0.45593999997E+02  0.45594000000E+02  0.51100000000E-03 0. -1.
    9900012    2    1    2    0    0  0.33062673497E+00 -0.66141784795E+00 -0.91997228132E+00  0.90007687920E+02  0.89999948601E+02 0.  0.
        -12    1    1    2    0    0 -0.33062673497E+00  0.66141784795E+00  0.91997228132E+00  0.11803120799E+01  0.00000000000E+00 0.  1.
         11    1    3    3    0    0  0.45410227258E+01 -0.10219223580E+02 -0.77308798093E+00  0.11209419399E+02  0.51100000000E-03 0. -1.
        -11    1    3    3    0    0 -0.79569088368E+01  0.14665773641E+02  0.37277649265E+02  0.40841406069E+02  0.51100000000E-03 0.  1.
         12    1    3    3    0    0  0.37465128459E+01 -0.51079679093E+01 -0.37424533565E+02  0.37956862452E+02  0.00000000000E+00 0. -1.
</event>
<event>
 7    1  0.1756449E-015  0.9000772E+02  0.7816164E-02  0.1186339E+00
        -11   -1    0    0    0    0  0.00000000000E+00  0.00000000000E+00  0.45593999997E+02  0.45594000000E+02  0.51100000000E-03 0.  1.
         11   -1    0    0    0    0 -0.00000000000E+00 -0.00000000000E+00 -0.45593999997E+02  0.45594000000E+02  0.51100000000E-03 0. -1.
    9900012    2    1    2    0    0  0.84448078200E+00 -0.25270736507E+00  0.78489408091E+00  0.90007717186E+02  0.89999978253E+02 0.  0.
        -12    1    1    2    0    0 -0.84448078200E+00  0.25270736507E+00 -0.78489408091E+00  0.11802828143E+01  0.00000000000E+00 0.  1.
         11    1    3    3    0    0  0.19327034674E+01 -0.84115103774E+01 -0.38998765957E+01  0.94708968554E+01  0.51100000000E-03 0. -1.
        -11    1    3    3    0    0  0.14924534101E+02  0.69176290410E+01  0.39176055828E+02  0.42489512355E+02  0.51100000000E-03 0.  1.
         12    1    3    3    0    0 -0.16012756786E+02  0.12411739713E+01 -0.34491285152E+02  0.38047307975E+02  0.00000000000E+00 0. -1.
</event>
<event>
 7    1  0.1756449E-015  0.9000798E+02  0.7816164E-02  0.1186339E+00
        -11   -1    0    0    0    0  0.00000000000E+00  0.00000000000E+00  0.45593999997E+02  0.45594000000E+02  0.51100000000E-03 0.  1.
         11   -1    0    0    0    0 -0.00000000000E+00 -0.00000000000E+00 -0.45593999997E+02  0.45594000000E+02  0.51100000000E-03 0. -1.
    9900012    2    1    2    0    0 -0.69601988748E+00  0.46723338897E+00 -0.83047548280E+00  0.90007982945E+02  0.90000247519E+02 0.  0.
        -12    1    1    2    0    0  0.69601988748E+00 -0.46723338897E+00  0.83047548280E+00  0.11800170554E+01  0.00000000000E+00 0.  1.
         11    1    3    3    0    0  0.27512013347E+01 -0.10952500622E+02  0.10334117708E+02  0.15307526505E+02  0.51100000000E-03 0. -1.
        -11    1    3    3    0    0  0.14009221539E+02 -0.17615883927E+01  0.27138305629E+02  0.30591651058E+02  0.51100000000E-03 0.  1.
         12    1    3    3    0    0 -0.17456442761E+02  0.13181322404E+02 -0.38302898819E+02  0.44108805381E+02  0.00000000000E+00 0. -1.
</event>
<event>
 7    1  0.1756449E-015  0.9000780E+02  0.7816164E-02  0.1186339E+00
        -11   -1    0    0    0    0  0.00000000000E+00  0.00000000000E+00  0.45593999997E+02  0.45594000000E+02  0.51100000000E-03 0.  1.
         11   -1    0    0    0    0 -0.00000000000E+00 -0.00000000000E+00 -0.45593999997E+02  0.45594000000E+02  0.51100000000E-03 0. -1.
    9900012    2    1    2    0    0  0.57386258701E-01  0.10792166392E+01 -0.47420306960E+00  0.90007800742E+02  0.90000062912E+02 0.  0.
        -12    1    1    2    0    0 -0.57386258701E-01 -0.10792166392E+01  0.47420306960E+00  0.11801992579E+01  0.00000000000E+00 0.  1.
         11    1    3    3    0    0 -0.13505688234E+02 -0.22747488439E+02 -0.13894056656E+02  0.29881376400E+02  0.51100000000E-03 0. -1.
        -11    1    3    3    0    0 -0.61441280892E+01 -0.55282715898E+01 -0.13403178290E+02  0.15746659496E+02  0.51100000000E-03 0.  1.
        -12    1    3    3    0    0  0.19707202582E+02  0.29354976668E+02  0.26823031876E+02  0.44379764846E+02  0.00000000000E+00 0.  1.
</event>
<event>
 7    1  0.1756449E-015  0.9000769E+02  0.7816164E-02  0.1186339E+00
        -11   -1    0    0    0    0  0.00000000000E+00  0.00000000000E+00  0.45593999997E+02  0.45594000000E+02  0.51100000000E-03 0. -1.
         11   -1    0    0    0    0 -0.00000000000E+00 -0.00000000000E+00 -0.45593999997E+02  0.45594000000E+02  0.51100000000E-03 0.  1.
    9900012    2    1    2    0    0 -0.21132361648E+00  0.99069850635E+00 -0.60578990001E+00  0.90007693851E+02  0.89999954610E+02 0.  0.
        -12    1    1    2    0    0  0.21132361648E+00 -0.99069850635E+00  0.60578990001E+00  0.11803061486E+01  0.00000000000E+00 0.  1.
         11    1    3    3    0    0  0.12148071707E+01 -0.66590048201E+01  0.78872009276E+01  0.10393557639E+02  0.51100000000E-03 0. -1.
        -11    1    3    3    0    0  0.24875924768E+02  0.26406065848E+02  0.15422618463E+02  0.39420161176E+02  0.51100000000E-03 0.  1.
         12    1    3    3    0    0 -0.26302055555E+02 -0.18756362522E+02 -0.23915609291E+02  0.40193975036E+02  0.00000000000E+00 0. -1.
</event>
<event>
 7    1  0.1756449E-015  0.9000777E+02  0.7816164E-02  0.1186339E+00
        -11   -1    0    0    0    0  0.00000000000E+00  0.00000000000E+00  0.45593999997E+02  0.45594000000E+02  0.51100000000E-03 0.  1.
         11   -1    0    0    0    0 -0.00000000000E+00 -0.00000000000E+00 -0.45593999997E+02  0.45594000000E+02  0.51100000000E-03 0. -1.
    9900012    2    1    2    0    0 -0.21843908614E+00 -0.11472957786E+01 -0.17012334741E+00  0.90007769009E+02  0.90000030760E+02 0.  0.
        -12    1    1    2    0    0  0.21843908614E+00  0.11472957786E+01  0.17012334741E+00  0.11802309906E+01  0.00000000000E+00 0.  1.
         11    1    3    3    0    0 -0.11569646310E+02 -0.85506152183E+01  0.27730426926E+01  0.14651262826E+02  0.51100000000E-03 0. -1.
        -11    1    3    3    0    0 -0.96378811613E+01  0.32766596986E+02  0.15625528156E+02  0.37559230047E+02  0.51100000000E-03 0.  1.
         12    1    3    3    0    0  0.20989088386E+02 -0.25363277547E+02 -0.18568694196E+02  0.37797276136E+02  0.00000000000E+00 0. -1.
</event>
<event>
 7    1  0.1756449E-015  0.9000760E+02  0.7816164E-02  0.1186339E+00
        -11   -1    0    0    0    0  0.00000000000E+00  0.00000000000E+00  0.45593999997E+02  0.45594000000E+02  0.51100000000E-03 0.  1.
         11   -1    0    0    0    0 -0.00000000000E+00 -0.00000000000E+00 -0.45593999997E+02  0.45594000000E+02  0.51100000000E-03 0. -1.
    9900012    2    1    2    0    0  0.70898214471E+00 -0.77285104483E+00  0.54166364770E+00  0.90007595863E+02  0.89999855328E+02 0.  0.
        -12    1    1    2    0    0 -0.70898214471E+00  0.77285104483E+00 -0.54166364770E+00  0.11804041368E+01  0.00000000000E+00 0.  1.
         11    1    3    3    0    0 -0.18574591020E+01  0.10156003256E+02 -0.10389597321E+01  0.10376608022E+02  0.51100000000E-03 0. -1.
        -11    1    3    3    0    0 -0.34668194407E+02 -0.18246560405E+02  0.10683864015E+02  0.40607457697E+02  0.51100000000E-03 0.  1.
         12    1    3    3    0    0  0.37234635654E+02  0.73177061048E+01 -0.91032406348E+01  0.39023530145E+02  0.00000000000E+00 0. -1.
</event>
<event>
 7    1  0.1756449E-015  0.9000791E+02  0.7816164E-02  0.1186339E+00
        -11   -1    0    0    0    0  0.00000000000E+00  0.00000000000E+00  0.45593999997E+02  0.45594000000E+02  0.51100000000E-03 0. -1.
         11   -1    0    0    0    0 -0.00000000000E+00 -0.00000000000E+00 -0.45593999997E+02  0.45594000000E+02  0.51100000000E-03 0.  1.
    9900012    2    1    2    0    0  0.54985668225E+00  0.10420681501E+01 -0.66145053021E-01  0.90007905271E+02  0.90000168821E+02 0.  0.
        -12    1    1    2    0    0 -0.54985668225E+00 -0.10420681501E+01  0.66145053021E-01  0.11800947286E+01  0.00000000000E+00 0.  1.
         11    1    3    3    0    0  0.66688635567E+01  0.11642759858E+02 -0.53605105652E+01  0.14448621804E+02  0.51100000000E-03 0. -1.
        -11    1    3    3    0    0 -0.27952147106E+02  0.33071097878E+01 -0.23623972601E+02  0.36747130292E+02  0.51100000000E-03 0.  1.
         12    1    3    3    0    0  0.21833140232E+02 -0.13907801496E+02  0.28918338113E+02  0.38812153175E+02  0.00000000000E+00 0. -1.
</event>
<event>
 7    1  0.1756449E-015  0.9000776E+02  0.7816164E-02  0.1186339E+00
        -11   -1    0    0    0    0  0.00000000000E+00  0.00000000000E+00  0.45593999997E+02  0.45594000000E+02  0.51100000000E-03 0. -1.
         11   -1    0    0    0    0 -0.00000000000E+00 -0.00000000000E+00 -0.45593999997E+02  0.45594000000E+02  0.51100000000E-03 0.  1.
    9900012    2    1    2    0    0  0.11783066173E+01  0.26672528092E-02  0.67510238255E-01  0.90007757978E+02  0.90000019583E+02 0.  0.
        -12    1    1    2    0    0 -0.11783066173E+01 -0.26672528092E-02 -0.67510238255E-01  0.11802420221E+01  0.00000000000E+00 0.  1.
         11    1    3    3    0    0  0.42656086469E+02 -0.55038790526E+01  0.28796421432E+01  0.43105994207E+02  0.51100000000E-03 0. -1.
        -11    1    3    3    0    0 -0.29044331778E+01  0.65056251877E+01  0.32699247461E+01  0.78390879108E+01  0.51100000000E-03 0.  1.
        -12    1    3    3    0    0 -0.38573346674E+02 -0.99907888221E+00 -0.60820566511E+01  0.39062675860E+02  0.00000000000E+00 0.  1.
</event>
<event>
 7    1  0.1756449E-015  0.9000760E+02  0.7816164E-02  0.1186339E+00
        -11   -1    0    0    0    0  0.00000000000E+00  0.00000000000E+00  0.45593999997E+02  0.45594000000E+02  0.51100000000E-03 0.  1.
         11   -1    0    0    0    0 -0.00000000000E+00 -0.00000000000E+00 -0.45593999997E+02  0.45594000000E+02  0.51100000000E-03 0. -1.
    9900012    2    1    2    0    0 -0.11112466856E+01  0.18004409080E-01 -0.39768144316E+00  0.90007600116E+02  0.89999859638E+02 0.  0.
        -12    1    1    2    0    0  0.11112466856E+01 -0.18004409080E-01  0.39768144316E+00  0.11803998836E+01  0.00000000000E+00 0.  1.
         11    1    3    3    0    0  0.59042058582E+01 -0.35238501902E+01  0.55839693717E+01  0.88576453521E+01  0.51100000000E-03 0. -1.
        -11    1    3    3    0    0  0.29734051768E+02  0.17592158857E+02  0.13690411196E+02  0.37162148037E+02  0.51100000000E-03 0.  1.
         12    1    3    3    0    0 -0.36749504311E+02 -0.14050304258E+02 -0.19672062011E+02  0.43987806727E+02  0.00000000000E+00 0. -1.
</event>
<event>
 7    1  0.1756449E-015  0.9000775E+02  0.7816164E-02  0.1186339E+00
        -11   -1    0    0    0    0  0.00000000000E+00  0.00000000000E+00  0.45593999997E+02  0.45594000000E+02  0.51100000000E-03 0. -1.
         11   -1    0    0    0    0 -0.00000000000E+00 -0.00000000000E+00 -0.45593999997E+02  0.45594000000E+02  0.51100000000E-03 0.  1.
    9900012    2    1    2    0    0  0.79566534812E+00  0.30677820437E+00  0.81595823099E+00  0.90007752548E+02  0.90000014082E+02 0.  0.
        -12    1    1    2    0    0 -0.79566534812E+00 -0.30677820437E+00 -0.81595823099E+00  0.11802474519E+01  0.00000000000E+00 0.  1.
         11    1    3    3    0    0  0.60260560669E+01  0.81672780096E+01  0.48559810767E+00  0.10161377249E+02  0.51100000000E-03 0. -1.
        -11    1    3    3    0    0  0.29478601512E+02  0.11455521778E+02 -0.17679591153E+02  0.36232373231E+02  0.51100000000E-03 0.  1.
         12    1    3    3    0    0 -0.34708992231E+02 -0.19316021583E+02  0.18009951277E+02  0.43614002069E+02  0.00000000000E+00 0. -1.
</event>
<event>
 7    1  0.1756449E-015  0.9000768E+02  0.7816164E-02  0.1186339E+00
        -11   -1    0    0    0    0  0.00000000000E+00  0.00000000000E+00  0.45593999997E+02  0.45594000000E+02  0.51100000000E-03 0. -1.
         11   -1    0    0    0    0 -0.00000000000E+00 -0.00000000000E+00 -0.45593999997E+02  0.45594000000E+02  0.51100000000E-03 0.  1.
    9900012    2    1    2    0    0 -0.84841277069E+00 -0.80217128814E+00  0.17283842177E+00  0.90007679652E+02  0.89999940223E+02 0.  0.
        -12    1    1    2    0    0  0.84841277069E+00  0.80217128814E+00 -0.17283842177E+00  0.11803203485E+01  0.00000000000E+00 0.  1.
         11    1    3    3    0    0 -0.10860654644E+01 -0.13392619130E+01 -0.87217160319E+01  0.88905281883E+01  0.51100000000E-03 0. -1.
        -11    1    3    3    0    0 -0.34563233023E+01  0.39428289921E+02  0.13412981415E+02  0.41790480824E+02  0.51100000000E-03 0.  1.
         12    1    3    3    0    0  0.36939759960E+01 -0.38891199296E+02 -0.45184269612E+01  0.39326670639E+02  0.00000000000E+00 0. -1.
</event>
<event>
 7    1  0.1756449E-015  0.9000776E+02  0.7816164E-02  0.1186339E+00
        -11   -1    0    0    0    0  0.00000000000E+00  0.00000000000E+00  0.45593999997E+02  0.45594000000E+02  0.51100000000E-03 0.  1.
         11   -1    0    0    0    0 -0.00000000000E+00 -0.00000000000E+00 -0.45593999997E+02  0.45594000000E+02  0.51100000000E-03 0. -1.
    9900012    2    1    2    0    0  0.52200332617E+00 -0.88722533364E+00 -0.57733137446E+00  0.90007759439E+02  0.90000021064E+02 0.  0.
        -12    1    1    2    0    0 -0.52200332617E+00  0.88722533364E+00  0.57733137446E+00  0.11802405607E+01  0.00000000000E+00 0.  1.
         11    1    3    3    0    0 -0.57309952787E+01 -0.27577366942E+01 -0.75511680464E+01  0.98726672021E+01  0.51100000000E-03 0. -1.
        -11    1    3    3    0    0  0.27680086463E+02  0.31263217309E+02  0.11925749424E+02  0.43425792367E+02  0.51100000000E-03 0.  1.
         12    1    3    3    0    0 -0.21427087858E+02 -0.29392705949E+02 -0.49519127518E+01  0.36709299870E+02  0.00000000000E+00 0. -1.
</event>
<event>
 7    1  0.1756449E-015  0.9000781E+02  0.7816164E-02  0.1186339E+00
        -11   -1    0    0    0    0  0.00000000000E+00  0.00000000000E+00  0.45593999997E+02  0.45594000000E+02  0.51100000000E-03 0.  1.
         11   -1    0    0    0    0 -0.00000000000E+00 -0.00000000000E+00 -0.45593999997E+02  0.45594000000E+02  0.51100000000E-03 0. -1.
    9900012    2    1    2    0    0 -0.92034438301E+00 -0.68451734944E+00 -0.27794144162E+00  0.90007809664E+02  0.90000071951E+02 0.  0.
        -12    1    1    2    0    0  0.92034438301E+00  0.68451734944E+00  0.27794144162E+00  0.11801903363E+01  0.00000000000E+00 0.  1.
         11    1    3    3    0    0 -0.84724489978E+01 -0.24524003207E+02 -0.30764911971E+02  0.40245359163E+02  0.51100000000E-03 0. -1.
        -11    1    3    3    0    0  0.82931402043E+01  0.20079383341E+01 -0.36127572948E+01  0.92660674687E+01  0.51100000000E-03 0.  1.
        -12    1    3    3    0    0 -0.74103558948E+00  0.21831547523E+02  0.34099727824E+02  0.40496383032E+02  0.00000000000E+00 0.  1.
</event>
<event>
 7    1  0.1756449E-015  0.9000773E+02  0.7816164E-02  0.1186339E+00
        -11   -1    0    0    0    0  0.00000000000E+00  0.00000000000E+00  0.45593999997E+02  0.45594000000E+02  0.51100000000E-03 0.  1.
         11   -1    0    0    0    0 -0.00000000000E+00 -0.00000000000E+00 -0.45593999997E+02  0.45594000000E+02  0.51100000000E-03 0. -1.
    9900012    2    1    2    0    0 -0.17046057008E+00 -0.91115551763E-01 -0.11643339236E+01  0.90007732092E+02  0.89999993355E+02 0.  0.
        -12    1    1    2    0    0  0.17046057008E+00  0.91115551763E-01  0.11643339236E+01  0.11802679083E+01  0.00000000000E+00 0.  1.
         11    1    3    3    0    0 -0.86285105657E+01  0.27574458650E+01  0.11925069020E+01  0.91365625513E+01  0.51100000000E-03 0. -1.
        -11    1    3    3    0    0 -0.30127084999E+02 -0.16120809695E+02  0.13979933758E+02  0.36918292266E+02  0.51100000000E-03 0.  1.
         12    1    3    3    0    0  0.38585134994E+02  0.13272248278E+02 -0.16336774583E+02  0.43952877274E+02  0.00000000000E+00 0. -1.
</event>
<event>
 7    1  0.1756449E-015  0.9000784E+02  0.7816164E-02  0.1186339E+00
        -11   -1    0    0    0    0  0.00000000000E+00  0.00000000000E+00  0.45593999997E+02  0.45594000000E+02  0.51100000000E-03 0.  1.
         11   -1    0    0    0    0 -0.00000000000E+00 -0.00000000000E+00 -0.45593999997E+02  0.45594000000E+02  0.51100000000E-03 0. -1.
    9900012    2    1    2    0    0 -0.51505287813E+00  0.59276348356E-01 -0.10601848359E+01  0.90007836859E+02  0.90000099506E+02 0.  0.
        -12    1    1    2    0    0  0.51505287813E+00 -0.59276348356E-01  0.10601848359E+01  0.11801631409E+01  0.00000000000E+00 0.  1.
         11    1    3    3    0    0 -0.53925582987E+01  0.65888331844E+01  0.66953938946E+01  0.10831468386E+02  0.51100000000E-03 0. -1.
        -11    1    3    3    0    0 -0.18176828633E+02 -0.15953072114E+02  0.27109404423E+02  0.36329291453E+02  0.51100000000E-03 0.  1.
         12    1    3    3    0    0  0.23054334054E+02  0.94235152775E+01 -0.34864983154E+02  0.42847077020E+02  0.00000000000E+00 0. -1.
</event>
<event>
 7    1  0.1756449E-015  0.9000778E+02  0.7816164E-02  0.1186339E+00
        -11   -1    0    0    0    0  0.00000000000E+00  0.00000000000E+00  0.45593999997E+02  0.45594000000E+02  0.51100000000E-03 0.  1.
         11   -1    0    0    0    0 -0.00000000000E+00 -0.00000000000E+00 -0.45593999997E+02  0.45594000000E+02  0.51100000000E-03 0. -1.
    9900012    2    1    2    0    0  0.89944119811E+00  0.26688356644E+00 -0.71602834556E+00  0.90007780572E+02  0.90000042475E+02 0.  0.
        -12    1    1    2    0    0 -0.89944119811E+00 -0.26688356644E+00  0.71602834556E+00  0.11802194281E+01  0.00000000000E+00 0.  1.
         11    1    3    3    0    0  0.21552535549E+02  0.28031452092E+02 -0.19080400350E+02  0.40178797553E+02  0.51100000000E-03 0. -1.
        -11    1    3    3    0    0  0.37604987569E+01 -0.37175511845E+01 -0.58375417627E+01  0.78764479178E+01  0.51100000000E-03 0.  1.
        -12    1    3    3    0    0 -0.24413593107E+02 -0.24047017341E+02  0.24201913768E+02  0.41952535101E+02  0.00000000000E+00 0.  1.
</event>
<event>
 7    1  0.1756449E-015  0.9000771E+02  0.7816164E-02  0.1186339E+00
        -11   -1    0    0    0    0  0.00000000000E+00  0.00000000000E+00  0.45593999997E+02  0.45594000000E+02  0.51100000000E-03 0. -1.
         11   -1    0    0    0    0 -0.00000000000E+00 -0.00000000000E+00 -0.45593999997E+02  0.45594000000E+02  0.51100000000E-03 0.  1.
    9900012    2    1    2    0    0 -0.43932559844E+00  0.73317917750E+00  0.81395581135E+00  0.90007710734E+02  0.89999971716E+02 0.  0.
        -12    1    1    2    0    0  0.43932559844E+00 -0.73317917750E+00 -0.81395581135E+00  0.11802892656E+01  0.00000000000E+00 0.  1.
         11    1    3    3    0    0 -0.36451746044E+01 -0.43732470007E+01 -0.88760312867E+01  0.10544976002E+02  0.51100000000E-03 0. -1.
        -11    1    3    3    0    0  0.31202247189E+02  0.32206058686E+01 -0.21100463324E+02  0.37804524657E+02  0.51100000000E-03 0.  1.
         12    1    3    3    0    0 -0.27996398183E+02  0.18858203096E+01  0.30790450422E+02  0.41658210075E+02  0.00000000000E+00 0. -1.
</event>
<event>
 7    1  0.1756449E-015  0.9000773E+02  0.7816164E-02  0.1186339E+00
        -11   -1    0    0    0    0  0.00000000000E+00  0.00000000000E+00  0.45593999997E+02  0.45594000000E+02  0.51100000000E-03 0. -1.
         11   -1    0    0    0    0 -0.00000000000E+00 -0.00000000000E+00 -0.45593999997E+02  0.45594000000E+02  0.51100000000E-03 0.  1.
    9900012    2    1    2    0    0  0.53600223356E-01 -0.88687625665E+00  0.77692605479E+00  0.90007730296E+02  0.89999991536E+02 0.  0.
        -12    1    1    2    0    0 -0.53600223356E-01  0.88687625665E+00 -0.77692605479E+00  0.11802697036E+01  0.00000000000E+00 0.  1.
         11    1    3    3    0    0 -0.70997229483E+01 -0.36044752188E+02 -0.16946163900E+01  0.36776377624E+02  0.51100000000E-03 0. -1.
        -11    1    3    3    0    0 -0.14732007839E+02  0.87594331770E+01 -0.55488831877E+01  0.18015266566E+02  0.51100000000E-03 0.  1.
         12    1    3    3    0    0  0.21885331011E+02  0.26398442754E+02  0.80204256325E+01  0.35216086106E+02  0.00000000000E+00 0. -1.
</event>
<event>
 7    1  0.1756449E-015  0.9000769E+02  0.7816164E-02  0.1186339E+00
        -11   -1    0    0    0    0  0.00000000000E+00  0.00000000000E+00  0.45593999997E+02  0.45594000000E+02  0.51100000000E-03 0. -1.
         11   -1    0    0    0    0 -0.00000000000E+00 -0.00000000000E+00 -0.45593999997E+02  0.45594000000E+02  0.51100000000E-03 0.  1.
    9900012    2    1    2    0    0 -0.10093640842E-01 -0.11119730202E+01  0.39566943700E+00  0.90007686405E+02  0.89999947066E+02 0.  0.
        -12    1    1    2    0    0  0.10093640842E-01  0.11119730202E+01 -0.39566943700E+00  0.11803135950E+01  0.00000000000E+00 0.  1.
         11    1    3    3    0    0 -0.28351855314E+02  0.10745777747E+02  0.22754284530E+02  0.37908533392E+02  0.51100000000E-03 0. -1.
        -11    1    3    3    0    0  0.44660229801E+01  0.63279970839E+01  0.67612584639E+01  0.10281221942E+02  0.51100000000E-03 0.  1.
        -12    1    3    3    0    0  0.23875738693E+02 -0.18185747851E+02 -0.29119873557E+02  0.41817931071E+02  0.00000000000E+00 0.  1.
</event>
<event>
 7    1  0.1756449E-015  0.9000773E+02  0.7816164E-02  0.1186339E+00
        -11   -1    0    0    0    0  0.00000000000E+00  0.00000000000E+00  0.45593999997E+02  0.45594000000E+02  0.51100000000E-03 0. -1.
         11   -1    0    0    0    0 -0.00000000000E+00 -0.00000000000E+00 -0.45593999997E+02  0.45594000000E+02  0.51100000000E-03 0.  1.
    9900012    2    1    2    0    0 -0.54063375603E-01 -0.33854150376E+00  0.11293796366E+01  0.90007732419E+02  0.89999993687E+02 0.  0.
        -12    1    1    2    0    0  0.54063375603E-01  0.33854150376E+00 -0.11293796366E+01  0.11802675807E+01  0.00000000000E+00 0.  1.
         11    1    3    3    0    0  0.82439142915E+01 -0.60858663255E+01 -0.32940244096E+01  0.10763386495E+02  0.51100000000E-03 0. -1.
        -11    1    3    3    0    0  0.30520592038E+02  0.23399892700E+01  0.20764958776E+02  0.36988722624E+02  0.51100000000E-03 0.  1.
         12    1    3    3    0    0 -0.38818569705E+02  0.34073355517E+01 -0.16341554730E+02  0.42255623300E+02  0.00000000000E+00 0. -1.
</event>
<event>
 7    1  0.1756449E-015  0.9000778E+02  0.7816164E-02  0.1186339E+00
        -11   -1    0    0    0    0  0.00000000000E+00  0.00000000000E+00  0.45593999997E+02  0.45594000000E+02  0.51100000000E-03 0. -1.
         11   -1    0    0    0    0 -0.00000000000E+00 -0.00000000000E+00 -0.45593999997E+02  0.45594000000E+02  0.51100000000E-03 0.  1.
    9900012    2    1    2    0    0  0.87633751461E+00  0.78298759212E+00 -0.10901627257E+00  0.90007779022E+02  0.90000040905E+02 0.  0.
        -12    1    1    2    0    0 -0.87633751461E+00 -0.78298759212E+00  0.10901627257E+00  0.11802209779E+01  0.00000000000E+00 0.  1.
         11    1    3    3    0    0 -0.56660531083E+01  0.29810185154E+01 -0.26753100319E+02  0.27508526063E+02  0.51100000000E-03 0. -1.
        -11    1    3    3    0    0 -0.19826799870E+02 -0.24254736045E+01 -0.56958902112E+01  0.20770846898E+02  0.51100000000E-03 0.  1.
         12    1    3    3    0    0  0.26369190493E+02  0.22744268120E+00  0.32339974258E+02  0.41728406061E+02  0.00000000000E+00 0. -1.
</event>
<event>
 7    1  0.1756449E-015  0.9000673E+02  0.7816164E-02  0.1186341E+00
        -11   -1    0    0    0    0  0.00000000000E+00  0.00000000000E+00  0.45593999997E+02  0.45594000000E+02  0.51100000000E-03 0.  1.
         11   -1    0    0    0    0 -0.00000000000E+00 -0.00000000000E+00 -0.45593999997E+02  0.45594000000E+02  0.51100000000E-03 0. -1.
    9900012    2    1    2    0    0 -0.20557805040E-01 -0.96174649308E-01 -0.11771692826E+01  0.90006729622E+02  0.89998977647E+02 0.  0.
        -12    1    1    2    0    0  0.20557805040E-01  0.96174649308E-01  0.11771692826E+01  0.11812703782E+01  0.00000000000E+00 0.  1.
         11    1    3    3    0    0 -0.74708485346E+01  0.24690361726E+01 -0.41009570688E+02  0.41757569442E+02  0.51100000000E-03 0. -1.
        -11    1    3    3    0    0  0.53080562648E+01 -0.76343043215E+01  0.13742769838E+01  0.93992925943E+01  0.51100000000E-03 0.  1.
        -12    1    3    3    0    0  0.21422344647E+01  0.50690934996E+01  0.38458124421E+02  0.38849867585E+02  0.00000000000E+00 0.  1.
</event>
<event>
 7    1  0.1756449E-015  0.9000768E+02  0.7816164E-02  0.1186339E+00
        -11   -1    0    0    0    0  0.00000000000E+00  0.00000000000E+00  0.45593999997E+02  0.45594000000E+02  0.51100000000E-03 0. -1.
         11   -1    0    0    0    0 -0.00000000000E+00 -0.00000000000E+00 -0.45593999997E+02  0.45594000000E+02  0.51100000000E-03 0.  1.
    9900012    2    1    2    0    0  0.53206537280E+00 -0.86027014469E+00  0.60827312032E+00  0.90007680352E+02  0.89999940933E+02 0.  0.
        -12    1    1    2    0    0 -0.53206537280E+00  0.86027014469E+00 -0.60827312032E+00  0.11803196481E+01  0.00000000000E+00 0.  1.
         11    1    3    3    0    0  0.29554430443E+02  0.71111972437E+01  0.20408968188E+02  0.36613651386E+02  0.51100000000E-03 0. -1.
        -11    1    3    3    0    0  0.12920163016E+01  0.36431254074E+01  0.91272329174E+01  0.99120154281E+01  0.51100000000E-03 0.  1.
        -12    1    3    3    0    0 -0.30314381372E+02 -0.11614592796E+02 -0.28927927985E+02  0.43482013538E+02  0.00000000000E+00 0.  1.
</event>
<event>
 7    1  0.1756449E-015  0.9000771E+02  0.7816164E-02  0.1186339E+00
        -11   -1    0    0    0    0  0.00000000000E+00  0.00000000000E+00  0.45593999997E+02  0.45594000000E+02  0.51100000000E-03 0. -1.
         11   -1    0    0    0    0 -0.00000000000E+00 -0.00000000000E+00 -0.45593999997E+02  0.45594000000E+02  0.51100000000E-03 0.  1.
    9900012    2    1    2    0    0 -0.86299516561E+00  0.64383488523E+00  0.48353224115E+00  0.90007708746E+02  0.89999969702E+02 0.  0.
        -12    1    1    2    0    0  0.86299516561E+00 -0.64383488523E+00 -0.48353224115E+00  0.11802912537E+01  0.00000000000E+00 0.  1.
         11    1    3    3    0    0  0.33109954741E+02 -0.20234139140E+02  0.20120954862E+01  0.38855347356E+02  0.51100000000E-03 0. -1.
        -11    1    3    3    0    0  0.48351219486E+01  0.77244440833E+01  0.37161040652E+01  0.98414872016E+01  0.51100000000E-03 0.  1.
        -12    1    3    3    0    0 -0.38808071855E+02  0.13153529942E+02 -0.52446673103E+01  0.41310874189E+02  0.00000000000E+00 0.  1.
</event>
<event>
 7    1  0.1756449E-015  0.9000773E+02  0.7816164E-02  0.1186339E+00
        -11   -1    0    0    0    0  0.00000000000E+00  0.00000000000E+00  0.45593999997E+02  0.45594000000E+02  0.51100000000E-03 0.  1.
         11   -1    0    0    0    0 -0.00000000000E+00 -0.00000000000E+00 -0.45593999997E+02  0.45594000000E+02  0.51100000000E-03 0. -1.
    9900012    2    1    2    0    0 -0.60535725454E+00  0.56676382483E+00 -0.83985204807E+00  0.90007733038E+02  0.89999994314E+02 0.  0.
        -12    1    1    2    0    0  0.60535725454E+00 -0.56676382483E+00  0.83985204807E+00  0.11802669619E+01  0.00000000000E+00 0.  1.
         11    1    3    3    0    0 -0.86120759280E+01 -0.29954993286E+01 -0.11518929756E+01  0.91906324976E+01  0.51100000000E-03 0. -1.
        -11    1    3    3    0    0 -0.33279013822E+02  0.17037906750E+02  0.43156045837E-01  0.37386961499E+02  0.51100000000E-03 0.  1.
         12    1    3    3    0    0  0.41285732496E+02 -0.13475643597E+02  0.26888488173E+00  0.43430139041E+02  0.00000000000E+00 0. -1.
</event>
<event>
 7    1  0.1756449E-015  0.9000786E+02  0.7816164E-02  0.1186339E+00
        -11   -1    0    0    0    0  0.00000000000E+00  0.00000000000E+00  0.45593999997E+02  0.45594000000E+02  0.51100000000E-03 0. -1.
         11   -1    0    0    0    0 -0.00000000000E+00 -0.00000000000E+00 -0.45593999997E+02  0.45594000000E+02  0.51100000000E-03 0.  1.
    9900012    2    1    2    0    0 -0.15604373889E+00  0.80357502050E+00 -0.85008469507E+00  0.90007861681E+02  0.90000124656E+02 0.  0.
        -12    1    1    2    0    0  0.15604373889E+00 -0.80357502050E+00  0.85008469507E+00  0.11801383185E+01  0.00000000000E+00 0.  1.
         11    1    3    3    0    0  0.30365269258E+02 -0.11308520759E+02  0.22468163991E+02  0.39430326048E+02  0.51100000000E-03 0. -1.
        -11    1    3    3    0    0 -0.50276781490E+01 -0.74333417540E+00  0.71823596908E+01  0.87986580940E+01  0.51100000000E-03 0.  1.
        -12    1    3    3    0    0 -0.25493634848E+02  0.12855429955E+02 -0.30500608377E+02  0.41778877539E+02  0.00000000000E+00 0.  1.
</event>
<event>
 7    1  0.1756449E-015  0.9000770E+02  0.7816164E-02  0.1186339E+00
        -11   -1    0    0    0    0  0.00000000000E+00  0.00000000000E+00  0.45593999997E+02  0.45594000000E+02  0.51100000000E-03 0.  1.
         11   -1    0    0    0    0 -0.00000000000E+00 -0.00000000000E+00 -0.45593999997E+02  0.45594000000E+02  0.51100000000E-03 0. -1.
    9900012    2    1    2    0    0  0.32390292067E+00 -0.77876325975E+00 -0.82567017809E+00  0.90007696412E+02  0.89999957205E+02 0.  0.
        -12    1    1    2    0    0 -0.32390292067E+00  0.77876325975E+00  0.82567017809E+00  0.11803035880E+01  0.00000000000E+00 0.  1.
         11    1    3    3    0    0 -0.28431225285E+02  0.20455251606E+02 -0.19261082412E+02  0.39971754845E+02  0.51100000000E-03 0. -1.
        -11    1    3    3    0    0  0.67049630296E+01  0.35103225417E+01 -0.53263376175E+01  0.92546618659E+01  0.51100000000E-03 0.  1.
        -12    1    3    3    0    0  0.22050165176E+02 -0.24744337407E+02  0.23761749852E+02  0.40781279701E+02  0.00000000000E+00 0.  1.
</event>
<event>
 7    1  0.1975224E-015  0.9000764E+02  0.7816164E-02  0.1186339E+00
        -11   -1    0    0    0    0  0.00000000000E+00  0.00000000000E+00  0.45593999997E+02  0.45594000000E+02  0.51100000000E-03 0.  1.
         11   -1    0    0    0    0 -0.00000000000E+00 -0.00000000000E+00 -0.45593999997E+02  0.45594000000E+02  0.51100000000E-03 0. -1.
    9900012    2    1    2    0    0  0.53513913087E+00  0.58909449841E+00 -0.87168442760E+00  0.90007644139E+02  0.89999904242E+02 0.  0.
        -12    1    1    2    0    0 -0.53513913087E+00 -0.58909449841E+00  0.87168442760E+00  0.11803558611E+01  0.00000000000E+00 0.  1.
         11    1    3    3    0    0 -0.55023760171E+01  0.75760496643E+01  0.17926039819E+01  0.95334201443E+01  0.51100000000E-03 0. -1.
        -11    1    3    3    0    0  0.25487234391E+02 -0.15159743621E+02  0.29616219178E+02  0.41911065153E+02  0.51100000000E-03 0.  1.
         12    1    3    3    0    0 -0.19449719243E+02  0.81727884549E+01 -0.32280507588E+02  0.38563158842E+02  0.00000000000E+00 0. -1.
</event>
<event>
 7    1  0.1756449E-015  0.9000756E+02  0.7816164E-02  0.1186339E+00
        -11   -1    0    0    0    0  0.00000000000E+00  0.00000000000E+00  0.45593999997E+02  0.45594000000E+02  0.51100000000E-03 0.  1.
         11   -1    0    0    0    0 -0.00000000000E+00 -0.00000000000E+00 -0.45593999997E+02  0.45594000000E+02  0.51100000000E-03 0. -1.
    9900012    2    1    2    0    0 -0.11011106101E+01 -0.42536050588E+00  0.83883475624E-02  0.90007556651E+02  0.89999815599E+02 0.  0.
        -12    1    1    2    0    0  0.11011106101E+01  0.42536050588E+00 -0.83883475624E-02  0.11804433489E+01  0.00000000000E+00 0.  1.
         11    1    3    3    0    0  0.34609625553E+02  0.62723458971E+01 -0.23721497911E+02  0.42424968678E+02  0.51100000000E-03 0. -1.
        -11    1    3    3    0    0 -0.10857901447E+02 -0.11077334759E+01 -0.23086097392E+01  0.11155750826E+02  0.51100000000E-03 0.  1.
        -12    1    3    3    0    0 -0.24852834716E+02 -0.55899729271E+01  0.26038495998E+02  0.36426837147E+02  0.00000000000E+00 0.  1.
</event>
<event>
 7    1  0.1756449E-015  0.9000765E+02  0.7816164E-02  0.1186339E+00
        -11   -1    0    0    0    0  0.00000000000E+00  0.00000000000E+00  0.45593999997E+02  0.45594000000E+02  0.51100000000E-03 0.  1.
         11   -1    0    0    0    0 -0.00000000000E+00 -0.00000000000E+00 -0.45593999997E+02  0.45594000000E+02  0.51100000000E-03 0. -1.
    9900012    2    1    2    0    0  0.11601937052E+01  0.62496741932E-01 -0.20799596003E+00  0.90007653612E+02  0.89999913840E+02 0.  0.
        -12    1    1    2    0    0 -0.11601937052E+01 -0.62496741932E-01  0.20799596003E+00  0.11803463881E+01  0.00000000000E+00 0.  1.
         11    1    3    3    0    0 -0.19081279241E+01  0.82940231811E+01 -0.43831061807E+01  0.95730555601E+01  0.51100000000E-03 0. -1.
        -11    1    3    3    0    0  0.26676113029E+02  0.15398386106E+02  0.26189541041E+02  0.40430401447E+02  0.51100000000E-03 0.  1.
         12    1    3    3    0    0 -0.23607791400E+02 -0.23629912545E+02 -0.22014430820E+02  0.40004196605E+02  0.00000000000E+00 0. -1.
</event>
<event>
 7    1  0.1756449E-015  0.9000763E+02  0.7816164E-02  0.1186339E+00
        -11   -1    0    0    0    0  0.00000000000E+00  0.00000000000E+00  0.45593999997E+02  0.45594000000E+02  0.51100000000E-03 0.  1.
         11   -1    0    0    0    0 -0.00000000000E+00 -0.00000000000E+00 -0.45593999997E+02  0.45594000000E+02  0.51100000000E-03 0. -1.
    9900012    2    1    2    0    0  0.40083762969E+00 -0.64026557637E-01 -0.11083736125E+01  0.90007634688E+02  0.89999894666E+02 0.  0.
        -12    1    1    2    0    0 -0.40083762969E+00  0.64026557637E-01  0.11083736125E+01  0.11803653122E+01  0.00000000000E+00 0.  1.
         11    1    3    3    0    0  0.90738779319E+01  0.43983880978E+01  0.21673629894E+01  0.10313997342E+02  0.51100000000E-03 0. -1.
        -11    1    3    3    0    0  0.31138796038E+01 -0.27426318161E+02  0.27881224412E+02  0.39233427699E+02  0.51100000000E-03 0.  1.
         12    1    3    3    0    0 -0.11786919906E+02  0.22963903505E+02 -0.31156961014E+02  0.40460209647E+02  0.00000000000E+00 0. -1.
</event>
<event>
 7    1  0.1756449E-015  0.9000779E+02  0.7816164E-02  0.1186339E+00
        -11   -1    0    0    0    0  0.00000000000E+00  0.00000000000E+00  0.45593999997E+02  0.45594000000E+02  0.51100000000E-03 0. -1.
         11   -1    0    0    0    0 -0.00000000000E+00 -0.00000000000E+00 -0.45593999997E+02  0.45594000000E+02  0.51100000000E-03 0.  1.
    9900012    2    1    2    0    0 -0.10800946592E+01  0.46954861738E+00  0.76186443406E-01  0.90007794615E+02  0.90000056704E+02 0.  0.
        -12    1    1    2    0    0  0.10800946592E+01 -0.46954861738E+00 -0.76186443406E-01  0.11802053851E+01  0.00000000000E+00 0.  1.
         11    1    3    3    0    0  0.17618500155E+02  0.14483226942E+02  0.29467872554E+02  0.37262996706E+02  0.51100000000E-03 0. -1.
        -11    1    3    3    0    0 -0.59869992223E+00  0.83279029130E+01  0.35033210499E+01  0.90545937051E+01  0.51100000000E-03 0.  1.
        -12    1    3    3    0    0 -0.18099894892E+02 -0.22341581238E+02 -0.32895007160E+02  0.43690204204E+02  0.00000000000E+00 0.  1.
</event>
<event>
 7    1  0.1756449E-015  0.9000722E+02  0.7816164E-02  0.1186340E+00
        -11   -1    0    0    0    0  0.00000000000E+00  0.00000000000E+00  0.45593999997E+02  0.45594000000E+02  0.51100000000E-03 0. -1.
         11   -1    0    0    0    0 -0.00000000000E+00 -0.00000000000E+00 -0.45593999997E+02  0.45594000000E+02  0.51100000000E-03 0.  1.
    9900012    2    1    2    0    0 -0.15372276423E+00  0.19254327167E+00  0.11547858145E+01  0.90007223189E+02  0.89999477734E+02 0.  0.
        -12    1    1    2    0    0  0.15372276423E+00 -0.19254327167E+00 -0.11547858145E+01  0.11807768109E+01  0.00000000000E+00 0.  1.
         11    1    3    3    0    0 -0.35182273122E+02 -0.16097556771E+02  0.21114375016E+02  0.44076530133E+02  0.51100000000E-03 0. -1.
        -11    1    3    3    0    0  0.39452197448E+01  0.77026466054E+01 -0.15308160417E+01  0.87885676635E+01  0.51100000000E-03 0.  1.
        -12    1    3    3    0    0  0.31083330613E+02  0.85874534373E+01 -0.18428773160E+02  0.37142125393E+02  0.00000000000E+00 0.  1.
</event>
<event>
 7    1  0.1756449E-015  0.9000771E+02  0.7816164E-02  0.1186339E+00
        -11   -1    0    0    0    0  0.00000000000E+00  0.00000000000E+00  0.45593999997E+02  0.45594000000E+02  0.51100000000E-03 0.  1.
         11   -1    0    0    0    0 -0.00000000000E+00 -0.00000000000E+00 -0.45593999997E+02  0.45594000000E+02  0.51100000000E-03 0. -1.
    9900012    2    1    2    0    0 -0.77814374167E+00  0.13451124198E+00 -0.87720361091E+00  0.90007708878E+02  0.89999969836E+02 0.  0.
        -12    1    1    2    0    0  0.77814374167E+00 -0.13451124198E+00  0.87720361091E+00  0.11802911217E+01  0.00000000000E+00 0.  1.
         11    1    3    3    0    0  0.28557262116E+02 -0.13103484312E+02  0.11673674745E+02  0.33518550132E+02  0.51100000000E-03 0. -1.
        -11    1    3    3    0    0  0.57902502570E+01 -0.43205788097E+01  0.91214991464E+01  0.11635984970E+02  0.51100000000E-03 0.  1.
        -12    1    3    3    0    0 -0.35125656114E+02  0.17558574364E+02 -0.21672377502E+02  0.44853173776E+02  0.00000000000E+00 0.  1.
</event>
<event>
 7    1  0.1756449E-015  0.9000775E+02  0.7816164E-02  0.1186339E+00
        -11   -1    0    0    0    0  0.00000000000E+00  0.00000000000E+00  0.45593999997E+02  0.45594000000E+02  0.51100000000E-03 0.  1.
         11   -1    0    0    0    0 -0.00000000000E+00 -0.00000000000E+00 -0.45593999997E+02  0.45594000000E+02  0.51100000000E-03 0. -1.
    9900012    2    1    2    0    0  0.93281086766E+00 -0.59409317300E-01 -0.72063589000E+00  0.90007753556E+02  0.90000015103E+02 0.  0.
        -12    1    1    2    0    0 -0.93281086766E+00  0.59409317300E-01  0.72063589000E+00  0.11802464437E+01  0.00000000000E+00 0.  1.
         11    1    3    3    0    0 -0.14918178909E+02 -0.33645302666E+01 -0.40836017714E+02  0.43605647213E+02  0.51100000000E-03 0. -1.
        -11    1    3    3    0    0  0.65056566755E+01  0.75081005073E+01  0.81984072214E+01  0.12880567660E+02  0.51100000000E-03 0.  1.
        -12    1    3    3    0    0  0.93453331014E+01 -0.42029795579E+01  0.31916974602E+02  0.33521538684E+02  0.00000000000E+00 0.  1.
</event>
<event>
 7    1  0.1756449E-015  0.9000777E+02  0.7816164E-02  0.1186339E+00
        -11   -1    0    0    0    0  0.00000000000E+00  0.00000000000E+00  0.45593999997E+02  0.45594000000E+02  0.51100000000E-03 0. -1.
         11   -1    0    0    0    0 -0.00000000000E+00 -0.00000000000E+00 -0.45593999997E+02  0.45594000000E+02  0.51100000000E-03 0.  1.
    9900012    2    1    2    0    0  0.72093499970E+00 -0.76727816345E+00  0.53337064490E+00  0.90007768117E+02  0.90000029856E+02 0.  0.
        -12    1    1    2    0    0 -0.72093499970E+00  0.76727816345E+00 -0.53337064490E+00  0.11802318835E+01  0.00000000000E+00 0.  1.
         11    1    3    3    0    0 -0.25386056762E+02 -0.12435429205E+02  0.27162009260E+02  0.39202889240E+02  0.51100000000E-03 0. -1.
        -11    1    3    3    0    0 -0.51038472259E+01 -0.53201200692E+01 -0.72028585588E+01  0.10306993050E+02  0.51100000000E-03 0.  1.
        -12    1    3    3    0    0  0.31210838988E+02  0.16988271110E+02 -0.19425780057E+02  0.40497885827E+02  0.00000000000E+00 0.  1.
</event>
<event>
 7    1  0.1756449E-015  0.9000766E+02  0.7816164E-02  0.1186339E+00
        -11   -1    0    0    0    0  0.00000000000E+00  0.00000000000E+00  0.45593999997E+02  0.45594000000E+02  0.51100000000E-03 0.  1.
         11   -1    0    0    0    0 -0.00000000000E+00 -0.00000000000E+00 -0.45593999997E+02  0.45594000000E+02  0.51100000000E-03 0. -1.
    9900012    2    1    2    0    0 -0.17023632720E+00  0.11188255160E+01 -0.33535019001E+00  0.90007656536E+02  0.89999916802E+02 0.  0.
        -12    1    1    2    0    0  0.17023632720E+00 -0.11188255160E+01  0.33535019001E+00  0.11803434637E+01  0.00000000000E+00 0.  1.
         11    1    3    3    0    0 -0.98561435793E+00 -0.49813683003E+01 -0.11005322206E+02  0.12120337575E+02  0.51100000000E-03 0. -1.
        -11    1    3    3    0    0 -0.22028661238E+02  0.31373581035E+02  0.19045575977E+02  0.42805343913E+02  0.51100000000E-03 0.  1.
         12    1    3    3    0    0  0.22844039269E+02 -0.25273387219E+02 -0.83756039608E+01  0.35081975049E+02  0.00000000000E+00 0. -1.
</event>
<event>
 7    1  0.1756449E-015  0.9000767E+02  0.7816164E-02  0.1186339E+00
        -11   -1    0    0    0    0  0.00000000000E+00  0.00000000000E+00  0.45593999997E+02  0.45594000000E+02  0.51100000000E-03 0.  1.
         11   -1    0    0    0    0 -0.00000000000E+00 -0.00000000000E+00 -0.45593999997E+02  0.45594000000E+02  0.51100000000E-03 0. -1.
    9900012    2    1    2    0    0 -0.14549523342E+00  0.35690700639E+00 -0.11156312242E+01  0.90007667630E+02  0.89999928043E+02 0.  0.
        -12    1    1    2    0    0  0.14549523342E+00 -0.35690700639E+00  0.11156312242E+01  0.11803323695E+01  0.00000000000E+00 0.  1.
         11    1    3    3    0    0  0.34834186638E+01  0.41604079180E+01  0.72512098790E+01  0.90566685156E+01  0.51100000000E-03 0. -1.
        -11    1    3    3    0    0  0.31159258123E+02 -0.21070265836E+02  0.85740664643E+01  0.38579399751E+02  0.51100000000E-03 0.  1.
         12    1    3    3    0    0 -0.34788172020E+02  0.17266764924E+02 -0.16940907567E+02  0.42371599364E+02  0.00000000000E+00 0. -1.
</event>
<event>
 7    1  0.2285992E-015  0.9000777E+02  0.7816164E-02  0.1186339E+00
        -11   -1    0    0    0    0  0.00000000000E+00  0.00000000000E+00  0.45593999997E+02  0.45594000000E+02  0.51100000000E-03 0. -1.
         11   -1    0    0    0    0 -0.00000000000E+00 -0.00000000000E+00 -0.45593999997E+02  0.45594000000E+02  0.51100000000E-03 0.  1.
    9900012    2    1    2    0    0  0.54939673732E-01  0.50743917013E-01  0.11778625263E+01  0.90007765513E+02  0.90000027218E+02 0.  0.
        -12    1    1    2    0    0 -0.54939673732E-01 -0.50743917013E-01 -0.11778625263E+01  0.11802344868E+01  0.00000000000E+00 0.  1.
         11    1    3    3    0    0  0.17361258275E+02 -0.12667462886E+02  0.31837392746E+02  0.38412204857E+02  0.51100000000E-03 0. -1.
        -11    1    3    3    0    0  0.51924077681E+01 -0.78597086570E+01 -0.17545782003E+01  0.95819968443E+01  0.51100000000E-03 0.  1.
        -12    1    3    3    0    0 -0.22498726370E+02  0.20577915460E+02 -0.28904952019E+02  0.42013563812E+02  0.00000000000E+00 0.  1.
</event>
<event>
 7    1  0.1756449E-015  0.9000776E+02  0.7816164E-02  0.1186339E+00
        -11   -1    0    0    0    0  0.00000000000E+00  0.00000000000E+00  0.45593999997E+02  0.45594000000E+02  0.51100000000E-03 0.  1.
         11   -1    0    0    0    0 -0.00000000000E+00 -0.00000000000E+00 -0.45593999997E+02  0.45594000000E+02  0.51100000000E-03 0. -1.
    9900012    2    1    2    0    0 -0.11542767710E+00  0.21752411204E+00 -0.11542655437E+01  0.90007758824E+02  0.90000020441E+02 0.  0.
        -12    1    1    2    0    0  0.11542767710E+00 -0.21752411204E+00  0.11542655437E+01  0.11802411759E+01  0.00000000000E+00 0.  1.
         11    1    3    3    0    0  0.12337269406E+02  0.23193643623E+01  0.12500202047E+02  0.17715606648E+02  0.51100000000E-03 0. -1.
        -11    1    3    3    0    0  0.20742294312E+01  0.19282035897E+01  0.27922835612E+02  0.28066085329E+02  0.51100000000E-03 0.  1.
         12    1    3    3    0    0 -0.14526926514E+02 -0.40300438399E+01 -0.41577303202E+02  0.44226066848E+02  0.00000000000E+00 0. -1.
</event>
<event>
 7    1  0.1756449E-015  0.9000783E+02  0.7816164E-02  0.1186339E+00
        -11   -1    0    0    0    0  0.00000000000E+00  0.00000000000E+00  0.45593999997E+02  0.45594000000E+02  0.51100000000E-03 0.  1.
         11   -1    0    0    0    0 -0.00000000000E+00 -0.00000000000E+00 -0.45593999997E+02  0.45594000000E+02  0.51100000000E-03 0. -1.
    9900012    2    1    2    0    0  0.75929310784E-01 -0.11639372908E+01  0.17967249111E+00  0.90007831588E+02  0.90000094165E+02 0.  0.
        -12    1    1    2    0    0 -0.75929310784E-01  0.11639372908E+01 -0.17967249111E+00  0.11801684122E+01  0.00000000000E+00 0.  1.
         11    1    3    3    0    0 -0.32481705711E+02  0.56190271679E+01 -0.25431632685E+02  0.41634152009E+02  0.51100000000E-03 0. -1.
        -11    1    3    3    0    0  0.20273574408E+01 -0.91404700510E+01  0.11000381443E+02  0.14445302458E+02  0.51100000000E-03 0.  1.
        -12    1    3    3    0    0  0.30530277581E+02  0.23575055923E+01  0.14610923734E+02  0.33928377122E+02  0.00000000000E+00 0.  1.
</event>
<event>
 7    1  0.1756449E-015  0.9000775E+02  0.7816164E-02  0.1186339E+00
        -11   -1    0    0    0    0  0.00000000000E+00  0.00000000000E+00  0.45593999997E+02  0.45594000000E+02  0.51100000000E-03 0. -1.
         11   -1    0    0    0    0 -0.00000000000E+00 -0.00000000000E+00 -0.45593999997E+02  0.45594000000E+02  0.51100000000E-03 0.  1.
    9900012    2    1    2    0    0  0.45092692231E-01 -0.47954502746E-02  0.11793801498E+01  0.90007748381E+02  0.90000009859E+02 0.  0.
        -12    1    1    2    0    0 -0.45092692230E-01  0.47954502746E-02 -0.11793801498E+01  0.11802516193E+01  0.00000000000E+00 0.  1.
         11    1    3    3    0    0  0.35423584524E+01  0.15979452342E+02 -0.27446694775E+02  0.31956411796E+02  0.51100000000E-03 0. -1.
        -11    1    3    3    0    0  0.11776633039E+02 -0.16020314328E+02 -0.55281773588E+01  0.20637352109E+02  0.51100000000E-03 0.  1.
        -12    1    3    3    0    0 -0.15273898799E+02  0.36066535400E-01  0.34154252283E+02  0.37413984476E+02  0.00000000000E+00 0.  1.
</event>
<event>
 7    1  0.1756449E-015  0.9000772E+02  0.7816164E-02  0.1186339E+00
        -11   -1    0    0    0    0  0.00000000000E+00  0.00000000000E+00  0.45593999997E+02  0.45594000000E+02  0.51100000000E-03 0. -1.
         11   -1    0    0    0    0 -0.00000000000E+00 -0.00000000000E+00 -0.45593999997E+02  0.45594000000E+02  0.51100000000E-03 0.  1.
    9900012    2    1    2    0    0 -0.80145333372E+00  0.66817767520E-01 -0.86386987054E+00  0.90007719011E+02  0.89999980102E+02 0.  0.
        -12    1    1    2    0    0  0.80145333372E+00 -0.66817767520E-01  0.86386987054E+00  0.11802809892E+01  0.00000000000E+00 0.  1.
         11    1    3    3    0    0  0.60097588211E+01 -0.35073685834E+02  0.67927812224E+01  0.36227372470E+02  0.51100000000E-03 0. -1.
        -11    1    3    3    0    0  0.11016625770E+02  0.63644138480E+01  0.94536984576E+01  0.15850685215E+02  0.51100000000E-03 0.  1.
        -12    1    3    3    0    0 -0.17827837925E+02  0.28776089754E+02 -0.17110349551E+02  0.37929661326E+02  0.00000000000E+00 0.  1.
</event>
<event>
 7    1  0.1756449E-015  0.9000782E+02  0.7816164E-02  0.1186339E+00
        -11   -1    0    0    0    0  0.00000000000E+00  0.00000000000E+00  0.45593999997E+02  0.45594000000E+02  0.51100000000E-03 0.  1.
         11   -1    0    0    0    0 -0.00000000000E+00 -0.00000000000E+00 -0.45593999997E+02  0.45594000000E+02  0.51100000000E-03 0. -1.
    9900012    2    1    2    0    0 -0.58768269319E+00  0.90289700876E+00  0.48190121468E+00  0.90007820888E+02  0.90000083323E+02 0.  0.
        -12    1    1    2    0    0  0.58768269319E+00 -0.90289700876E+00 -0.48190121468E+00  0.11801791123E+01  0.00000000000E+00 0.  1.
         11    1    3    3    0    0 -0.19880040933E+01  0.44394708195E+01  0.86969171337E+01  0.99648095478E+01  0.51100000000E-03 0. -1.
        -11    1    3    3    0    0 -0.34140107008E+02  0.94585256190E+01  0.11664890715E+02  0.37297188756E+02  0.51100000000E-03 0.  1.
         12    1    3    3    0    0  0.35540428409E+02 -0.12995099430E+02 -0.19879906634E+02  0.42745822584E+02  0.00000000000E+00 0. -1.
</event>
<event>
 7    1  0.1930222E-015  0.9000780E+02  0.7816164E-02  0.1186339E+00
        -11   -1    0    0    0    0  0.00000000000E+00  0.00000000000E+00  0.45593999997E+02  0.45594000000E+02  0.51100000000E-03 0. -1.
         11   -1    0    0    0    0 -0.00000000000E+00 -0.00000000000E+00 -0.45593999997E+02  0.45594000000E+02  0.51100000000E-03 0.  1.
    9900012    2    1    2    0    0  0.43694685111E+00 -0.43276655664E+00  0.10073022543E+01  0.90007802019E+02  0.90000064205E+02 0.  0.
        -12    1    1    2    0    0 -0.43694685111E+00  0.43276655664E+00 -0.10073022543E+01  0.11801979812E+01  0.00000000000E+00 0.  1.
         11    1    3    3    0    0  0.35387660009E+01 -0.38724149911E+02  0.93683349052E+01  0.39998104334E+02  0.51100000000E-03 0. -1.
        -11    1    3    3    0    0  0.77817714808E+01 -0.53325551293E+00 -0.55842500676E+01  0.95929233240E+01  0.51100000000E-03 0.  1.
        -12    1    3    3    0    0 -0.10883590631E+02  0.38824638868E+02 -0.27767825833E+01  0.40416774361E+02  0.00000000000E+00 0.  1.
</event>
<event>
 7    1  0.1756449E-015  0.9000799E+02  0.7816164E-02  0.1186339E+00
        -11   -1    0    0    0    0  0.00000000000E+00  0.00000000000E+00  0.45593999997E+02  0.45594000000E+02  0.51100000000E-03 0. -1.
         11   -1    0    0    0    0 -0.00000000000E+00 -0.00000000000E+00 -0.45593999997E+02  0.45594000000E+02  0.51100000000E-03 0.  1.
    9900012    2    1    2    0    0  0.10311670925E+01  0.57133068275E+00 -0.52057765737E-01  0.90007985452E+02  0.90000250060E+02 0.  0.
        -12    1    1    2    0    0 -0.10311670925E+01 -0.57133068275E+00  0.52057765737E-01  0.11800145477E+01  0.00000000000E+00 0.  1.
         11    1    3    3    0    0  0.29600692481E+01 -0.22038458530E+01 -0.81400830255E+01  0.89375555059E+01  0.51100000000E-03 0. -1.
        -11    1    3    3    0    0 -0.17218984135E+02  0.33784844600E+02 -0.13567638382E+02  0.40273936370E+02  0.51100000000E-03 0.  1.
         12    1    3    3    0    0  0.15290081979E+02 -0.31009668064E+02  0.21655663641E+02  0.40796493576E+02  0.00000000000E+00 0. -1.
</event>
<event>
 7    1  0.1756449E-015  0.9000774E+02  0.7816164E-02  0.1186339E+00
        -11   -1    0    0    0    0  0.00000000000E+00  0.00000000000E+00  0.45593999997E+02  0.45594000000E+02  0.51100000000E-03 0.  1.
         11   -1    0    0    0    0 -0.00000000000E+00 -0.00000000000E+00 -0.45593999997E+02  0.45594000000E+02  0.51100000000E-03 0. -1.
    9900012    2    1    2    0    0  0.30195839789E+00 -0.87776199074E+00 -0.72895447210E+00  0.90007737483E+02  0.89999998818E+02 0.  0.
        -12    1    1    2    0    0 -0.30195839789E+00  0.87776199074E+00  0.72895447210E+00  0.11802625169E+01  0.00000000000E+00 0.  1.
         11    1    3    3    0    0  0.54483550918E+01 -0.37376517903E+02 -0.14987905586E+02  0.40636510405E+02  0.51100000000E-03 0. -1.
        -11    1    3    3    0    0 -0.17500505082E+01  0.23000049209E+01 -0.79457183509E+01  0.84550067883E+01  0.51100000000E-03 0.  1.
        -12    1    3    3    0    0 -0.33963461857E+01  0.34198750992E+02  0.22204669464E+02  0.40916220290E+02  0.00000000000E+00 0.  1.
</event>
<event>
 7    1  0.1756449E-015  0.9000742E+02  0.7816164E-02  0.1186340E+00
        -11   -1    0    0    0    0  0.00000000000E+00  0.00000000000E+00  0.45593999997E+02  0.45594000000E+02  0.51100000000E-03 0.  1.
         11   -1    0    0    0    0 -0.00000000000E+00 -0.00000000000E+00 -0.45593999997E+02  0.45594000000E+02  0.51100000000E-03 0. -1.
    9900012    2    1    2    0    0  0.17270928225E+00 -0.94155667991E+00  0.69094204286E+00  0.90007424554E+02  0.89999681757E+02 0.  0.
        -12    1    1    2    0    0 -0.17270928225E+00  0.94155667991E+00 -0.69094204286E+00  0.11805754462E+01  0.00000000000E+00 0.  1.
         11    1    3    3    0    0 -0.94753620575E+01  0.26229349192E+02  0.23473295736E+02  0.36452117335E+02  0.51100000000E-03 0. -1.
        -11    1    3    3    0    0  0.20779530663E+01 -0.13840912487E+01  0.10491013793E+02  0.10784014475E+02  0.51100000000E-03 0.  1.
         12    1    3    3    0    0  0.75701182735E+01 -0.25786814624E+02 -0.33273367487E+02  0.42771292744E+02  0.00000000000E+00 0. -1.
</event>
<event>
 7    1  0.1756449E-015  0.9000770E+02  0.7816164E-02  0.1186339E+00
        -11   -1    0    0    0    0  0.00000000000E+00  0.00000000000E+00  0.45593999997E+02  0.45594000000E+02  0.51100000000E-03 0.  1.
         11   -1    0    0    0    0 -0.00000000000E+00 -0.00000000000E+00 -0.45593999997E+02  0.45594000000E+02  0.51100000000E-03 0. -1.
    9900012    2    1    2    0    0 -0.10461727375E+01  0.28277154915E+00 -0.46761013256E+00  0.90007704960E+02  0.89999965865E+02 0.  0.
        -12    1    1    2    0    0  0.10461727375E+01 -0.28277154915E+00  0.46761013256E+00  0.11802950401E+01  0.00000000000E+00 0.  1.
         11    1    3    3    0    0  0.70365424297E+01  0.19194519013E+01  0.53131146157E+01  0.90236584680E+01  0.51100000000E-03 0. -1.
        -11    1    3    3    0    0  0.32068561761E+02 -0.18613977704E+02 -0.47161837319E+01  0.37378004343E+02  0.51100000000E-03 0.  1.
         12    1    3    3    0    0 -0.40151276928E+02  0.16977297352E+02 -0.10645410164E+01  0.43606042149E+02  0.00000000000E+00 0. -1.
</event>
<event>
 7    1  0.1756449E-015  0.9000781E+02  0.7816164E-02  0.1186339E+00
        -11   -1    0    0    0    0  0.00000000000E+00  0.00000000000E+00  0.45593999997E+02  0.45594000000E+02  0.51100000000E-03 0.  1.
         11   -1    0    0    0    0 -0.00000000000E+00 -0.00000000000E+00 -0.45593999997E+02  0.45594000000E+02  0.51100000000E-03 0. -1.
    9900012    2    1    2    0    0 -0.19892179544E+00  0.73288830584E+00 -0.90341425829E+00  0.90007808290E+02  0.90000070560E+02 0.  0.
        -12    1    1    2    0    0  0.19892179544E+00 -0.73288830584E+00  0.90341425829E+00  0.11801917097E+01  0.00000000000E+00 0.  1.
         11    1    3    3    0    0  0.12707340521E+02 -0.36039489076E+02 -0.42120590753E+01  0.38445581253E+02  0.51100000000E-03 0. -1.
        -11    1    3    3    0    0 -0.96457536396E+01 -0.25115166244E+01  0.66808898090E+01  0.11999273642E+02  0.51100000000E-03 0.  1.
        -12    1    3    3    0    0 -0.32605086769E+01  0.39283894006E+02 -0.33722449920E+01  0.39562953396E+02  0.00000000000E+00 0.  1.
</event>
<event>
 7    1  0.1756449E-015  0.9000773E+02  0.7816164E-02  0.1186339E+00
        -11   -1    0    0    0    0  0.00000000000E+00  0.00000000000E+00  0.45593999997E+02  0.45594000000E+02  0.51100000000E-03 0.  1.
         11   -1    0    0    0    0 -0.00000000000E+00 -0.00000000000E+00 -0.45593999997E+02  0.45594000000E+02  0.51100000000E-03 0. -1.
    9900012    2    1    2    0    0  0.87439587800E+00 -0.41654040714E+00 -0.67450291548E+00  0.90007733824E+02  0.89999995111E+02 0.  0.
        -12    1    1    2    0    0 -0.87439587800E+00  0.41654040714E+00  0.67450291548E+00  0.11802661756E+01  0.00000000000E+00 0.  1.
         11    1    3    3    0    0  0.93915617537E+01 -0.13987217058E+02 -0.35987677235E+02  0.39736086700E+02  0.51100000000E-03 0. -1.
        -11    1    3    3    0    0  0.16376729841E+01 -0.93300353935E+01  0.42954605337E+01  0.10401082381E+02  0.51100000000E-03 0.  1.
        -12    1    3    3    0    0 -0.10154838860E+02  0.22900712045E+02  0.31017713786E+02  0.39870564743E+02  0.00000000000E+00 0.  1.
</event>
<event>
 7    1  0.1756449E-015  0.9000766E+02  0.7816164E-02  0.1186339E+00
        -11   -1    0    0    0    0  0.00000000000E+00  0.00000000000E+00  0.45593999997E+02  0.45594000000E+02  0.51100000000E-03 0.  1.
         11   -1    0    0    0    0 -0.00000000000E+00 -0.00000000000E+00 -0.45593999997E+02  0.45594000000E+02  0.51100000000E-03 0. -1.
    9900012    2    1    2    0    0  0.16556997145E+00  0.95971855949E+00  0.66687559721E+00  0.90007662679E+02  0.89999923026E+02 0.  0.
        -12    1    1    2    0    0 -0.16556997145E+00 -0.95971855949E+00 -0.66687559721E+00  0.11803373209E+01  0.00000000000E+00 0.  1.
         11    1    3    3    0    0 -0.12387601942E+01 -0.76083233479E+01  0.47521916309E+01  0.90556301019E+01  0.51100000000E-03 0. -1.
        -11    1    3    3    0    0  0.28275219289E+02  0.12926279371E+02  0.25891691830E+02  0.40459318214E+02  0.51100000000E-03 0.  1.
         12    1    3    3    0    0 -0.26870889123E+02 -0.43582374636E+01 -0.29977007864E+02  0.40492714364E+02  0.00000000000E+00 0. -1.
</event>
<event>
 7    1  0.1756449E-015  0.9000770E+02  0.7816164E-02  0.1186339E+00
        -11   -1    0    0    0    0  0.00000000000E+00  0.00000000000E+00  0.45593999997E+02  0.45594000000E+02  0.51100000000E-03 0. -1.
         11   -1    0    0    0    0 -0.00000000000E+00 -0.00000000000E+00 -0.45593999997E+02  0.45594000000E+02  0.51100000000E-03 0.  1.
    9900012    2    1    2    0    0 -0.10584229172E+01 -0.48050920562E+00 -0.20485221480E+00  0.90007698090E+02  0.89999958905E+02 0.  0.
        -12    1    1    2    0    0  0.10584229172E+01  0.48050920562E+00  0.20485221480E+00  0.11803019098E+01  0.00000000000E+00 0.  1.
         11    1    3    3    0    0 -0.11836692272E+02 -0.22031582638E+01 -0.84646510882E+01  0.14717727698E+02  0.51100000000E-03 0. -1.
        -11    1    3    3    0    0 -0.80979395517E+01  0.18713306915E+02 -0.25749054669E+02  0.32844760576E+02  0.51100000000E-03 0.  1.
         12    1    3    3    0    0  0.18876208906E+02 -0.16990657857E+02  0.34008853543E+02  0.42445209817E+02  0.00000000000E+00 0. -1.
</event>
<event>
 7    1  0.1756449E-015  0.9000770E+02  0.7816164E-02  0.1186339E+00
        -11   -1    0    0    0    0  0.00000000000E+00  0.00000000000E+00  0.45593999997E+02  0.45594000000E+02  0.51100000000E-03 0. -1.
         11   -1    0    0    0    0 -0.00000000000E+00 -0.00000000000E+00 -0.45593999997E+02  0.45594000000E+02  0.51100000000E-03 0.  1.
    9900012    2    1    2    0    0  0.10754091860E+01  0.22360455336E+00  0.43199038416E+00  0.90007695122E+02  0.89999955897E+02 0.  0.
        -12    1    1    2    0    0 -0.10754091860E+01 -0.22360455336E+00 -0.43199038416E+00  0.11803048783E+01  0.00000000000E+00 0.  1.
         11    1    3    3    0    0 -0.27999349549E+00  0.10483189945E+02 -0.62133326680E+00  0.10505318799E+02  0.51100000000E-03 0. -1.
        -11    1    3    3    0    0  0.38568211235E+02 -0.15064704128E+02 -0.41842768624E+01  0.41616828344E+02  0.51100000000E-03 0.  1.
         12    1    3    3    0    0 -0.37212808553E+02  0.48051187362E+01  0.52376005134E+01  0.37885547979E+02  0.00000000000E+00 0. -1.
</event>
<event>
 7    1  0.1756449E-015  0.9000836E+02  0.7816164E-02  0.1186338E+00
        -11   -1    0    0    0    0  0.00000000000E+00  0.00000000000E+00  0.45593999997E+02  0.45594000000E+02  0.51100000000E-03 0.  1.
         11   -1    0    0    0    0 -0.00000000000E+00 -0.00000000000E+00 -0.45593999997E+02  0.45594000000E+02  0.51100000000E-03 0. -1.
    9900012    2    1    2    0    0  0.17026824053E+00  0.83071292588E+00  0.82005204997E+00  0.90008355730E+02  0.90000625224E+02 0.  0.
        -12    1    1    2    0    0 -0.17026824053E+00 -0.83071292588E+00 -0.82005204997E+00  0.11796442699E+01  0.00000000000E+00 0.  1.
         11    1    3    3    0    0 -0.82300099456E+01  0.28378752263E+02 -0.19122153647E+02  0.35195786737E+02  0.51100000000E-03 0. -1.
        -11    1    3    3    0    0 -0.34493522602E+01  0.72926513919E+00 -0.10820438754E+02  0.11380323095E+02  0.51100000000E-03 0.  1.
        -12    1    3    3    0    0  0.11849630446E+02 -0.28277304476E+02  0.30762644450E+02  0.43432245898E+02  0.00000000000E+00 0.  1.
</event>
<event>
 7    1  0.1756449E-015  0.9000767E+02  0.7816164E-02  0.1186339E+00
        -11   -1    0    0    0    0  0.00000000000E+00  0.00000000000E+00  0.45593999997E+02  0.45594000000E+02  0.51100000000E-03 0.  1.
         11   -1    0    0    0    0 -0.00000000000E+00 -0.00000000000E+00 -0.45593999997E+02  0.45594000000E+02  0.51100000000E-03 0. -1.
    9900012    2    1    2    0    0  0.68284092867E+00  0.85288521699E+00  0.44665714014E+00  0.90007666349E+02  0.89999926745E+02 0.  0.
        -12    1    1    2    0    0 -0.68284092867E+00 -0.85288521699E+00 -0.44665714014E+00  0.11803336512E+01  0.00000000000E+00 0.  1.
         11    1    3    3    0    0 -0.66273463624E+01 -0.44812647487E+01 -0.40710924720E+01  0.89764830380E+01  0.51100000000E-03 0. -1.
        -11    1    3    3    0    0  0.18035944395E+02 -0.22043543977E+02  0.30544398978E+02  0.41763302437E+02  0.51100000000E-03 0.  1.
         12    1    3    3    0    0 -0.10725757104E+02  0.27377693942E+02 -0.26026649366E+02  0.39267880873E+02  0.00000000000E+00 0. -1.
</event>
<event>
 7    1  0.1756449E-015  0.9000778E+02  0.7816164E-02  0.1186339E+00
        -11   -1    0    0    0    0  0.00000000000E+00  0.00000000000E+00  0.45593999997E+02  0.45594000000E+02  0.51100000000E-03 0.  1.
         11   -1    0    0    0    0 -0.00000000000E+00 -0.00000000000E+00 -0.45593999997E+02  0.45594000000E+02  0.51100000000E-03 0. -1.
    9900012    2    1    2    0    0 -0.74623127453E-01  0.11041531468E+01 -0.41010717509E+00  0.90007783631E+02  0.90000045575E+02 0.  0.
        -12    1    1    2    0    0  0.74623127453E-01 -0.11041531468E+01  0.41010717509E+00  0.11802163690E+01  0.00000000000E+00 0.  1.
         11    1    3    3    0    0 -0.47768839090E+01  0.82087994724E+01 -0.12678241933E+02  0.15841111938E+02  0.51100000000E-03 0. -1.
        -11    1    3    3    0    0  0.26860531407E+02  0.20484379945E+02 -0.60548893642E+01  0.34318503095E+02  0.51100000000E-03 0.  1.
         12    1    3    3    0    0 -0.22158270625E+02 -0.27589026270E+02  0.18323024122E+02  0.39848168598E+02  0.00000000000E+00 0. -1.
</event>
<event>
 7    1  0.1756449E-015  0.9000779E+02  0.7816164E-02  0.1186339E+00
        -11   -1    0    0    0    0  0.00000000000E+00  0.00000000000E+00  0.45593999997E+02  0.45594000000E+02  0.51100000000E-03 0. -1.
         11   -1    0    0    0    0 -0.00000000000E+00 -0.00000000000E+00 -0.45593999997E+02  0.45594000000E+02  0.51100000000E-03 0.  1.
    9900012    2    1    2    0    0 -0.12236983168E+00  0.11506568958E+01 -0.23220330560E+00  0.90007786442E+02  0.90000048423E+02 0.  0.
        -12    1    1    2    0    0  0.12236983168E+00 -0.11506568958E+01  0.23220330560E+00  0.11802135581E+01  0.00000000000E+00 0.  1.
         11    1    3    3    0    0  0.67905330991E+01 -0.14514483710E+02  0.66639566959E+01  0.17354823429E+02  0.51100000000E-03 0. -1.
        -11    1    3    3    0    0 -0.43239742621E+01 -0.18625912279E+02 -0.26798121954E+02  0.32920520989E+02  0.51100000000E-03 0.  1.
        -12    1    3    3    0    0 -0.25889286687E+01  0.34291052885E+02  0.19901961953E+02  0.39732442024E+02  0.00000000000E+00 0.  1.
</event>
<event>
 7    1  0.1756449E-015  0.9000779E+02  0.7816164E-02  0.1186339E+00
        -11   -1    0    0    0    0  0.00000000000E+00  0.00000000000E+00  0.45593999997E+02  0.45594000000E+02  0.51100000000E-03 0.  1.
         11   -1    0    0    0    0 -0.00000000000E+00 -0.00000000000E+00 -0.45593999997E+02  0.45594000000E+02  0.51100000000E-03 0. -1.
    9900012    2    1    2    0    0  0.81855222434E+00  0.53077723535E+00 -0.66418430802E+00  0.90007791115E+02  0.90000053158E+02 0.  0.
        -12    1    1    2    0    0 -0.81855222434E+00 -0.53077723535E+00  0.66418430802E+00  0.11802088851E+01  0.00000000000E+00 0.  1.
         11    1    3    3    0    0  0.11973841457E+02  0.24447410442E+01  0.85757301348E+01  0.14929594288E+02  0.51100000000E-03 0. -1.
        -11    1    3    3    0    0  0.31386343660E+02 -0.99720968075E-03  0.51502565330E+00  0.31390568983E+02  0.51100000000E-03 0.  1.
         12    1    3    3    0    0 -0.42541632893E+02 -0.19129665991E+01 -0.97549400962E+01  0.43687627844E+02  0.00000000000E+00 0. -1.
</event>
<event>
 7    1  0.1756449E-015  0.9000772E+02  0.7816164E-02  0.1186339E+00
        -11   -1    0    0    0    0  0.00000000000E+00  0.00000000000E+00  0.45593999997E+02  0.45594000000E+02  0.51100000000E-03 0. -1.
         11   -1    0    0    0    0 -0.00000000000E+00 -0.00000000000E+00 -0.45593999997E+02  0.45594000000E+02  0.51100000000E-03 0.  1.
    9900012    2    1    2    0    0 -0.11158800623E+00  0.11749892041E+01  0.53639334578E-03  0.90007723846E+02  0.89999985000E+02 0.  0.
        -12    1    1    2    0    0  0.11158800623E+00 -0.11749892041E+01 -0.53639334577E-03  0.11802761543E+01  0.00000000000E+00 0.  1.
         11    1    3    3    0    0 -0.38034098318E+02  0.47902164975E+01 -0.10487663377E+02  0.39743299968E+02  0.51100000000E-03 0. -1.
        -11    1    3    3    0    0 -0.15467689198E+01 -0.57456944135E+01  0.88999118374E+01  0.10705789525E+02  0.51100000000E-03 0.  1.
        -12    1    3    3    0    0  0.39469279232E+02  0.21304671201E+01  0.15882879334E+01  0.39558634352E+02  0.00000000000E+00 0.  1.
</event>
<event>
 7    1  0.1756449E-015  0.9000774E+02  0.7816164E-02  0.1186339E+00
        -11   -1    0    0    0    0  0.00000000000E+00  0.00000000000E+00  0.45593999997E+02  0.45594000000E+02  0.51100000000E-03 0.  1.
         11   -1    0    0    0    0 -0.00000000000E+00 -0.00000000000E+00 -0.45593999997E+02  0.45594000000E+02  0.51100000000E-03 0. -1.
    9900012    2    1    2    0    0 -0.81381963972E+00 -0.62818769815E+00 -0.57974038082E+00  0.90007736852E+02  0.89999998178E+02 0.  0.
        -12    1    1    2    0    0  0.81381963972E+00  0.62818769815E+00  0.57974038082E+00  0.11802631483E+01  0.00000000000E+00 0.  1.
         11    1    3    3    0    0 -0.27683498774E+01  0.19594888703E+00  0.87753894388E+01  0.92037827589E+01  0.51100000000E-03 0. -1.
        -11    1    3    3    0    0 -0.35639473608E+02  0.14428176700E+02  0.25192976831E+01  0.38531691151E+02  0.51100000000E-03 0.  1.
         12    1    3    3    0    0  0.37594003845E+02 -0.15252313285E+02 -0.11874427503E+02  0.42272262941E+02  0.00000000000E+00 0. -1.
</event>
<event>
 7    1  0.1756449E-015  0.9000774E+02  0.7816164E-02  0.1186339E+00
        -11   -1    0    0    0    0  0.00000000000E+00  0.00000000000E+00  0.45593999997E+02  0.45594000000E+02  0.51100000000E-03 0.  1.
         11   -1    0    0    0    0 -0.00000000000E+00 -0.00000000000E+00 -0.45593999997E+02  0.45594000000E+02  0.51100000000E-03 0. -1.
    9900012    2    1    2    0    0  0.64460658898E+00 -0.93349276111E+00 -0.32572162786E+00  0.90007736907E+02  0.89999998234E+02 0.  0.
        -12    1    1    2    0    0 -0.64460658898E+00  0.93349276111E+00  0.32572162786E+00  0.11802630929E+01  0.00000000000E+00 0.  1.
         11    1    3    3    0    0 -0.40932843441E+01 -0.90589669594E+01  0.16825609610E+01  0.10082205649E+02  0.51100000000E-03 0. -1.
        -11    1    3    3    0    0 -0.73169955305E+01  0.30182790254E+02  0.27274840595E+02  0.41333475306E+02  0.51100000000E-03 0.  1.
         12    1    3    3    0    0  0.12054886464E+02 -0.22057316056E+02 -0.29283123184E+02  0.38592055952E+02  0.00000000000E+00 0. -1.
</event>
<event>
 7    1  0.1756449E-015  0.9000772E+02  0.7816164E-02  0.1186339E+00
        -11   -1    0    0    0    0  0.00000000000E+00  0.00000000000E+00  0.45593999997E+02  0.45594000000E+02  0.51100000000E-03 0.  1.
         11   -1    0    0    0    0 -0.00000000000E+00 -0.00000000000E+00 -0.45593999997E+02  0.45594000000E+02  0.51100000000E-03 0. -1.
    9900012    2    1    2    0    0 -0.55996553723E+00  0.53200841096E+00 -0.89244449107E+00  0.90007723964E+02  0.89999985120E+02 0.  0.
        -12    1    1    2    0    0  0.55996553723E+00 -0.53200841096E+00  0.89244449107E+00  0.11802760363E+01  0.00000000000E+00 0.  1.
         11    1    3    3    0    0  0.88635839882E+01 -0.20912671689E+01 -0.20163500803E+01  0.93274963091E+01  0.51100000000E-03 0. -1.
        -11    1    3    3    0    0  0.20262290075E+02 -0.16583200683E+02 -0.25400754671E+02  0.36479600904E+02  0.51100000000E-03 0.  1.
         12    1    3    3    0    0 -0.29685839601E+02  0.19206476263E+02  0.26524660260E+02  0.44200626751E+02  0.00000000000E+00 0. -1.
</event>
<event>
 7    1  0.1756449E-015  0.9000780E+02  0.7816164E-02  0.1186339E+00
        -11   -1    0    0    0    0  0.00000000000E+00  0.00000000000E+00  0.45593999997E+02  0.45594000000E+02  0.51100000000E-03 0. -1.
         11   -1    0    0    0    0 -0.00000000000E+00 -0.00000000000E+00 -0.45593999997E+02  0.45594000000E+02  0.51100000000E-03 0.  1.
    9900012    2    1    2    0    0  0.23988685675E+00 -0.97213031371E+00  0.62473561497E+00  0.90007797628E+02  0.90000059756E+02 0.  0.
        -12    1    1    2    0    0 -0.23988685675E+00  0.97213031371E+00 -0.62473561497E+00  0.11802023723E+01  0.00000000000E+00 0.  1.
         11    1    3    3    0    0 -0.84395471724E+01  0.29324753913E+02  0.23636078221E+02  0.38598333415E+02  0.51100000000E-03 0. -1.
        -11    1    3    3    0    0 -0.10613331584E+02 -0.81842683168E+01 -0.16664208390E+02  0.21385062468E+02  0.51100000000E-03 0.  1.
        -12    1    3    3    0    0  0.19292765614E+02 -0.22112615910E+02 -0.63471342151E+01  0.30024401745E+02  0.00000000000E+00 0.  1.
</event>
<event>
 7    1  0.1756449E-015  0.9000774E+02  0.7816164E-02  0.1186339E+00
        -11   -1    0    0    0    0  0.00000000000E+00  0.00000000000E+00  0.45593999997E+02  0.45594000000E+02  0.51100000000E-03 0. -1.
         11   -1    0    0    0    0 -0.00000000000E+00 -0.00000000000E+00 -0.45593999997E+02  0.45594000000E+02  0.51100000000E-03 0.  1.
    9900012    2    1    2    0    0  0.55802013034E+00 -0.10361223838E+01 -0.89839961013E-01  0.90007742707E+02  0.90000004110E+02 0.  0.
        -12    1    1    2    0    0 -0.55802013034E+00  0.10361223838E+01  0.89839961013E-01  0.11802572934E+01  0.00000000000E+00 0.  1.
         11    1    3    3    0    0  0.14693595387E+02  0.17279113773E+02  0.33365166216E+02  0.40344811749E+02  0.51100000000E-03 0. -1.
        -11    1    3    3    0    0 -0.67429046767E+00 -0.96030637188E+01  0.27955727918E+01  0.10024406612E+02  0.51100000000E-03 0.  1.
        -12    1    3    3    0    0 -0.13461284789E+02 -0.87121724384E+01 -0.36250578968E+02  0.39638524346E+02  0.00000000000E+00 0.  1.
</event>
<event>
 7    1  0.1756449E-015  0.9000772E+02  0.7816164E-02  0.1186339E+00
        -11   -1    0    0    0    0  0.00000000000E+00  0.00000000000E+00  0.45593999997E+02  0.45594000000E+02  0.51100000000E-03 0.  1.
         11   -1    0    0    0    0 -0.00000000000E+00 -0.00000000000E+00 -0.45593999997E+02  0.45594000000E+02  0.51100000000E-03 0. -1.
    9900012    2    1    2    0    0  0.10070749048E+01 -0.16210815480E+00 -0.59377834702E+00  0.90007723912E+02  0.89999985068E+02 0.  0.
        -12    1    1    2    0    0 -0.10070749048E+01  0.16210815480E+00  0.59377834702E+00  0.11802760877E+01  0.00000000000E+00 0.  1.
         11    1    3    3    0    0  0.25008086604E+01  0.88164274742E+01  0.53975136915E+01  0.10635628410E+02  0.51100000000E-03 0. -1.
        -11    1    3    3    0    0 -0.11245196163E+02 -0.23354160848E+02  0.29855838088E+02  0.39537859500E+02  0.51100000000E-03 0.  1.
         12    1    3    3    0    0  0.97514624076E+01  0.14375625219E+02 -0.35847130127E+02  0.39834236002E+02  0.00000000000E+00 0. -1.
</event>
<event>
 7    1  0.1756449E-015  0.9000773E+02  0.7816164E-02  0.1186339E+00
        -11   -1    0    0    0    0  0.00000000000E+00  0.00000000000E+00  0.45593999997E+02  0.45594000000E+02  0.51100000000E-03 0.  1.
         11   -1    0    0    0    0 -0.00000000000E+00 -0.00000000000E+00 -0.45593999997E+02  0.45594000000E+02  0.51100000000E-03 0. -1.
    9900012    2    1    2    0    0  0.83887822692E-01 -0.98431156712E+00 -0.64585340945E+00  0.90007731787E+02  0.89999993047E+02 0.  0.
        -12    1    1    2    0    0 -0.83887822692E-01  0.98431156712E+00  0.64585340945E+00  0.11802682129E+01  0.00000000000E+00 0.  1.
         11    1    3    3    0    0 -0.14441567126E+02 -0.29666897195E+02  0.23675064346E+01  0.33080035327E+02  0.51100000000E-03 0. -1.
        -11    1    3    3    0    0 -0.16813460796E+01 -0.92725047422E+01 -0.11423693481E+02  0.14809018936E+02  0.51100000000E-03 0.  1.
        -12    1    3    3    0    0  0.16206801029E+02  0.37955090370E+02  0.84103336367E+01  0.42118677525E+02  0.00000000000E+00 0.  1.
</event>
<event>
 7    1  0.1756449E-015  0.9000897E+02  0.7816164E-02  0.1186337E+00
        -11   -1    0    0    0    0  0.00000000000E+00  0.00000000000E+00  0.45593999997E+02  0.45594000000E+02  0.51100000000E-03 0.  1.
         11   -1    0    0    0    0 -0.00000000000E+00 -0.00000000000E+00 -0.45593999997E+02  0.45594000000E+02  0.51100000000E-03 0. -1.
    9900012    2    1    2    0    0 -0.88415379339E+00 -0.52591072785E+00  0.57601661289E+00  0.90008972790E+02  0.90001250422E+02 0.  0.
        -12    1    1    2    0    0  0.88415379339E+00  0.52591072785E+00 -0.57601661289E+00  0.11790272102E+01  0.00000000000E+00 0.  1.
         11    1    3    3    0    0 -0.25096739205E+02  0.92907464928E+01  0.32458794274E+02  0.42068249489E+02  0.51100000000E-03 0. -1.
        -11    1    3    3    0    0 -0.68130933279E-01 -0.83166361786E+01 -0.63674256826E+00  0.83412541329E+01  0.51100000000E-03 0.  1.
        -12    1    3    3    0    0  0.24280716345E+02 -0.15000210420E+01 -0.31246035093E+02  0.39599469168E+02  0.00000000000E+00 0.  1.
</event>
<event>
 7    1  0.1756449E-015  0.9000772E+02  0.7816164E-02  0.1186339E+00
        -11   -1    0    0    0    0  0.00000000000E+00  0.00000000000E+00  0.45593999997E+02  0.45594000000E+02  0.51100000000E-03 0. -1.
         11   -1    0    0    0    0 -0.00000000000E+00 -0.00000000000E+00 -0.45593999997E+02  0.45594000000E+02  0.51100000000E-03 0.  1.
    9900012    2    1    2    0    0 -0.13232730413E+00 -0.10931994235E+01  0.42480937263E+00  0.90007721008E+02  0.89999982126E+02 0.  0.
        -12    1    1    2    0    0  0.13232730413E+00  0.10931994235E+01 -0.42480937263E+00  0.11802789916E+01  0.00000000000E+00 0.  1.
         11    1    3    3    0    0 -0.28053653986E+02 -0.21948769757E+02 -0.16215419640E+02  0.39136885801E+02  0.51100000000E-03 0. -1.
        -11    1    3    3    0    0 -0.23376894664E+01  0.40555971295E+01 -0.73820094299E+01  0.87410939591E+01  0.51100000000E-03 0.  1.
        -12    1    3    3    0    0  0.30259016148E+02  0.16799973204E+02  0.24022238443E+02  0.42129741249E+02  0.00000000000E+00 0.  1.
</event>
<event>
 7    1  0.1756449E-015  0.9000736E+02  0.7816164E-02  0.1186340E+00
        -11   -1    0    0    0    0  0.00000000000E+00  0.00000000000E+00  0.45593999997E+02  0.45594000000E+02  0.51100000000E-03 0.  1.
         11   -1    0    0    0    0 -0.00000000000E+00 -0.00000000000E+00 -0.45593999997E+02  0.45594000000E+02  0.51100000000E-03 0. -1.
    9900012    2    1    2    0    0  0.20054010226E+00 -0.79908527271E+00 -0.84567334599E+00  0.90007357373E+02  0.89999613689E+02 0.  0.
        -12    1    1    2    0    0 -0.20054010226E+00  0.79908527271E+00  0.84567334599E+00  0.11806426275E+01  0.00000000000E+00 0.  1.
         11    1    3    3    0    0 -0.59352963430E+01 -0.32029633190E+02 -0.17453186224E+02  0.36955904192E+02  0.51100000000E-03 0. -1.
        -11    1    3    3    0    0 -0.84082954666E+01 -0.43706371679E+01 -0.29256133762E+01  0.99177172674E+01  0.51100000000E-03 0.  1.
        -12    1    3    3    0    0  0.14544131912E+02  0.35601185086E+02  0.19533126254E+02  0.43133735913E+02  0.00000000000E+00 0.  1.
</event>
<event>
 7    1  0.1756449E-015  0.9000775E+02  0.7816164E-02  0.1186339E+00
        -11   -1    0    0    0    0  0.00000000000E+00  0.00000000000E+00  0.45593999997E+02  0.45594000000E+02  0.51100000000E-03 0. -1.
         11   -1    0    0    0    0 -0.00000000000E+00 -0.00000000000E+00 -0.45593999997E+02  0.45594000000E+02  0.51100000000E-03 0.  1.
    9900012    2    1    2    0    0  0.10723253644E+01 -0.39594823831E+00 -0.29380584938E+00  0.90007754868E+02  0.90000016432E+02 0.  0.
        -12    1    1    2    0    0 -0.10723253644E+01  0.39594823831E+00  0.29380584938E+00  0.11802451320E+01  0.00000000000E+00 0.  1.
         11    1    3    3    0    0  0.71900086413E+00 -0.40530793548E+01  0.33958527759E+02  0.34207104851E+02  0.51100000000E-03 0. -1.
        -11    1    3    3    0    0  0.63845588982E+01  0.98879470396E+01  0.69680370455E+01  0.13677998008E+02  0.51100000000E-03 0.  1.
        -12    1    3    3    0    0 -0.60312343980E+01 -0.62308159232E+01 -0.41220370653E+02  0.42122652009E+02  0.00000000000E+00 0.  1.
</event>
<event>
 7    1  0.1756449E-015  0.9000771E+02  0.7816164E-02  0.1186339E+00
        -11   -1    0    0    0    0  0.00000000000E+00  0.00000000000E+00  0.45593999997E+02  0.45594000000E+02  0.51100000000E-03 0.  1.
         11   -1    0    0    0    0 -0.00000000000E+00 -0.00000000000E+00 -0.45593999997E+02  0.45594000000E+02  0.51100000000E-03 0. -1.
    9900012    2    1    2    0    0 -0.42615954977E+00  0.98383810324E+00 -0.49349135762E+00  0.90007710588E+02  0.89999971568E+02 0.  0.
        -12    1    1    2    0    0  0.42615954977E+00 -0.98383810324E+00  0.49349135762E+00  0.11802894117E+01  0.00000000000E+00 0.  1.
         11    1    3    3    0    0 -0.17891143812E+02  0.16189488009E+02 -0.29411522005E+02  0.38042478571E+02  0.51100000000E-03 0. -1.
        -11    1    3    3    0    0 -0.86057305242E+01 -0.63008345758E+01 -0.16743485200E+01  0.10796414101E+02  0.51100000000E-03 0.  1.
        -12    1    3    3    0    0  0.26070714787E+02 -0.89048153296E+01  0.30592379167E+02  0.41168817917E+02  0.00000000000E+00 0.  1.
</event>
<event>
 7    1  0.1756449E-015  0.9000783E+02  0.7816164E-02  0.1186339E+00
        -11   -1    0    0    0    0  0.00000000000E+00  0.00000000000E+00  0.45593999997E+02  0.45594000000E+02  0.51100000000E-03 0. -1.
         11   -1    0    0    0    0 -0.00000000000E+00 -0.00000000000E+00 -0.45593999997E+02  0.45594000000E+02  0.51100000000E-03 0.  1.
    9900012    2    1    2    0    0  0.34145419195E+00  0.11247239079E+01 -0.10586936061E+00  0.90007829184E+02  0.90000091729E+02 0.  0.
        -12    1    1    2    0    0 -0.34145419195E+00 -0.11247239079E+01  0.10586936061E+00  0.11801708164E+01  0.00000000000E+00 0.  1.
         11    1    3    3    0    0  0.36241510901E+02 -0.16402743247E+02 -0.11324846410E+02  0.41361204587E+02  0.51100000000E-03 0. -1.
        -11    1    3    3    0    0 -0.63651638776E+01 -0.32162574918E+01 -0.53677678732E+01  0.89259484451E+01  0.51100000000E-03 0.  1.
        -12    1    3    3    0    0 -0.29534892832E+02  0.20743724646E+02  0.16586744923E+02  0.39720676151E+02  0.00000000000E+00 0.  1.
</event>
<event>
 7    1  0.1756449E-015  0.9000775E+02  0.7816164E-02  0.1186339E+00
        -11   -1    0    0    0    0  0.00000000000E+00  0.00000000000E+00  0.45593999997E+02  0.45594000000E+02  0.51100000000E-03 0.  1.
         11   -1    0    0    0    0 -0.00000000000E+00 -0.00000000000E+00 -0.45593999997E+02  0.45594000000E+02  0.51100000000E-03 0. -1.
    9900012    2    1    2    0    0 -0.16690330708E-01 -0.47972180469E+00 -0.10782270251E+01  0.90007752105E+02  0.90000013632E+02 0.  0.
        -12    1    1    2    0    0  0.16690330708E-01  0.47972180469E+00  0.10782270251E+01  0.11802478954E+01  0.00000000000E+00 0.  1.
         11    1    3    3    0    0 -0.97163072107E+01 -0.17621703951E+01 -0.16020266123E+02  0.18819160375E+02  0.51100000000E-03 0. -1.
        -11    1    3    3    0    0  0.16903894442E+02  0.22806258321E+02 -0.16175366566E+02  0.32672764648E+02  0.51100000000E-03 0.  1.
         12    1    3    3    0    0 -0.72042775625E+01 -0.21523809730E+02  0.31117405664E+02  0.38515827082E+02  0.00000000000E+00 0. -1.
</event>
<event>
 7    1  0.1756449E-015  0.9000777E+02  0.7816164E-02  0.1186339E+00
        -11   -1    0    0    0    0  0.00000000000E+00  0.00000000000E+00  0.45593999997E+02  0.45594000000E+02  0.51100000000E-03 0. -1.
         11   -1    0    0    0    0 -0.00000000000E+00 -0.00000000000E+00 -0.45593999997E+02  0.45594000000E+02  0.51100000000E-03 0.  1.
    9900012    2    1    2    0    0 -0.10058502929E+01 -0.57323643406E+00  0.22936061298E+00  0.90007770738E+02  0.90000032511E+02 0.  0.
        -12    1    1    2    0    0  0.10058502929E+01  0.57323643406E+00 -0.22936061298E+00  0.11802292624E+01  0.00000000000E+00 0.  1.
         11    1    3    3    0    0  0.15190951979E+02 -0.30118670780E+02 -0.24689176921E+02  0.41802569405E+02  0.51100000000E-03 0. -1.
        -11    1    3    3    0    0  0.38450515732E+01 -0.80462499079E+00  0.60981145279E+01  0.72538847546E+01  0.51100000000E-03 0.  1.
        -12    1    3    3    0    0 -0.20041853845E+02  0.30350059337E+02  0.18820423006E+02  0.40951316578E+02  0.00000000000E+00 0.  1.
</event>
<event>
 7    1  0.1756449E-015  0.9000778E+02  0.7816164E-02  0.1186339E+00
        -11   -1    0    0    0    0  0.00000000000E+00  0.00000000000E+00  0.45593999997E+02  0.45594000000E+02  0.51100000000E-03 0. -1.
         11   -1    0    0    0    0 -0.00000000000E+00 -0.00000000000E+00 -0.45593999997E+02  0.45594000000E+02  0.51100000000E-03 0.  1.
    9900012    2    1    2    0    0 -0.73570829573E+00  0.80778525043E+00 -0.44625444220E+00  0.90007776829E+02  0.90000038683E+02 0.  0.
        -12    1    1    2    0    0  0.73570829573E+00 -0.80778525043E+00  0.44625444220E+00  0.11802231714E+01  0.00000000000E+00 0.  1.
         11    1    3    3    0    0 -0.24929006783E+01  0.43079656555E+01 -0.85392827638E+01  0.98839502357E+01  0.51100000000E-03 0. -1.
        -11    1    3    3    0    0 -0.31644789548E+02  0.40190923577E+01 -0.18406714371E+02  0.36828697277E+02  0.51100000000E-03 0.  1.
         12    1    3    3    0    0  0.33401981930E+02 -0.75192727627E+01  0.26499742692E+02  0.43295129316E+02  0.00000000000E+00 0. -1.
</event>
<event>
 7    1  0.1756449E-015  0.9000770E+02  0.7816164E-02  0.1186339E+00
        -11   -1    0    0    0    0  0.00000000000E+00  0.00000000000E+00  0.45593999997E+02  0.45594000000E+02  0.51100000000E-03 0.  1.
         11   -1    0    0    0    0 -0.00000000000E+00 -0.00000000000E+00 -0.45593999997E+02  0.45594000000E+02  0.51100000000E-03 0. -1.
    9900012    2    1    2    0    0 -0.83350150802E+00  0.78990450609E+00  0.27280982495E+00  0.90007703811E+02  0.89999964702E+02 0.  0.
        -12    1    1    2    0    0  0.83350150802E+00 -0.78990450609E+00 -0.27280982495E+00  0.11802961888E+01  0.00000000000E+00 0.  1.
         11    1    3    3    0    0  0.14458689147E+00 -0.19756723724E+01 -0.96407064838E+01  0.98421241844E+01  0.51100000000E-03 0. -1.
        -11    1    3    3    0    0  0.24392171175E+02  0.30980664510E+02  0.14355358310E+02  0.41962553552E+02  0.51100000000E-03 0.  1.
         12    1    3    3    0    0 -0.25370259575E+02 -0.28215087631E+02 -0.44418420013E+01  0.38203026075E+02  0.00000000000E+00 0. -1.
</event>
<event>
 7    1  0.1756449E-015  0.9000779E+02  0.7816164E-02  0.1186339E+00
        -11   -1    0    0    0    0  0.00000000000E+00  0.00000000000E+00  0.45593999997E+02  0.45594000000E+02  0.51100000000E-03 0.  1.
         11   -1    0    0    0    0 -0.00000000000E+00 -0.00000000000E+00 -0.45593999997E+02  0.45594000000E+02  0.51100000000E-03 0. -1.
    9900012    2    1    2    0    0 -0.50070116390E+00 -0.80977793012E+00 -0.69746923901E+00  0.90007785913E+02  0.90000047887E+02 0.  0.
        -12    1    1    2    0    0  0.50070116390E+00  0.80977793012E+00  0.69746923901E+00  0.11802140869E+01  0.00000000000E+00 0.  1.
         11    1    3    3    0    0  0.84660489999E+01  0.28437754093E+02 -0.27014425884E+02  0.40126787183E+02  0.51100000000E-03 0. -1.
        -11    1    3    3    0    0 -0.22808328480E+01  0.60377147521E+01  0.36987632670E+01  0.74388875429E+01  0.51100000000E-03 0.  1.
        -12    1    3    3    0    0 -0.66859173158E+01 -0.35285246775E+02  0.22618193378E+02  0.42442111187E+02  0.00000000000E+00 0.  1.
</event>
<event>
 7    1  0.1756449E-015  0.9000757E+02  0.7816164E-02  0.1186339E+00
        -11   -1    0    0    0    0  0.00000000000E+00  0.00000000000E+00  0.45593999997E+02  0.45594000000E+02  0.51100000000E-03 0.  1.
         11   -1    0    0    0    0 -0.00000000000E+00 -0.00000000000E+00 -0.45593999997E+02  0.45594000000E+02  0.51100000000E-03 0. -1.
    9900012    2    1    2    0    0  0.27376948820E+00 -0.87254925565E+00  0.74640968197E+00  0.90007568151E+02  0.89999827251E+02 0.  0.
        -12    1    1    2    0    0 -0.27376948820E+00  0.87254925565E+00 -0.74640968197E+00  0.11804318487E+01  0.00000000000E+00 0.  1.
         11    1    3    3    0    0  0.18665115680E+01 -0.13263356353E+02 -0.18309573157E+01  0.13518612804E+02  0.51100000000E-03 0. -1.
        -11    1    3    3    0    0  0.34112229478E+02  0.78421664924E+01 -0.12907113912E+02  0.37305996369E+02  0.51100000000E-03 0.  1.
         12    1    3    3    0    0 -0.35704971558E+02  0.45486406052E+01  0.15484480910E+02  0.39182958979E+02  0.00000000000E+00 0. -1.
</event>
<event>
 7    1  0.1756449E-015  0.9000771E+02  0.7816164E-02  0.1186339E+00
        -11   -1    0    0    0    0  0.00000000000E+00  0.00000000000E+00  0.45593999997E+02  0.45594000000E+02  0.51100000000E-03 0.  1.
         11   -1    0    0    0    0 -0.00000000000E+00 -0.00000000000E+00 -0.45593999997E+02  0.45594000000E+02  0.51100000000E-03 0. -1.
    9900012    2    1    2    0    0  0.67408468719E+00 -0.93088139550E+00  0.26862629036E+00  0.90007707485E+02  0.89999968423E+02 0.  0.
        -12    1    1    2    0    0 -0.67408468719E+00  0.93088139550E+00 -0.26862629036E+00  0.11802925154E+01  0.00000000000E+00 0.  1.
         11    1    3    3    0    0  0.95375449927E+01  0.95038712006E+01  0.19806243416E+01  0.13609232356E+02  0.51100000000E-03 0. -1.
        -11    1    3    3    0    0 -0.18873735423E+02  0.22219666551E+02  0.20515283373E+02  0.35648398598E+02  0.51100000000E-03 0.  1.
         12    1    3    3    0    0  0.10010275117E+02 -0.32654419147E+02 -0.22227281424E+02  0.40750076531E+02  0.00000000000E+00 0. -1.
</event>
<event>
 7    1  0.1756449E-015  0.9000794E+02  0.7816164E-02  0.1186339E+00
        -11   -1    0    0    0    0  0.00000000000E+00  0.00000000000E+00  0.45593999997E+02  0.45594000000E+02  0.51100000000E-03 0. -1.
         11   -1    0    0    0    0 -0.00000000000E+00 -0.00000000000E+00 -0.45593999997E+02  0.45594000000E+02  0.51100000000E-03 0.  1.
    9900012    2    1    2    0    0 -0.36943726790E-01 -0.46663838748E+00  0.10832476271E+01  0.90007939982E+02  0.90000203990E+02 0.  0.
        -12    1    1    2    0    0  0.36943726790E-01  0.46663838748E+00 -0.10832476271E+01  0.11800600177E+01  0.00000000000E+00 0.  1.
         11    1    3    3    0    0 -0.16048074823E+02  0.19589114768E+02  0.27317028601E+02  0.37249082872E+02  0.51100000000E-03 0. -1.
        -11    1    3    3    0    0 -0.97658698303E+01  0.23009743346E+00  0.13999502405E+01  0.98683848378E+01  0.51100000000E-03 0.  1.
        -12    1    3    3    0    0  0.25777000927E+02 -0.20285850589E+02 -0.27633731215E+02  0.42890472272E+02  0.00000000000E+00 0.  1.
</event>
<event>
 7    1  0.1756449E-015  0.9000869E+02  0.7816164E-02  0.1186337E+00
        -11   -1    0    0    0    0  0.00000000000E+00  0.00000000000E+00  0.45593999997E+02  0.45594000000E+02  0.51100000000E-03 0.  1.
         11   -1    0    0    0    0 -0.00000000000E+00 -0.00000000000E+00 -0.45593999997E+02  0.45594000000E+02  0.51100000000E-03 0. -1.
    9900012    2    1    2    0    0  0.73245669599E-01 -0.10346600218E+01 -0.56115206525E+00  0.90008687518E+02  0.90000961389E+02 0.  0.
        -12    1    1    2    0    0 -0.73245669599E-01  0.10346600218E+01  0.56115206525E+00  0.11793124816E+01  0.00000000000E+00 0.  1.
         11    1    3    3    0    0 -0.26718091952E+01 -0.93512043951E+00 -0.83670938140E+01  0.88329651740E+01  0.51100000000E-03 0. -1.
        -11    1    3    3    0    0  0.36926139178E+02 -0.97170914335E+01 -0.12616069743E+02  0.40213515595E+02  0.51100000000E-03 0.  1.
         12    1    3    3    0    0 -0.34181084313E+02  0.96175518512E+01  0.20422011491E+02  0.40962206749E+02  0.00000000000E+00 0. -1.
</event>
<event>
 7    1  0.1756449E-015  0.9000787E+02  0.7816164E-02  0.1186339E+00
        -11   -1    0    0    0    0  0.00000000000E+00  0.00000000000E+00  0.45593999997E+02  0.45594000000E+02  0.51100000000E-03 0. -1.
         11   -1    0    0    0    0 -0.00000000000E+00 -0.00000000000E+00 -0.45593999997E+02  0.45594000000E+02  0.51100000000E-03 0.  1.
    9900012    2    1    2    0    0 -0.76414013089E+00  0.85074294364E+00 -0.29158747675E+00  0.90007874179E+02  0.90000137318E+02 0.  0.
        -12    1    1    2    0    0  0.76414013089E+00 -0.85074294364E+00  0.29158747675E+00  0.11801258206E+01  0.00000000000E+00 0.  1.
         11    1    3    3    0    0 -0.32198000006E+02 -0.14582067656E+02 -0.14963147349E+02  0.38382856595E+02  0.51100000000E-03 0. -1.
        -11    1    3    3    0    0 -0.10094202042E+01 -0.21797799590E+01 -0.79665380968E+01  0.83208232362E+01  0.51100000000E-03 0.  1.
        -12    1    3    3    0    0  0.32443280080E+02  0.17612590558E+02  0.22638097969E+02  0.43304194348E+02  0.00000000000E+00 0.  1.
</event>
<event>
 7    1  0.1756449E-015  0.9000769E+02  0.7816164E-02  0.1186339E+00
        -11   -1    0    0    0    0  0.00000000000E+00  0.00000000000E+00  0.45593999997E+02  0.45594000000E+02  0.51100000000E-03 0. -1.
         11   -1    0    0    0    0 -0.00000000000E+00 -0.00000000000E+00 -0.45593999997E+02  0.45594000000E+02  0.51100000000E-03 0.  1.
    9900012    2    1    2    0    0  0.30814036904E+00 -0.96022176031E+00  0.61331768874E+00  0.90007688641E+02  0.89999949331E+02 0.  0.
        -12    1    1    2    0    0 -0.30814036904E+00  0.96022176031E+00 -0.61331768874E+00  0.11803113586E+01  0.00000000000E+00 0.  1.
         11    1    3    3    0    0  0.11977019962E+02  0.26515354925E+02  0.26399697906E+02  0.39286856628E+02  0.51100000000E-03 0. -1.
        -11    1    3    3    0    0  0.74437808580E+01  0.26716434695E+01 -0.58345209546E+01  0.98279798189E+01  0.51100000000E-03 0.  1.
        -12    1    3    3    0    0 -0.19112660450E+02 -0.30147220155E+02 -0.19951859262E+02  0.40892852194E+02  0.00000000000E+00 0.  1.
</event>
<event>
 7    1  0.1756449E-015  0.9000769E+02  0.7816164E-02  0.1186339E+00
        -11   -1    0    0    0    0  0.00000000000E+00  0.00000000000E+00  0.45593999997E+02  0.45594000000E+02  0.51100000000E-03 0.  1.
         11   -1    0    0    0    0 -0.00000000000E+00 -0.00000000000E+00 -0.45593999997E+02  0.45594000000E+02  0.51100000000E-03 0. -1.
    9900012    2    1    2    0    0  0.27297553507E+00 -0.92720915559E+00 -0.67741499930E+00  0.90007693454E+02  0.89999954208E+02 0.  0.
        -12    1    1    2    0    0 -0.27297553507E+00  0.92720915559E+00  0.67741499930E+00  0.11803065459E+01  0.00000000000E+00 0.  1.
         11    1    3    3    0    0 -0.20104657728E+02  0.33319466714E+02 -0.17991849166E+02  0.42872960723E+02  0.51100000000E-03 0. -1.
        -11    1    3    3    0    0  0.63784638816E+01 -0.42673995457E+01 -0.30778839400E+01  0.82685470417E+01  0.51100000000E-03 0.  1.
        -12    1    3    3    0    0  0.13999169381E+02 -0.29979276324E+02  0.20392318107E+02  0.38866185690E+02  0.00000000000E+00 0.  1.
</event>
<event>
 7    1  0.1756449E-015  0.9000778E+02  0.7816164E-02  0.1186339E+00
        -11   -1    0    0    0    0  0.00000000000E+00  0.00000000000E+00  0.45593999997E+02  0.45594000000E+02  0.51100000000E-03 0.  1.
         11   -1    0    0    0    0 -0.00000000000E+00 -0.00000000000E+00 -0.45593999997E+02  0.45594000000E+02  0.51100000000E-03 0. -1.
    9900012    2    1    2    0    0  0.70282301833E+00  0.66925573225E+00  0.67161567020E+00  0.90007775005E+02  0.90000036835E+02 0.  0.
        -12    1    1    2    0    0 -0.70282301833E+00 -0.66925573225E+00 -0.67161567020E+00  0.11802249949E+01  0.00000000000E+00 0.  1.
         11    1    3    3    0    0  0.13744006533E+02  0.11266109360E+02 -0.12074634132E+02  0.21485337451E+02  0.51100000000E-03 0. -1.
        -11    1    3    3    0    0  0.78119213903E+01  0.64851246998E+01 -0.22185914346E+02  0.24398724430E+02  0.51100000000E-03 0.  1.
        -12    1    3    3    0    0 -0.20853104905E+02 -0.17081978328E+02  0.34932164148E+02  0.44123713124E+02  0.00000000000E+00 0.  1.
</event>
<event>
 7    1  0.1756449E-015  0.9000775E+02  0.7816164E-02  0.1186339E+00
        -11   -1    0    0    0    0  0.00000000000E+00  0.00000000000E+00  0.45593999997E+02  0.45594000000E+02  0.51100000000E-03 0.  1.
         11   -1    0    0    0    0 -0.00000000000E+00 -0.00000000000E+00 -0.45593999997E+02  0.45594000000E+02  0.51100000000E-03 0. -1.
    9900012    2    1    2    0    0 -0.20005466156E+00 -0.26245277599E+00 -0.11331739238E+01  0.90007751522E+02  0.90000013042E+02 0.  0.
        -12    1    1    2    0    0  0.20005466156E+00  0.26245277599E+00  0.11331739238E+01  0.11802484776E+01  0.00000000000E+00 0.  1.
         11    1    3    3    0    0  0.35907341449E+01  0.10947880264E+01 -0.67055205750E+01  0.76847862016E+01  0.51100000000E-03 0. -1.
        -11    1    3    3    0    0 -0.40203579287E+02 -0.15248508191E+02  0.55146316985E+01  0.43350385841E+02  0.51100000000E-03 0.  1.
         12    1    3    3    0    0  0.36412790481E+02  0.13891267388E+02  0.57714952651E-01  0.38972579479E+02  0.00000000000E+00 0. -1.
</event>
<event>
 7    1  0.1756449E-015  0.9000753E+02  0.7816164E-02  0.1186339E+00
        -11   -1    0    0    0    0  0.00000000000E+00  0.00000000000E+00  0.45593999997E+02  0.45594000000E+02  0.51100000000E-03 0. -1.
         11   -1    0    0    0    0 -0.00000000000E+00 -0.00000000000E+00 -0.45593999997E+02  0.45594000000E+02  0.51100000000E-03 0.  1.
    9900012    2    1    2    0    0 -0.90134772553E+00  0.75831288249E+00  0.77772308916E-01  0.90007527772E+02  0.89999786338E+02 0.  0.
        -12    1    1    2    0    0  0.90134772553E+00 -0.75831288249E+00 -0.77772308916E-01  0.11804722284E+01  0.00000000000E+00 0.  1.
         11    1    3    3    0    0  0.12965224551E+02 -0.41266978012E+02 -0.15917457808E+01  0.43285034098E+02  0.51100000000E-03 0. -1.
        -11    1    3    3    0    0 -0.90377785212E+01  0.75220243369E+01 -0.86927658186E+00  0.11790586616E+02  0.51100000000E-03 0.  1.
        -12    1    3    3    0    0 -0.48287937559E+01  0.34503266558E+02  0.25387946716E+01  0.34931907058E+02  0.00000000000E+00 0.  1.
</event>
<event>
 7    1  0.1756449E-015  0.9000773E+02  0.7816164E-02  0.1186339E+00
        -11   -1    0    0    0    0  0.00000000000E+00  0.00000000000E+00  0.45593999997E+02  0.45594000000E+02  0.51100000000E-03 0.  1.
         11   -1    0    0    0    0 -0.00000000000E+00 -0.00000000000E+00 -0.45593999997E+02  0.45594000000E+02  0.51100000000E-03 0. -1.
    9900012    2    1    2    0    0 -0.11757742116E+01 -0.99991719019E-01  0.24606789850E-01  0.90007725102E+02  0.89999986273E+02 0.  0.
        -12    1    1    2    0    0  0.11757742116E+01  0.99991719019E-01 -0.24606789850E-01  0.11802748979E+01  0.00000000000E+00 0.  1.
         11    1    3    3    0    0  0.63918566144E+01  0.15794966870E+01 -0.42683269931E+01  0.78466079515E+01  0.51100000000E-03 0. -1.
        -11    1    3    3    0    0  0.34557516063E+02 -0.13914630494E+02 -0.41694525645E+01  0.37486306742E+02  0.51100000000E-03 0.  1.
         12    1    3    3    0    0 -0.42125146889E+02  0.12235142088E+02  0.84623863474E+01  0.44674810408E+02  0.00000000000E+00 0. -1.
</event>
<event>
 7    1  0.1756449E-015  0.9000764E+02  0.7816164E-02  0.1186339E+00
        -11   -1    0    0    0    0  0.00000000000E+00  0.00000000000E+00  0.45593999997E+02  0.45594000000E+02  0.51100000000E-03 0.  1.
         11   -1    0    0    0    0 -0.00000000000E+00 -0.00000000000E+00 -0.45593999997E+02  0.45594000000E+02  0.51100000000E-03 0. -1.
    9900012    2    1    2    0    0 -0.35787210099E+00 -0.26335174829E-01 -0.11244903208E+01  0.90007642231E+02  0.89999902308E+02 0.  0.
        -12    1    1    2    0    0  0.35787210099E+00  0.26335174829E-01  0.11244903208E+01  0.11803577693E+01  0.00000000000E+00 0.  1.
         11    1    3    3    0    0 -0.90729187261E+01 -0.25260241586E+02 -0.45379038597E+01  0.27221135738E+02  0.51100000000E-03 0. -1.
        -11    1    3    3    0    0  0.61811275053E+01 -0.17504235876E+02  0.69629366793E+01  0.19826424244E+02  0.51100000000E-03 0.  1.
         12    1    3    3    0    0  0.25339191198E+01  0.42738142287E+02 -0.35495231403E+01  0.42960082248E+02  0.00000000000E+00 0. -1.
</event>
<event>
 7    1  0.1756449E-015  0.9000774E+02  0.7816164E-02  0.1186339E+00
        -11   -1    0    0    0    0  0.00000000000E+00  0.00000000000E+00  0.45593999997E+02  0.45594000000E+02  0.51100000000E-03 0.  1.
         11   -1    0    0    0    0 -0.00000000000E+00 -0.00000000000E+00 -0.45593999997E+02  0.45594000000E+02  0.51100000000E-03 0. -1.
    9900012    2    1    2    0    0  0.11538116770E+01  0.21874814067E+00 -0.11781881777E+00  0.90007740110E+02  0.90000001479E+02 0.  0.
        -12    1    1    2    0    0 -0.11538116770E+01 -0.21874814067E+00  0.11781881777E+00  0.11802598904E+01  0.00000000000E+00 0.  1.
         11    1    3    3    0    0  0.58445911966E+01  0.10219894175E+02  0.88276066881E-01  0.11773413954E+02  0.51100000000E-03 0. -1.
        -11    1    3    3    0    0 -0.17404321974E+02  0.13134139281E+02  0.30657889034E+02  0.37620768178E+02  0.51100000000E-03 0.  1.
         12    1    3    3    0    0  0.12713542454E+02 -0.23135285315E+02 -0.30863983918E+02  0.40613557978E+02  0.00000000000E+00 0. -1.
</event>
<event>
 7    1  0.1756449E-015  0.9000773E+02  0.7816164E-02  0.1186339E+00
        -11   -1    0    0    0    0  0.00000000000E+00  0.00000000000E+00  0.45593999997E+02  0.45594000000E+02  0.51100000000E-03 0.  1.
         11   -1    0    0    0    0 -0.00000000000E+00 -0.00000000000E+00 -0.45593999997E+02  0.45594000000E+02  0.51100000000E-03 0. -1.
    9900012    2    1    2    0    0  0.22473852637E+00 -0.68661601462E+00  0.93332007020E+00  0.90007730831E+02  0.89999992078E+02 0.  0.
        -12    1    1    2    0    0 -0.22473852637E+00  0.68661601462E+00 -0.93332007020E+00  0.11802691685E+01  0.00000000000E+00 0.  1.
         11    1    3    3    0    0  0.60395442694E+01  0.78812572380E+01 -0.43207300986E+01  0.10828620387E+02  0.51100000000E-03 0. -1.
        -11    1    3    3    0    0  0.10970560040E+02  0.19132045694E+02  0.30832476063E+02  0.37908177752E+02  0.51100000000E-03 0.  1.
         12    1    3    3    0    0 -0.16785365783E+02 -0.27699918947E+02 -0.25578425894E+02  0.41270932693E+02  0.00000000000E+00 0. -1.
</event>
<event>
 7    1  0.1756449E-015  0.9000793E+02  0.7816164E-02  0.1186339E+00
        -11   -1    0    0    0    0  0.00000000000E+00  0.00000000000E+00  0.45593999997E+02  0.45594000000E+02  0.51100000000E-03 0.  1.
         11   -1    0    0    0    0 -0.00000000000E+00 -0.00000000000E+00 -0.45593999997E+02  0.45594000000E+02  0.51100000000E-03 0. -1.
    9900012    2    1    2    0    0  0.16990754015E+00  0.93334728801E+00 -0.70182214939E+00  0.90007932179E+02  0.90000196084E+02 0.  0.
        -12    1    1    2    0    0 -0.16990754015E+00 -0.93334728801E+00  0.70182214939E+00  0.11800678208E+01  0.00000000000E+00 0.  1.
         11    1    3    3    0    0  0.19664592978E+01  0.75759590473E+00 -0.35280508307E+02  0.35343389487E+02  0.51100000000E-03 0. -1.
        -11    1    3    3    0    0  0.15259401119E+02 -0.82607071458E+00  0.34329690812E+02  0.37577378659E+02  0.51100000000E-03 0.  1.
         12    1    3    3    0    0 -0.17055952876E+02  0.10018220979E+01  0.24899534571E+00  0.17087164034E+02  0.00000000000E+00 0. -1.
</event>
<event>
 7    1  0.1756449E-015  0.9000767E+02  0.7816164E-02  0.1186339E+00
        -11   -1    0    0    0    0  0.00000000000E+00  0.00000000000E+00  0.45593999997E+02  0.45594000000E+02  0.51100000000E-03 0.  1.
         11   -1    0    0    0    0 -0.00000000000E+00 -0.00000000000E+00 -0.45593999997E+02  0.45594000000E+02  0.51100000000E-03 0. -1.
    9900012    2    1    2    0    0  0.56753049076E+00  0.94407669044E+00 -0.42405073572E+00  0.90007665013E+02  0.89999925391E+02 0.  0.
        -12    1    1    2    0    0 -0.56753049076E+00 -0.94407669044E+00  0.42405073572E+00  0.11803349871E+01  0.00000000000E+00 0.  1.
         11    1    3    3    0    0  0.32436914287E+01 -0.11098614688E+02  0.60437777791E+01  0.13047146515E+02  0.51100000000E-03 0. -1.
        -11    1    3    3    0    0  0.26885866081E+02  0.19257922545E+02  0.18235540245E+02  0.37765755705E+02  0.51100000000E-03 0.  1.
         12    1    3    3    0    0 -0.29562027019E+02 -0.72152311666E+01 -0.24703368760E+02  0.39194762793E+02  0.00000000000E+00 0. -1.
</event>
<event>
 7    1  0.1756449E-015  0.9000772E+02  0.7816164E-02  0.1186339E+00
        -11   -1    0    0    0    0  0.00000000000E+00  0.00000000000E+00  0.45593999997E+02  0.45594000000E+02  0.51100000000E-03 0.  1.
         11   -1    0    0    0    0 -0.00000000000E+00 -0.00000000000E+00 -0.45593999997E+02  0.45594000000E+02  0.51100000000E-03 0. -1.
    9900012    2    1    2    0    0 -0.29179826881E+00 -0.91907651500E+00  0.68059641931E+00  0.90007720645E+02  0.89999981757E+02 0.  0.
        -12    1    1    2    0    0  0.29179826881E+00  0.91907651500E+00 -0.68059641931E+00  0.11802793551E+01  0.00000000000E+00 0.  1.
         11    1    3    3    0    0  0.33598093623E+01 -0.73319897184E+01  0.67451013258E+01  0.10513932867E+02  0.51100000000E-03 0. -1.
        -11    1    3    3    0    0 -0.51604790069E+01  0.10463144204E+02  0.35673423162E+02  0.37532666446E+02  0.51100000000E-03 0.  1.
         12    1    3    3    0    0  0.15088713758E+01 -0.40502310006E+01 -0.41737928068E+02  0.41961121332E+02  0.00000000000E+00 0. -1.
</event>
<event>
 7    1  0.1756449E-015  0.9000795E+02  0.7816164E-02  0.1186339E+00
        -11   -1    0    0    0    0  0.00000000000E+00  0.00000000000E+00  0.45593999997E+02  0.45594000000E+02  0.51100000000E-03 0. -1.
         11   -1    0    0    0    0 -0.00000000000E+00 -0.00000000000E+00 -0.45593999997E+02  0.45594000000E+02  0.51100000000E-03 0.  1.
    9900012    2    1    2    0    0  0.82943156799E+00 -0.28118123329E+00  0.79088262548E+00  0.90007951298E+02  0.90000215455E+02 0.  0.
        -12    1    1    2    0    0 -0.82943156799E+00  0.28118123329E+00 -0.79088262548E+00  0.11800487021E+01  0.00000000000E+00 0.  1.
         11    1    3    3    0    0 -0.26534346632E+02 -0.14248006707E+02  0.25176482194E+02  0.39254713121E+02  0.51100000000E-03 0. -1.
        -11    1    3    3    0    0  0.63518288688E+00 -0.91503347671E+01 -0.50516481645E+01  0.10471448471E+02  0.51100000000E-03 0.  1.
        -12    1    3    3    0    0  0.26728595313E+02  0.23117160240E+02 -0.19333951404E+02  0.40281789705E+02  0.00000000000E+00 0.  1.
</event>
<event>
 7    1  0.1756449E-015  0.9000772E+02  0.7816164E-02  0.1186339E+00
        -11   -1    0    0    0    0  0.00000000000E+00  0.00000000000E+00  0.45593999997E+02  0.45594000000E+02  0.51100000000E-03 0.  1.
         11   -1    0    0    0    0 -0.00000000000E+00 -0.00000000000E+00 -0.45593999997E+02  0.45594000000E+02  0.51100000000E-03 0. -1.
    9900012    2    1    2    0    0  0.73140485791E+00 -0.75820598971E+00 -0.53219368667E+00  0.90007720580E+02  0.89999981692E+02 0.  0.
        -12    1    1    2    0    0 -0.73140485791E+00  0.75820598971E+00  0.53219368667E+00  0.11802794199E+01  0.00000000000E+00 0.  1.
         11    1    3    3    0    0  0.17556046592E+01  0.44402839019E+01  0.60692106943E+01  0.77222786508E+01  0.51100000000E-03 0. -1.
        -11    1    3    3    0    0 -0.20201629785E+02  0.30693000070E+02 -0.16693745821E+02  0.40358979782E+02  0.51100000000E-03 0.  1.
         12    1    3    3    0    0  0.19177429983E+02 -0.35891489962E+02  0.10092341440E+02  0.41926462147E+02  0.00000000000E+00 0. -1.
</event>
<event>
 7    1  0.1756449E-015  0.9000779E+02  0.7816164E-02  0.1186339E+00
        -11   -1    0    0    0    0  0.00000000000E+00  0.00000000000E+00  0.45593999997E+02  0.45594000000E+02  0.51100000000E-03 0. -1.
         11   -1    0    0    0    0 -0.00000000000E+00 -0.00000000000E+00 -0.45593999997E+02  0.45594000000E+02  0.51100000000E-03 0.  1.
    9900012    2    1    2    0    0 -0.71036676605E+00 -0.91184286711E-01 -0.93805819706E+00  0.90007792943E+02  0.90000055010E+02 0.  0.
        -12    1    1    2    0    0  0.71036676605E+00  0.91184286711E-01  0.93805819706E+00  0.11802070571E+01  0.00000000000E+00 0.  1.
         11    1    3    3    0    0 -0.33815995562E+01  0.12973791229E+01 -0.98349063195E+00  0.37530870269E+01  0.51100000000E-03 0. -1.
        -11    1    3    3    0    0 -0.20000032938E+02 -0.30170279386E+02 -0.23079170043E+02  0.42928954866E+02  0.51100000000E-03 0.  1.
         12    1    3    3    0    0  0.22671265728E+02  0.28781715976E+02  0.23124602478E+02  0.43325751050E+02  0.00000000000E+00 0. -1.
</event>
<event>
 7    1  0.1756449E-015  0.9000795E+02  0.7816164E-02  0.1186339E+00
        -11   -1    0    0    0    0  0.00000000000E+00  0.00000000000E+00  0.45593999997E+02  0.45594000000E+02  0.51100000000E-03 0.  1.
         11   -1    0    0    0    0 -0.00000000000E+00 -0.00000000000E+00 -0.45593999997E+02  0.45594000000E+02  0.51100000000E-03 0. -1.
    9900012    2    1    2    0    0  0.34108004950E+00  0.11253398803E+01  0.98941149192E-01  0.90007951358E+02  0.90000215516E+02 0.  0.
        -12    1    1    2    0    0 -0.34108004950E+00 -0.11253398803E+01 -0.98941149192E-01  0.11800486419E+01  0.00000000000E+00 0.  1.
         11    1    3    3    0    0 -0.32091159916E+02  0.22996332446E+02 -0.48589086975E+01  0.39777919059E+02  0.51100000000E-03 0. -1.
        -11    1    3    3    0    0  0.22901403936E+01  0.64359821019E+01  0.56638802220E+01  0.88739026403E+01  0.51100000000E-03 0.  1.
        -12    1    3    3    0    0  0.30142099572E+02 -0.28306974668E+02 -0.70603037537E+00  0.41356129658E+02  0.00000000000E+00 0.  1.
</event>
<event>
 7    1  0.1756449E-015  0.9000776E+02  0.7816164E-02  0.1186339E+00
        -11   -1    0    0    0    0  0.00000000000E+00  0.00000000000E+00  0.45593999997E+02  0.45594000000E+02  0.51100000000E-03 0. -1.
         11   -1    0    0    0    0 -0.00000000000E+00 -0.00000000000E+00 -0.45593999997E+02  0.45594000000E+02  0.51100000000E-03 0.  1.
    9900012    2    1    2    0    0 -0.68433865541E+00  0.22642945664E+00  0.93454255923E+00  0.90007762952E+02  0.90000024623E+02 0.  0.
        -12    1    1    2    0    0  0.68433865541E+00 -0.22642945664E+00 -0.93454255923E+00  0.11802370479E+01  0.00000000000E+00 0.  1.
         11    1    3    3    0    0  0.80955330067E+01 -0.14354932602E+02  0.15986275648E+02  0.22960025131E+02  0.51100000000E-03 0. -1.
        -11    1    3    3    0    0  0.17583548844E+02 -0.79246085805E+01 -0.24441928746E+02  0.31135004291E+02  0.51100000000E-03 0.  1.
         12    1    3    3    0    0 -0.26363420506E+02  0.22505970639E+02  0.93901956576E+01  0.35912733531E+02  0.00000000000E+00 0. -1.
</event>
<event>
 7    1  0.1756449E-015  0.9000781E+02  0.7816164E-02  0.1186339E+00
        -11   -1    0    0    0    0  0.00000000000E+00  0.00000000000E+00  0.45593999997E+02  0.45594000000E+02  0.51100000000E-03 0. -1.
         11   -1    0    0    0    0 -0.00000000000E+00 -0.00000000000E+00 -0.45593999997E+02  0.45594000000E+02  0.51100000000E-03 0.  1.
    9900012    2    1    2    0    0 -0.25490625145E+00 -0.73940387381E+00  0.88382781362E+00  0.90007810655E+02  0.90000072956E+02 0.  0.
        -12    1    1    2    0    0  0.25490625145E+00  0.73940387381E+00 -0.88382781362E+00  0.11801893449E+01  0.00000000000E+00 0.  1.
         11    1    3    3    0    0 -0.17330206015E+01  0.32504456898E+01  0.10986109482E+02  0.11587206713E+02  0.51100000000E-03 0. -1.
        -11    1    3    3    0    0  0.53097215323E+00 -0.38112371520E+02 -0.19775646590E+02  0.42940784723E+02  0.51100000000E-03 0.  1.
         12    1    3    3    0    0  0.94714219679E+00  0.34122521956E+02  0.96733649218E+01  0.35479819220E+02  0.00000000000E+00 0. -1.
</event>
<event>
 7    1  0.1756449E-015  0.9000777E+02  0.7816164E-02  0.1186339E+00
        -11   -1    0    0    0    0  0.00000000000E+00  0.00000000000E+00  0.45593999997E+02  0.45594000000E+02  0.51100000000E-03 0. -1.
         11   -1    0    0    0    0 -0.00000000000E+00 -0.00000000000E+00 -0.45593999997E+02  0.45594000000E+02  0.51100000000E-03 0.  1.
    9900012    2    1    2    0    0  0.35300054784E+00  0.11240711462E+01 -0.69235114926E-01  0.90007771704E+02  0.90000033491E+02 0.  0.
        -12    1    1    2    0    0 -0.35300054784E+00 -0.11240711462E+01  0.69235114926E-01  0.11802282955E+01  0.00000000000E+00 0.  1.
         11    1    3    3    0    0  0.12526264442E+01 -0.58966268477E+01  0.73809553366E+01  0.95298364694E+01  0.51100000000E-03 0. -1.
        -11    1    3    3    0    0  0.19270489285E+02 -0.30066410023E+02 -0.12771108796E+02  0.37926797770E+02  0.51100000000E-03 0.  1.
         12    1    3    3    0    0 -0.20170115182E+02  0.37087108017E+02  0.53209183448E+01  0.42551137465E+02  0.00000000000E+00 0. -1.
</event>
<event>
 7    1  0.1756449E-015  0.9000779E+02  0.7816164E-02  0.1186339E+00
        -11   -1    0    0    0    0  0.00000000000E+00  0.00000000000E+00  0.45593999997E+02  0.45594000000E+02  0.51100000000E-03 0. -1.
         11   -1    0    0    0    0 -0.00000000000E+00 -0.00000000000E+00 -0.45593999997E+02  0.45594000000E+02  0.51100000000E-03 0.  1.
    9900012    2    1    2    0    0 -0.20273579163E+00  0.91965169851E+00  0.71136280700E+00  0.90007788963E+02  0.90000050978E+02 0.  0.
        -12    1    1    2    0    0  0.20273579163E+00 -0.91965169851E+00 -0.71136280700E+00  0.11802110366E+01  0.00000000000E+00 0.  1.
         11    1    3    3    0    0  0.62417208966E+01 -0.22179339130E+02 -0.62891830186E+01  0.23883801777E+02  0.51100000000E-03 0. -1.
        -11    1    3    3    0    0 -0.91446929356E+01 -0.51854410785E+01 -0.22703263492E+02  0.25019040379E+02  0.51100000000E-03 0.  1.
         12    1    3    3    0    0  0.27002362473E+01  0.28284431907E+02  0.29703809317E+02  0.41104946808E+02  0.00000000000E+00 0. -1.
</event>
<event>
 7    1  0.1756449E-015  0.9000781E+02  0.7816164E-02  0.1186339E+00
        -11   -1    0    0    0    0  0.00000000000E+00  0.00000000000E+00  0.45593999997E+02  0.45594000000E+02  0.51100000000E-03 0.  1.
         11   -1    0    0    0    0 -0.00000000000E+00 -0.00000000000E+00 -0.45593999997E+02  0.45594000000E+02  0.51100000000E-03 0. -1.
    9900012    2    1    2    0    0 -0.73082298740E+00  0.90321168955E+00  0.20727661074E+00  0.90007806292E+02  0.90000068535E+02 0.  0.
        -12    1    1    2    0    0  0.73082298740E+00 -0.90321168955E+00 -0.20727661074E+00  0.11801937080E+01  0.00000000000E+00 0.  1.
         11    1    3    3    0    0  0.32979241251E+02 -0.97161071691E+01 -0.14158105095E+02  0.37181783607E+02  0.51100000000E-03 0. -1.
        -11    1    3    3    0    0 -0.77023615500E+00 -0.10856090078E+02 -0.22129464727E+00  0.10885629385E+02  0.51100000000E-03 0.  1.
        -12    1    3    3    0    0 -0.32939828084E+02  0.21475408937E+02  0.14586676353E+02  0.41940393301E+02  0.00000000000E+00 0.  1.
</event>
<event>
 7    1  0.1756449E-015  0.9000774E+02  0.7816164E-02  0.1186339E+00
        -11   -1    0    0    0    0  0.00000000000E+00  0.00000000000E+00  0.45593999997E+02  0.45594000000E+02  0.51100000000E-03 0. -1.
         11   -1    0    0    0    0 -0.00000000000E+00 -0.00000000000E+00 -0.45593999997E+02  0.45594000000E+02  0.51100000000E-03 0.  1.
    9900012    2    1    2    0    0 -0.46253052922E+00 -0.99617707649E+00  0.43210414950E+00  0.90007738481E+02  0.89999999829E+02 0.  0.
        -12    1    1    2    0    0  0.46253052922E+00  0.99617707649E+00 -0.43210414950E+00  0.11802615194E+01  0.00000000000E+00 0.  1.
         11    1    3    3    0    0 -0.36715961046E+02  0.11372374989E+01  0.17867107978E+02  0.40848361686E+02  0.51100000000E-03 0. -1.
        -11    1    3    3    0    0 -0.10991484238E+00  0.77507852687E+01 -0.59291751981E+01  0.97591942467E+01  0.51100000000E-03 0.  1.
        -12    1    3    3    0    0  0.36363345360E+02 -0.98841998441E+01 -0.11505828631E+02  0.39400182548E+02  0.00000000000E+00 0.  1.
</event>
<event>
 7    1  0.1756449E-015  0.9000760E+02  0.7816164E-02  0.1186339E+00
        -11   -1    0    0    0    0  0.00000000000E+00  0.00000000000E+00  0.45593999997E+02  0.45594000000E+02  0.51100000000E-03 0.  1.
         11   -1    0    0    0    0 -0.00000000000E+00 -0.00000000000E+00 -0.45593999997E+02  0.45594000000E+02  0.51100000000E-03 0. -1.
    9900012    2    1    2    0    0  0.88990796266E+00  0.39616530194E+00 -0.66667410987E+00  0.90007602822E+02  0.89999862379E+02 0.  0.
        -12    1    1    2    0    0 -0.88990796266E+00 -0.39616530194E+00  0.66667410987E+00  0.11803971778E+01  0.00000000000E+00 0.  1.
         11    1    3    3    0    0  0.18570189355E+01  0.39612328486E+01 -0.88034261460E+01  0.98305746107E+01  0.51100000000E-03 0. -1.
        -11    1    3    3    0    0  0.29655537423E+02  0.14185845819E+02  0.24679259488E+02  0.41106629278E+02  0.51100000000E-03 0.  1.
         12    1    3    3    0    0 -0.30622648396E+02 -0.17750913365E+02 -0.16542507452E+02  0.39070398934E+02  0.00000000000E+00 0. -1.
</event>
<event>
 7    1  0.1986957E-015  0.9000768E+02  0.7816164E-02  0.1186339E+00
        -11   -1    0    0    0    0  0.00000000000E+00  0.00000000000E+00  0.45593999997E+02  0.45594000000E+02  0.51100000000E-03 0. -1.
         11   -1    0    0    0    0 -0.00000000000E+00 -0.00000000000E+00 -0.45593999997E+02  0.45594000000E+02  0.51100000000E-03 0.  1.
    9900012    2    1    2    0    0  0.10612904195E+01  0.18360589286E+00  0.48280764394E+00  0.90007681526E+02  0.89999942122E+02 0.  0.
        -12    1    1    2    0    0 -0.10612904195E+01 -0.18360589286E+00 -0.48280764394E+00  0.11803184737E+01  0.00000000000E+00 0.  1.
         11    1    3    3    0    0 -0.60593139626E+00 -0.84893808685E+01 -0.51616790527E+01  0.99538771989E+01  0.51100000000E-03 0. -1.
        -11    1    3    3    0    0  0.30110937224E+02 -0.20865435931E+02 -0.66737431624E+01  0.37236726563E+02  0.51100000000E-03 0.  1.
         12    1    3    3    0    0 -0.28443715408E+02  0.29538422693E+02  0.12318229859E+02  0.42817077764E+02  0.00000000000E+00 0. -1.
</event>
<event>
 7    1  0.1756449E-015  0.9000782E+02  0.7816164E-02  0.1186339E+00
        -11   -1    0    0    0    0  0.00000000000E+00  0.00000000000E+00  0.45593999997E+02  0.45594000000E+02  0.51100000000E-03 0.  1.
         11   -1    0    0    0    0 -0.00000000000E+00 -0.00000000000E+00 -0.45593999997E+02  0.45594000000E+02  0.51100000000E-03 0. -1.
    9900012    2    1    2    0    0  0.44484956214E+00  0.10051612445E+01 -0.42962389024E+00  0.90007823341E+02  0.90000085809E+02 0.  0.
        -12    1    1    2    0    0 -0.44484956214E+00 -0.10051612445E+01  0.42962389024E+00  0.11801766594E+01  0.00000000000E+00 0.  1.
         11    1    3    3    0    0  0.14841407685E+02  0.30130968263E+02 -0.24023859205E+02  0.41295138235E+02  0.51100000000E-03 0. -1.
        -11    1    3    3    0    0 -0.14170738151E+02 -0.54790696662E+01 -0.16049384871E+00  0.15193939011E+02  0.51100000000E-03 0.  1.
        -12    1    3    3    0    0 -0.22581997174E+00 -0.23646737352E+02  0.23754729164E+02  0.33518746094E+02  0.00000000000E+00 0.  1.
</event>
<event>
 7    1  0.1756449E-015  0.9000739E+02  0.7816164E-02  0.1186340E+00
        -11   -1    0    0    0    0  0.00000000000E+00  0.00000000000E+00  0.45593999997E+02  0.45594000000E+02  0.51100000000E-03 0.  1.
         11   -1    0    0    0    0 -0.00000000000E+00 -0.00000000000E+00 -0.45593999997E+02  0.45594000000E+02  0.51100000000E-03 0. -1.
    9900012    2    1    2    0    0  0.15121745007E+00  0.85096731880E+00 -0.80425827728E+00  0.90007388518E+02  0.89999645246E+02 0.  0.
        -12    1    1    2    0    0 -0.15121745007E+00 -0.85096731880E+00  0.80425827728E+00  0.11806114820E+01  0.00000000000E+00 0.  1.
         11    1    3    3    0    0 -0.45948269272E+01  0.69215249430E+00 -0.81808168894E+01  0.94083619619E+01  0.51100000000E-03 0. -1.
        -11    1    3    3    0    0 -0.12499789052E+02  0.12326080764E+02  0.38891206286E+02  0.42669695569E+02  0.51100000000E-03 0.  1.
         12    1    3    3    0    0  0.17245833429E+02 -0.12167265939E+02 -0.31514647674E+02  0.37929330987E+02  0.00000000000E+00 0. -1.
</event>
<event>
 7    1  0.1756449E-015  0.9000770E+02  0.7816164E-02  0.1186339E+00
        -11   -1    0    0    0    0  0.00000000000E+00  0.00000000000E+00  0.45593999997E+02  0.45594000000E+02  0.51100000000E-03 0.  1.
         11   -1    0    0    0    0 -0.00000000000E+00 -0.00000000000E+00 -0.45593999997E+02  0.45594000000E+02  0.51100000000E-03 0. -1.
    9900012    2    1    2    0    0 -0.59351834677E+00  0.56920885594E+00 -0.84666894226E+00  0.90007698747E+02  0.89999959571E+02 0.  0.
        -12    1    1    2    0    0  0.59351834677E+00 -0.56920885594E+00  0.84666894226E+00  0.11803012528E+01  0.00000000000E+00 0.  1.
         11    1    3    3    0    0  0.22901827076E+01 -0.78801126880E+01 -0.45242838357E+01  0.93707127422E+01  0.51100000000E-03 0. -1.
        -11    1    3    3    0    0  0.11330781227E+02 -0.33792016556E+02  0.53305125098E+01  0.36037499220E+02  0.51100000000E-03 0.  1.
         12    1    3    3    0    0 -0.14214482281E+02  0.42241338100E+02 -0.16528976163E+01  0.44599486785E+02  0.00000000000E+00 0. -1.
</event>
<event>
 7    1  0.1756449E-015  0.9000776E+02  0.7816164E-02  0.1186339E+00
        -11   -1    0    0    0    0  0.00000000000E+00  0.00000000000E+00  0.45593999997E+02  0.45594000000E+02  0.51100000000E-03 0.  1.
         11   -1    0    0    0    0 -0.00000000000E+00 -0.00000000000E+00 -0.45593999997E+02  0.45594000000E+02  0.51100000000E-03 0. -1.
    9900012    2    1    2    0    0 -0.22115414077E+00  0.71019646367E-01 -0.11571528417E+01  0.90007764581E+02  0.90000026274E+02 0.  0.
        -12    1    1    2    0    0  0.22115414077E+00 -0.71019646367E-01  0.11571528417E+01  0.11802354185E+01  0.00000000000E+00 0.  1.
         11    1    3    3    0    0 -0.62586050668E+01 -0.40951714075E+02  0.51306007321E+01  0.41743695179E+02  0.51100000000E-03 0. -1.
        -11    1    3    3    0    0  0.73067848118E+01  0.69490630483E+01  0.63314336876E+01  0.11906537462E+02  0.51100000000E-03 0.  1.
        -12    1    3    3    0    0 -0.12693338857E+01  0.34073670673E+02 -0.12619187261E+02  0.36357531940E+02  0.00000000000E+00 0.  1.
</event>
<event>
 7    1  0.1756449E-015  0.9000775E+02  0.7816164E-02  0.1186339E+00
        -11   -1    0    0    0    0  0.00000000000E+00  0.00000000000E+00  0.45593999997E+02  0.45594000000E+02  0.51100000000E-03 0.  1.
         11   -1    0    0    0    0 -0.00000000000E+00 -0.00000000000E+00 -0.45593999997E+02  0.45594000000E+02  0.51100000000E-03 0. -1.
    9900012    2    1    2    0    0  0.45280542674E+00 -0.10755015939E+01  0.17680314055E+00  0.90007747576E+02  0.90000009044E+02 0.  0.
        -12    1    1    2    0    0 -0.45280542674E+00  0.10755015939E+01 -0.17680314055E+00  0.11802524236E+01  0.00000000000E+00 0.  1.
         11    1    3    3    0    0 -0.16707745521E+01 -0.53377269770E+01  0.68958180577E+01  0.88789145638E+01  0.51100000000E-03 0. -1.
        -11    1    3    3    0    0  0.36500108826E+02 -0.16172471275E+02  0.27981566940E+01  0.40020450430E+02  0.51100000000E-03 0.  1.
         12    1    3    3    0    0 -0.34376528847E+02  0.20434696658E+02 -0.95171716112E+01  0.41108382583E+02  0.00000000000E+00 0. -1.
</event>
<event>
 7    1  0.1756449E-015  0.9000788E+02  0.7816164E-02  0.1186339E+00
        -11   -1    0    0    0    0  0.00000000000E+00  0.00000000000E+00  0.45593999997E+02  0.45594000000E+02  0.51100000000E-03 0.  1.
         11   -1    0    0    0    0 -0.00000000000E+00 -0.00000000000E+00 -0.45593999997E+02  0.45594000000E+02  0.51100000000E-03 0. -1.
    9900012    2    1    2    0    0 -0.41970209997E+00 -0.10619448268E+01 -0.29802236950E+00  0.90007875430E+02  0.90000138586E+02 0.  0.
        -12    1    1    2    0    0  0.41970209997E+00  0.10619448268E+01  0.29802236950E+00  0.11801245700E+01  0.00000000000E+00 0.  1.
         11    1    3    3    0    0 -0.23062999944E+01  0.30534063219E+00 -0.88710680986E+01  0.91710469433E+01  0.51100000000E-03 0. -1.
        -11    1    3    3    0    0  0.40163111715E+02 -0.25619248891E+01 -0.42103710908E+01  0.40464382199E+02  0.51100000000E-03 0.  1.
         12    1    3    3    0    0 -0.38276513821E+02  0.11946394301E+01  0.12783416820E+02  0.40372446287E+02  0.00000000000E+00 0. -1.
</event>
<event>
 7    1  0.1756449E-015  0.9000772E+02  0.7816164E-02  0.1186339E+00
        -11   -1    0    0    0    0  0.00000000000E+00  0.00000000000E+00  0.45593999997E+02  0.45594000000E+02  0.51100000000E-03 0. -1.
         11   -1    0    0    0    0 -0.00000000000E+00 -0.00000000000E+00 -0.45593999997E+02  0.45594000000E+02  0.51100000000E-03 0.  1.
    9900012    2    1    2    0    0 -0.68570397077E+00  0.39009984981E+00  0.87789320119E+00  0.90007718550E+02  0.89999979635E+02 0.  0.
        -12    1    1    2    0    0  0.68570397077E+00 -0.39009984981E+00 -0.87789320119E+00  0.11802814499E+01  0.00000000000E+00 0.  1.
         11    1    3    3    0    0  0.13588724357E+02  0.22088983757E+02  0.32047989657E+02  0.41226814992E+02  0.51100000000E-03 0. -1.
        -11    1    3    3    0    0  0.58033753685E+01 -0.31017292313E+00  0.22098442329E+00  0.58158582588E+01  0.51100000000E-03 0.  1.
        -12    1    3    3    0    0 -0.20077803696E+02 -0.21388710984E+02 -0.31391080879E+02  0.42965045299E+02  0.00000000000E+00 0.  1.
</event>
<event>
 7    1  0.1756449E-015  0.9000774E+02  0.7816164E-02  0.1186339E+00
        -11   -1    0    0    0    0  0.00000000000E+00  0.00000000000E+00  0.45593999997E+02  0.45594000000E+02  0.51100000000E-03 0.  1.
         11   -1    0    0    0    0 -0.00000000000E+00 -0.00000000000E+00 -0.45593999997E+02  0.45594000000E+02  0.51100000000E-03 0. -1.
    9900012    2    1    2    0    0 -0.63615692491E+00  0.38019194729E+00 -0.91857466552E+00  0.90007736908E+02  0.89999998235E+02 0.  0.
        -12    1    1    2    0    0  0.63615692491E+00 -0.38019194729E+00  0.91857466552E+00  0.11802630919E+01  0.00000000000E+00 0.  1.
         11    1    3    3    0    0  0.22474895550E+02 -0.81713670020E-01  0.34030937613E+02  0.40782745398E+02  0.51100000000E-03 0. -1.
        -11    1    3    3    0    0 -0.10468061622E+02 -0.28452159892E+01  0.10772947779E+01  0.10901198670E+02  0.51100000000E-03 0.  1.
        -12    1    3    3    0    0 -0.12642990853E+02  0.33071216065E+01 -0.36026807056E+02  0.38323792841E+02  0.00000000000E+00 0.  1.
</event>
<event>
 7    1  0.1756449E-015  0.9000768E+02  0.7816164E-02  0.1186339E+00
        -11   -1    0    0    0    0  0.00000000000E+00  0.00000000000E+00  0.45593999997E+02  0.45594000000E+02  0.51100000000E-03 0.  1.
         11   -1    0    0    0    0 -0.00000000000E+00 -0.00000000000E+00 -0.45593999997E+02  0.45594000000E+02  0.51100000000E-03 0. -1.
    9900012    2    1    2    0    0  0.88404551037E+00 -0.31024026343E+00 -0.71790010726E+00  0.90007675447E+02  0.89999935963E+02 0.  0.
        -12    1    1    2    0    0 -0.88404551037E+00  0.31024026343E+00  0.71790010726E+00  0.11803245526E+01  0.00000000000E+00 0.  1.
         11    1    3    3    0    0  0.20981586215E+01 -0.32092055217E+01  0.11052218608E+02  0.11698410409E+02  0.51100000000E-03 0. -1.
        -11    1    3    3    0    0 -0.27030299350E+02 -0.24777591596E+02  0.48222301275E+01  0.36984051048E+02  0.51100000000E-03 0.  1.
         12    1    3    3    0    0  0.25816186239E+02  0.27676556854E+02 -0.16592348843E+02  0.41325213990E+02  0.00000000000E+00 0. -1.
</event>
<event>
 7    1  0.1756449E-015  0.9000776E+02  0.7816164E-02  0.1186339E+00
        -11   -1    0    0    0    0  0.00000000000E+00  0.00000000000E+00  0.45593999997E+02  0.45594000000E+02  0.51100000000E-03 0.  1.
         11   -1    0    0    0    0 -0.00000000000E+00 -0.00000000000E+00 -0.45593999997E+02  0.45594000000E+02  0.51100000000E-03 0. -1.
    9900012    2    1    2    0    0  0.18705406070E+00  0.90781870419E+00 -0.73064107907E+00  0.90007762563E+02  0.90000024229E+02 0.  0.
        -12    1    1    2    0    0 -0.18705406070E+00 -0.90781870419E+00  0.73064107907E+00  0.11802374370E+01  0.00000000000E+00 0.  1.
         11    1    3    3    0    0  0.39678692075E+02 -0.64222084976E+01  0.27548045115E+01  0.40289357341E+02  0.51100000000E-03 0. -1.
        -11    1    3    3    0    0 -0.33419936564E+01 -0.88716517903E+01  0.21063094651E+01  0.97114194077E+01  0.51100000000E-03 0.  1.
        -12    1    3    3    0    0 -0.36149644358E+02  0.16201678992E+02 -0.55917550556E+01  0.40006985815E+02  0.00000000000E+00 0.  1.
</event>
<event>
 7    1  0.1756449E-015  0.9000790E+02  0.7816164E-02  0.1186339E+00
        -11   -1    0    0    0    0  0.00000000000E+00  0.00000000000E+00  0.45593999997E+02  0.45594000000E+02  0.51100000000E-03 0.  1.
         11   -1    0    0    0    0 -0.00000000000E+00 -0.00000000000E+00 -0.45593999997E+02  0.45594000000E+02  0.51100000000E-03 0. -1.
    9900012    2    1    2    0    0 -0.83849329164E+00  0.62115208241E+00 -0.55111447682E+00  0.90007903362E+02  0.90000166886E+02 0.  0.
        -12    1    1    2    0    0  0.83849329164E+00 -0.62115208241E+00  0.55111447682E+00  0.11800966385E+01  0.00000000000E+00 0.  1.
         11    1    3    3    0    0  0.11810225729E+01 -0.38728973480E+01  0.60151107577E+01  0.72509106927E+01  0.51100000000E-03 0. -1.
        -11    1    3    3    0    0 -0.35211426624E+02 -0.15046204358E+01  0.19363363338E+02  0.40212538934E+02  0.51100000000E-03 0.  1.
         12    1    3    3    0    0  0.33191910759E+02  0.59986698662E+01 -0.25929588572E+02  0.42544453734E+02  0.00000000000E+00 0. -1.
</event>
<event>
 7    1  0.1756449E-015  0.9000825E+02  0.7816164E-02  0.1186338E+00
        -11   -1    0    0    0    0  0.00000000000E+00  0.00000000000E+00  0.45593999997E+02  0.45594000000E+02  0.51100000000E-03 0.  1.
         11   -1    0    0    0    0 -0.00000000000E+00 -0.00000000000E+00 -0.45593999997E+02  0.45594000000E+02  0.51100000000E-03 0. -1.
    9900012    2    1    2    0    0  0.21457870088E+00  0.10607133732E+01  0.46973586542E+00  0.90008250593E+02  0.90000518700E+02 0.  0.
        -12    1    1    2    0    0 -0.21457870088E+00 -0.10607133732E+01 -0.46973586542E+00  0.11797494065E+01  0.00000000000E+00 0.  1.
         11    1    3    3    0    0  0.15190852160E+01 -0.36051919333E+02 -0.90311476816E+01  0.37196910305E+02  0.51100000000E-03 0. -1.
        -11    1    3    3    0    0  0.80758583768E+01 -0.18975326232E+01 -0.55257229240E+01  0.99676342566E+01  0.51100000000E-03 0.  1.
        -12    1    3    3    0    0 -0.93803648919E+01  0.39010165330E+02  0.15026606471E+02  0.42843706032E+02  0.00000000000E+00 0.  1.
</event>
<event>
 7    1  0.1913851E-015  0.9000776E+02  0.7816164E-02  0.1186339E+00
        -11   -1    0    0    0    0  0.00000000000E+00  0.00000000000E+00  0.45593999997E+02  0.45594000000E+02  0.51100000000E-03 0.  1.
         11   -1    0    0    0    0 -0.00000000000E+00 -0.00000000000E+00 -0.45593999997E+02  0.45594000000E+02  0.51100000000E-03 0. -1.
    9900012    2    1    2    0    0  0.96216923368E+00  0.16321772617E+00 -0.66375074150E+00  0.90007756505E+02  0.90000018091E+02 0.  0.
        -12    1    1    2    0    0 -0.96216923368E+00 -0.16321772617E+00  0.66375074150E+00  0.11802434949E+01  0.00000000000E+00 0.  1.
         11    1    3    3    0    0 -0.53024033481E+01 -0.26982256479E+01  0.72046766044E+01  0.93436217897E+01  0.51100000000E-03 0. -1.
        -11    1    3    3    0    0 -0.19201568530E+02  0.20751242366E+02  0.23286707097E+02  0.36627653780E+02  0.51100000000E-03 0.  1.
         12    1    3    3    0    0  0.25466141111E+02 -0.17889798992E+02 -0.31155134443E+02  0.44036480936E+02  0.00000000000E+00 0. -1.
</event>
<event>
 7    1  0.1756449E-015  0.9000770E+02  0.7816164E-02  0.1186339E+00
        -11   -1    0    0    0    0  0.00000000000E+00  0.00000000000E+00  0.45593999997E+02  0.45594000000E+02  0.51100000000E-03 0. -1.
         11   -1    0    0    0    0 -0.00000000000E+00 -0.00000000000E+00 -0.45593999997E+02  0.45594000000E+02  0.51100000000E-03 0.  1.
    9900012    2    1    2    0    0 -0.34434891395E+00  0.72960522041E+00  0.86152107370E+00  0.90007695585E+02  0.89999956366E+02 0.  0.
        -12    1    1    2    0    0  0.34434891395E+00 -0.72960522041E+00 -0.86152107370E+00  0.11803044152E+01  0.00000000000E+00 0.  1.
         11    1    3    3    0    0 -0.29462709172E+02 -0.13241933385E+02 -0.17774805128E+02  0.36869278934E+02  0.51100000000E-03 0. -1.
        -11    1    3    3    0    0 -0.49345777370E+01 -0.78710469799E+01  0.40272346205E+01  0.10125317622E+02  0.51100000000E-03 0.  1.
        -12    1    3    3    0    0  0.34052937995E+02  0.21842585585E+02  0.14609091581E+02  0.43013099028E+02  0.00000000000E+00 0.  1.
</event>
<event>
 7    1  0.1756449E-015  0.9000769E+02  0.7816164E-02  0.1186339E+00
        -11   -1    0    0    0    0  0.00000000000E+00  0.00000000000E+00  0.45593999997E+02  0.45594000000E+02  0.51100000000E-03 0. -1.
         11   -1    0    0    0    0 -0.00000000000E+00 -0.00000000000E+00 -0.45593999997E+02  0.45594000000E+02  0.51100000000E-03 0.  1.
    9900012    2    1    2    0    0 -0.58100943306E+00  0.10150592001E+01 -0.15881758871E+00  0.90007686411E+02  0.89999947072E+02 0.  0.
        -12    1    1    2    0    0  0.58100943306E+00 -0.10150592001E+01  0.15881758871E+00  0.11803135886E+01  0.00000000000E+00 0.  1.
         11    1    3    3    0    0 -0.10087051327E+02 -0.17439211588E+02  0.25626479906E+02  0.32597410601E+02  0.51100000000E-03 0. -1.
        -11    1    3    3    0    0 -0.88703834335E+01 -0.11278465857E+02 -0.66050006898E+00  0.14363974205E+02  0.51100000000E-03 0.  1.
        -12    1    3    3    0    0  0.18376425327E+02  0.29732736646E+02 -0.25124797425E+02  0.43046301605E+02  0.00000000000E+00 0.  1.
</event>
<event>
 7    1  0.1756449E-015  0.9000770E+02  0.7816164E-02  0.1186339E+00
        -11   -1    0    0    0    0  0.00000000000E+00  0.00000000000E+00  0.45593999997E+02  0.45594000000E+02  0.51100000000E-03 0. -1.
         11   -1    0    0    0    0 -0.00000000000E+00 -0.00000000000E+00 -0.45593999997E+02  0.45594000000E+02  0.51100000000E-03 0.  1.
    9900012    2    1    2    0    0 -0.61720065996E+00  0.26131390445E+00 -0.97154014165E+00  0.90007698404E+02  0.89999959223E+02 0.  0.
        -12    1    1    2    0    0  0.61720065996E+00 -0.26131390445E+00  0.97154014165E+00  0.11803015963E+01  0.00000000000E+00 0.  1.
         11    1    3    3    0    0  0.92603961957E+01 -0.10298543003E+01 -0.10017155512E+01  0.93711777215E+01  0.51100000000E-03 0. -1.
        -11    1    3    3    0    0  0.15935612090E+02 -0.32476019946E+02 -0.87896783429E+01  0.37227597960E+02  0.51100000000E-03 0.  1.
         12    1    3    3    0    0 -0.25813208946E+02  0.33767188151E+02  0.88198537525E+01  0.43408922722E+02  0.00000000000E+00 0. -1.
</event>
<event>
 7    1  0.1756449E-015  0.9000777E+02  0.7816164E-02  0.1186339E+00
        -11   -1    0    0    0    0  0.00000000000E+00  0.00000000000E+00  0.45593999997E+02  0.45594000000E+02  0.51100000000E-03 0. -1.
         11   -1    0    0    0    0 -0.00000000000E+00 -0.00000000000E+00 -0.45593999997E+02  0.45594000000E+02  0.51100000000E-03 0.  1.
    9900012    2    1    2    0    0  0.10305760721E+01  0.57253721535E+00  0.55358189057E-01  0.90007766789E+02  0.90000028511E+02 0.  0.
        -12    1    1    2    0    0 -0.10305760721E+01 -0.57253721535E+00 -0.55358189057E-01  0.11802332110E+01  0.00000000000E+00 0.  1.
         11    1    3    3    0    0  0.61100911635E+01 -0.37566657581E+02 -0.17997300013E+02  0.42100947541E+02  0.51100000000E-03 0. -1.
        -11    1    3    3    0    0  0.50309827023E+01  0.28679285638E+01  0.79759149207E+01  0.98565217131E+01  0.51100000000E-03 0.  1.
        -12    1    3    3    0    0 -0.10110497794E+02  0.35271266233E+02  0.10076743281E+02  0.38050297535E+02  0.00000000000E+00 0.  1.
</event>
<event>
 7    1  0.1756449E-015  0.9000774E+02  0.7816164E-02  0.1186339E+00
        -11   -1    0    0    0    0  0.00000000000E+00  0.00000000000E+00  0.45593999997E+02  0.45594000000E+02  0.51100000000E-03 0. -1.
         11   -1    0    0    0    0 -0.00000000000E+00 -0.00000000000E+00 -0.45593999997E+02  0.45594000000E+02  0.51100000000E-03 0.  1.
    9900012    2    1    2    0    0  0.10184842527E+01  0.28728946520E+00  0.52264511742E+00  0.90007744380E+02  0.90000005806E+02 0.  0.
        -12    1    1    2    0    0 -0.10184842527E+01 -0.28728946520E+00 -0.52264511742E+00  0.11802556200E+01  0.00000000000E+00 0.  1.
         11    1    3    3    0    0  0.21219343941E+02  0.25249249286E+02  0.20167767997E+02  0.38659074136E+02  0.51100000000E-03 0. -1.
        -11    1    3    3    0    0  0.11441753031E+01  0.77352791295E+01 -0.64354589428E+01  0.10127132487E+02  0.51100000000E-03 0.  1.
        -12    1    3    3    0    0 -0.21345034992E+02 -0.32697238950E+02 -0.13209663937E+02  0.41221537757E+02  0.00000000000E+00 0.  1.
</event>
<event>
 7    1  0.1756449E-015  0.9000776E+02  0.7816164E-02  0.1186339E+00
        -11   -1    0    0    0    0  0.00000000000E+00  0.00000000000E+00  0.45593999997E+02  0.45594000000E+02  0.51100000000E-03 0. -1.
         11   -1    0    0    0    0 -0.00000000000E+00 -0.00000000000E+00 -0.45593999997E+02  0.45594000000E+02  0.51100000000E-03 0.  1.
    9900012    2    1    2    0    0  0.10330855270E+01 -0.56759762995E+00 -0.59462416310E-01  0.90007759112E+02  0.90000020732E+02 0.  0.
        -12    1    1    2    0    0 -0.10330855270E+01  0.56759762995E+00  0.59462416310E-01  0.11802408884E+01  0.00000000000E+00 0.  1.
         11    1    3    3    0    0  0.86791914822E+01  0.20133660064E+01 -0.30693263324E+01  0.94235222638E+01  0.51100000000E-03 0. -1.
        -11    1    3    3    0    0 -0.14039520066E+02 -0.18024851584E+02 -0.33431206389E+02  0.40492579063E+02  0.51100000000E-03 0.  1.
         12    1    3    3    0    0  0.63934141105E+01  0.15443887948E+02  0.36441070305E+02  0.40091657785E+02  0.00000000000E+00 0. -1.
</event>
<event>
 7    1  0.1756449E-015  0.9000774E+02  0.7816164E-02  0.1186339E+00
        -11   -1    0    0    0    0  0.00000000000E+00  0.00000000000E+00  0.45593999997E+02  0.45594000000E+02  0.51100000000E-03 0.  1.
         11   -1    0    0    0    0 -0.00000000000E+00 -0.00000000000E+00 -0.45593999997E+02  0.45594000000E+02  0.51100000000E-03 0. -1.
    9900012    2    1    2    0    0 -0.11740881320E+01  0.11029736017E+00 -0.48678241264E-01  0.90007738156E+02  0.89999999500E+02 0.  0.
        -12    1    1    2    0    0  0.11740881320E+01 -0.11029736017E+00  0.48678241264E-01  0.11802618440E+01  0.00000000000E+00 0.  1.
         11    1    3    3    0    0 -0.81139558684E+01  0.20538985094E+02 -0.12349207248E+02  0.25301958589E+02  0.51100000000E-03 0. -1.
        -11    1    3    3    0    0 -0.22440023026E+02  0.65005399117E+01  0.76392606393E+01  0.24579868916E+02  0.51100000000E-03 0.  1.
        -12    1    3    3    0    0  0.29379890762E+02 -0.26929227645E+02  0.46612683677E+01  0.40125910651E+02  0.00000000000E+00 0.  1.
</event>
<event>
 7    1  0.1756449E-015  0.9000873E+02  0.7816164E-02  0.1186337E+00
        -11   -1    0    0    0    0  0.00000000000E+00  0.00000000000E+00  0.45593999997E+02  0.45594000000E+02  0.51100000000E-03 0.  1.
         11   -1    0    0    0    0 -0.00000000000E+00 -0.00000000000E+00 -0.45593999997E+02  0.45594000000E+02  0.51100000000E-03 0. -1.
    9900012    2    1    2    0    0  0.42527934917E+00  0.10734237894E+01  0.23996979547E+00  0.90008726215E+02  0.90001000596E+02 0.  0.
        -12    1    1    2    0    0 -0.42527934917E+00 -0.10734237894E+01 -0.23996979547E+00  0.11792737847E+01  0.00000000000E+00 0.  1.
         11    1    3    3    0    0  0.71508470805E+01 -0.30700165915E+01 -0.94186613902E+01  0.12217642919E+02  0.51100000000E-03 0. -1.
        -11    1    3    3    0    0 -0.28034661882E+02 -0.24122900335E+02  0.18429629185E+02  0.41322001640E+02  0.51100000000E-03 0.  1.
         12    1    3    3    0    0  0.21309094151E+02  0.28266340715E+02 -0.87709979997E+01  0.36469081657E+02  0.00000000000E+00 0. -1.
</event>
<event>
 7    1  0.1756449E-015  0.9000774E+02  0.7816164E-02  0.1186339E+00
        -11   -1    0    0    0    0  0.00000000000E+00  0.00000000000E+00  0.45593999997E+02  0.45594000000E+02  0.51100000000E-03 0.  1.
         11   -1    0    0    0    0 -0.00000000000E+00 -0.00000000000E+00 -0.45593999997E+02  0.45594000000E+02  0.51100000000E-03 0. -1.
    9900012    2    1    2    0    0  0.19008972235E+00  0.29440799208E+00 -0.11270326439E+01  0.90007740389E+02  0.90000001762E+02 0.  0.
        -12    1    1    2    0    0 -0.19008972235E+00 -0.29440799208E+00  0.11270326439E+01  0.11802596107E+01  0.00000000000E+00 0.  1.
         11    1    3    3    0    0  0.13857270861E+02 -0.12965138251E+02 -0.31532282059E+02  0.36802222456E+02  0.51100000000E-03 0. -1.
        -11    1    3    3    0    0 -0.42889784257E+01 -0.78970295619E+01 -0.54651117274E+01  0.10517882786E+02  0.51100000000E-03 0.  1.
        -12    1    3    3    0    0 -0.93782027131E+01  0.21156575805E+02  0.35870361143E+02  0.42687635147E+02  0.00000000000E+00 0.  1.
</event>
<event>
 7    1  0.1756449E-015  0.9000799E+02  0.7816164E-02  0.1186339E+00
        -11   -1    0    0    0    0  0.00000000000E+00  0.00000000000E+00  0.45593999997E+02  0.45594000000E+02  0.51100000000E-03 0. -1.
         11   -1    0    0    0    0 -0.00000000000E+00 -0.00000000000E+00 -0.45593999997E+02  0.45594000000E+02  0.51100000000E-03 0.  1.
    9900012    2    1    2    0    0 -0.93430071138E+00  0.66876718113E+00 -0.26882149327E+00  0.90007986289E+02  0.90000250908E+02 0.  0.
        -12    1    1    2    0    0  0.93430071138E+00 -0.66876718113E+00  0.26882149327E+00  0.11800137106E+01  0.00000000000E+00 0.  1.
         11    1    3    3    0    0  0.21814288959E+02 -0.21536718624E+02  0.11484323811E+02  0.32735044609E+02  0.51100000000E-03 0. -1.
        -11    1    3    3    0    0 -0.60182948943E+00 -0.13716371395E+02 -0.45397909695E+01  0.14460661993E+02  0.51100000000E-03 0.  1.
        -12    1    3    3    0    0 -0.22146760181E+02  0.35921857200E+02 -0.72133543347E+01  0.42812279687E+02  0.00000000000E+00 0.  1.
</event>
<event>
 7    1  0.1756449E-015  0.9000778E+02  0.7816164E-02  0.1186339E+00
        -11   -1    0    0    0    0  0.00000000000E+00  0.00000000000E+00  0.45593999997E+02  0.45594000000E+02  0.51100000000E-03 0.  1.
         11   -1    0    0    0    0 -0.00000000000E+00 -0.00000000000E+00 -0.45593999997E+02  0.45594000000E+02  0.51100000000E-03 0. -1.
    9900012    2    1    2    0    0 -0.18494607049E-01  0.86331905348E+00 -0.80452714977E+00  0.90007777236E+02  0.90000039095E+02 0.  0.
        -12    1    1    2    0    0  0.18494607049E-01 -0.86331905348E+00  0.80452714977E+00  0.11802227643E+01  0.00000000000E+00 0.  1.
         11    1    3    3    0    0 -0.11026490746E+02 -0.18681358429E+02 -0.36623494824E+02  0.42565913878E+02  0.51100000000E-03 0. -1.
        -11    1    3    3    0    0  0.86203610090E+01  0.42296785390E+01  0.14128268606E+01  0.97055079448E+01  0.51100000000E-03 0.  1.
        -12    1    3    3    0    0  0.23876351301E+01  0.15314998944E+02  0.34406140813E+02  0.37736355413E+02  0.00000000000E+00 0.  1.
</event>
<event>
 7    1  0.1756449E-015  0.9000811E+02  0.7816164E-02  0.1186338E+00
        -11   -1    0    0    0    0  0.00000000000E+00  0.00000000000E+00  0.45593999997E+02  0.45594000000E+02  0.51100000000E-03 0.  1.
         11   -1    0    0    0    0 -0.00000000000E+00 -0.00000000000E+00 -0.45593999997E+02  0.45594000000E+02  0.51100000000E-03 0. -1.
    9900012    2    1    2    0    0  0.72635114390E+00  0.55834935992E+00 -0.74350771425E+00  0.90008108601E+02  0.90000374834E+02 0.  0.
        -12    1    1    2    0    0 -0.72635114390E+00 -0.55834935992E+00  0.74350771425E+00  0.11798913989E+01  0.00000000000E+00 0.  1.
         11    1    3    3    0    0 -0.30984399183E+00  0.88987565415E+01  0.72736780197E+01  0.11497402467E+02  0.51100000000E-03 0. -1.
        -11    1    3    3    0    0 -0.38789669264E+01  0.29711366225E+02  0.15268605879E+02  0.33629481012E+02  0.51100000000E-03 0.  1.
         12    1    3    3    0    0  0.49151620621E+01 -0.38051773407E+02 -0.23285791613E+02  0.44881225123E+02  0.00000000000E+00 0. -1.
</event>
<event>
 7    1  0.1756449E-015  0.9000783E+02  0.7816164E-02  0.1186339E+00
        -11   -1    0    0    0    0  0.00000000000E+00  0.00000000000E+00  0.45593999997E+02  0.45594000000E+02  0.51100000000E-03 0.  1.
         11   -1    0    0    0    0 -0.00000000000E+00 -0.00000000000E+00 -0.45593999997E+02  0.45594000000E+02  0.51100000000E-03 0. -1.
    9900012    2    1    2    0    0  0.11195757791E+01 -0.29461678841E+00  0.22922211106E+00  0.90007834015E+02  0.90000096623E+02 0.  0.
        -12    1    1    2    0    0 -0.11195757791E+01  0.29461678841E+00 -0.22922211106E+00  0.11801659855E+01  0.00000000000E+00 0.  1.
         11    1    3    3    0    0 -0.39228958845E+01 -0.19401711938E+02 -0.26243234551E+02  0.32871308130E+02  0.51100000000E-03 0. -1.
        -11    1    3    3    0    0 -0.15626885307E+02  0.32207964425E+01 -0.45727030201E+01  0.16597671141E+02  0.51100000000E-03 0.  1.
        -12    1    3    3    0    0  0.20669356971E+02  0.15886298707E+02  0.31045159682E+02  0.40538854743E+02  0.00000000000E+00 0.  1.
</event>
<event>
 7    1  0.1756449E-015  0.9000689E+02  0.7816164E-02  0.1186341E+00
        -11   -1    0    0    0    0  0.00000000000E+00  0.00000000000E+00  0.45593999997E+02  0.45594000000E+02  0.51100000000E-03 0.  1.
         11   -1    0    0    0    0 -0.00000000000E+00 -0.00000000000E+00 -0.45593999997E+02  0.45594000000E+02  0.51100000000E-03 0. -1.
    9900012    2    1    2    0    0 -0.69644075149E+00  0.18222320345E+00 -0.93637328977E+00  0.90006886138E+02  0.89999136231E+02 0.  0.
        -12    1    1    2    0    0  0.69644075149E+00 -0.18222320345E+00  0.93637328977E+00  0.11811138616E+01  0.00000000000E+00 0.  1.
         11    1    3    3    0    0  0.22433813344E+01 -0.79877622481E+01 -0.56195271875E+01  0.10020787974E+02  0.51100000000E-03 0. -1.
        -11    1    3    3    0    0 -0.36250192208E+02  0.92388110065E+01 -0.16081522097E+02  0.40719128394E+02  0.51100000000E-03 0.  1.
         12    1    3    3    0    0  0.33310370122E+02 -0.10688255550E+01  0.20764675995E+02  0.39266969770E+02  0.00000000000E+00 0. -1.
</event>
<event>
 7    1  0.1756449E-015  0.9000791E+02  0.7816164E-02  0.1186339E+00
        -11   -1    0    0    0    0  0.00000000000E+00  0.00000000000E+00  0.45593999997E+02  0.45594000000E+02  0.51100000000E-03 0. -1.
         11   -1    0    0    0    0 -0.00000000000E+00 -0.00000000000E+00 -0.45593999997E+02  0.45594000000E+02  0.51100000000E-03 0.  1.
    9900012    2    1    2    0    0  0.11426741652E+01  0.14474318219E+00 -0.25682702193E+00  0.90007908921E+02  0.90000172518E+02 0.  0.
        -12    1    1    2    0    0 -0.11426741652E+01 -0.14474318219E+00  0.25682702193E+00  0.11800910795E+01  0.00000000000E+00 0.  1.
         11    1    3    3    0    0 -0.10008669334E+02  0.22519981060E+02  0.34843094885E+02  0.42677444513E+02  0.51100000000E-03 0. -1.
        -11    1    3    3    0    0 -0.39565503400E+01 -0.76482934675E+01 -0.34142580189E+01  0.92632522172E+01  0.51100000000E-03 0.  1.
        -12    1    3    3    0    0  0.15107893839E+02 -0.14726944410E+02 -0.31685663888E+02  0.38067212190E+02  0.00000000000E+00 0.  1.
</event>
<event>
 7    1  0.1756449E-015  0.9000775E+02  0.7816164E-02  0.1186339E+00
        -11   -1    0    0    0    0  0.00000000000E+00  0.00000000000E+00  0.45593999997E+02  0.45594000000E+02  0.51100000000E-03 0. -1.
         11   -1    0    0    0    0 -0.00000000000E+00 -0.00000000000E+00 -0.45593999997E+02  0.45594000000E+02  0.51100000000E-03 0.  1.
    9900012    2    1    2    0    0 -0.25489797411E+00 -0.46069384674E+00  0.10563038459E+01  0.90007750191E+02  0.90000011693E+02 0.  0.
        -12    1    1    2    0    0  0.25489797411E+00  0.46069384674E+00 -0.10563038459E+01  0.11802498094E+01  0.00000000000E+00 0.  1.
         11    1    3    3    0    0 -0.31491161683E+01  0.61489201089E+01 -0.96114826787E+01  0.11836669747E+02  0.51100000000E-03 0. -1.
        -11    1    3    3    0    0 -0.26770552239E+01  0.78696876144E+00 -0.33209894855E+02  0.33326911964E+02  0.51100000000E-03 0.  1.
         12    1    3    3    0    0  0.55712734181E+01 -0.73965827170E+01  0.43877681380E+02  0.44844168480E+02  0.00000000000E+00 0. -1.
</event>
<event>
 7    1  0.1756449E-015  0.9000766E+02  0.7816164E-02  0.1186339E+00
        -11   -1    0    0    0    0  0.00000000000E+00  0.00000000000E+00  0.45593999997E+02  0.45594000000E+02  0.51100000000E-03 0.  1.
         11   -1    0    0    0    0 -0.00000000000E+00 -0.00000000000E+00 -0.45593999997E+02  0.45594000000E+02  0.51100000000E-03 0. -1.
    9900012    2    1    2    0    0  0.83484495509E-01 -0.54125031468E+00 -0.10455958841E+01  0.90007664320E+02  0.89999924689E+02 0.  0.
        -12    1    1    2    0    0 -0.83484495509E-01  0.54125031468E+00  0.10455958841E+01  0.11803356798E+01  0.00000000000E+00 0.  1.
         11    1    3    3    0    0 -0.21734650173E+02  0.89235468422E+01  0.91575438456E+01  0.25216766564E+02  0.51100000000E-03 0. -1.
        -11    1    3    3    0    0  0.43757530310E+01 -0.99382228670E+00  0.24570203564E+02  0.24976585050E+02  0.51100000000E-03 0.  1.
         12    1    3    3    0    0  0.17442381637E+02 -0.84709748702E+01 -0.34773343294E+02  0.39814312706E+02  0.00000000000E+00 0. -1.
</event>
<event>
 7    1  0.1756449E-015  0.9000780E+02  0.7816164E-02  0.1186339E+00
        -11   -1    0    0    0    0  0.00000000000E+00  0.00000000000E+00  0.45593999997E+02  0.45594000000E+02  0.51100000000E-03 0. -1.
         11   -1    0    0    0    0 -0.00000000000E+00 -0.00000000000E+00 -0.45593999997E+02  0.45594000000E+02  0.51100000000E-03 0.  1.
    9900012    2    1    2    0    0  0.33627166934E+00  0.46801385638E+00  0.10299273073E+01  0.90007802617E+02  0.90000064811E+02 0.  0.
        -12    1    1    2    0    0 -0.33627166934E+00 -0.46801385638E+00 -0.10299273073E+01  0.11801973834E+01  0.00000000000E+00 0.  1.
         11    1    3    3    0    0 -0.31314926577E+01 -0.83241457606E+01  0.86032343398E+01  0.12373895517E+02  0.51100000000E-03 0. -1.
        -11    1    3    3    0    0  0.64397102154E+01 -0.22301823442E+02 -0.30901054690E+02  0.38648627113E+02  0.51100000000E-03 0.  1.
         12    1    3    3    0    0 -0.29719458884E+01  0.31093983059E+02  0.23327747658E+02  0.38985279986E+02  0.00000000000E+00 0. -1.
</event>
<event>
 7    1  0.1756449E-015  0.9000774E+02  0.7816164E-02  0.1186339E+00
        -11   -1    0    0    0    0  0.00000000000E+00  0.00000000000E+00  0.45593999997E+02  0.45594000000E+02  0.51100000000E-03 0.  1.
         11   -1    0    0    0    0 -0.00000000000E+00 -0.00000000000E+00 -0.45593999997E+02  0.45594000000E+02  0.51100000000E-03 0. -1.
    9900012    2    1    2    0    0  0.94147355902E+00  0.67769680645E+00 -0.21765846950E+00  0.90007737049E+02  0.89999998378E+02 0.  0.
        -12    1    1    2    0    0 -0.94147355902E+00 -0.67769680645E+00  0.21765846950E+00  0.11802629509E+01  0.00000000000E+00 0.  1.
         11    1    3    3    0    0 -0.15683858998E+01  0.10326315182E+01  0.10654335466E+02  0.10818550119E+02  0.51100000000E-03 0. -1.
        -11    1    3    3    0    0  0.25947832621E+02  0.13532393011E+02  0.21915057101E+02  0.36560708505E+02  0.51100000000E-03 0.  1.
         12    1    3    3    0    0 -0.23437973163E+02 -0.13887327723E+02 -0.32787051037E+02  0.42628478426E+02  0.00000000000E+00 0. -1.
</event>
<event>
 7    1  0.1756449E-015  0.9000775E+02  0.7816164E-02  0.1186339E+00
        -11   -1    0    0    0    0  0.00000000000E+00  0.00000000000E+00  0.45593999997E+02  0.45594000000E+02  0.51100000000E-03 0. -1.
         11   -1    0    0    0    0 -0.00000000000E+00 -0.00000000000E+00 -0.45593999997E+02  0.45594000000E+02  0.51100000000E-03 0.  1.
    9900012    2    1    2    0    0 -0.99870722431E+00 -0.14380951965E+00 -0.61228472697E+00  0.90007750075E+02  0.90000011576E+02 0.  0.
        -12    1    1    2    0    0  0.99870722431E+00  0.14380951965E+00  0.61228472697E+00  0.11802499247E+01  0.00000000000E+00 0.  1.
         11    1    3    3    0    0 -0.23079717203E+01  0.68385269356E+01  0.57133192286E+01  0.92051181948E+01  0.51100000000E-03 0. -1.
        -11    1    3    3    0    0 -0.78007342654E+01  0.11256471199E+02 -0.39532041211E+02  0.41837087392E+02  0.51100000000E-03 0.  1.
         12    1    3    3    0    0  0.91099987614E+01 -0.18238807654E+02  0.33206437255E+02  0.38965544488E+02  0.00000000000E+00 0. -1.
</event>
<event>
 7    1  0.1756449E-015  0.9000773E+02  0.7816164E-02  0.1186339E+00
        -11   -1    0    0    0    0  0.00000000000E+00  0.00000000000E+00  0.45593999997E+02  0.45594000000E+02  0.51100000000E-03 0.  1.
         11   -1    0    0    0    0 -0.00000000000E+00 -0.00000000000E+00 -0.45593999997E+02  0.45594000000E+02  0.51100000000E-03 0. -1.
    9900012    2    1    2    0    0 -0.11508561722E+01 -0.23155354664E+00 -0.12223828250E+00  0.90007733432E+02  0.89999994713E+02 0.  0.
        -12    1    1    2    0    0  0.11508561722E+01  0.23155354664E+00  0.12223828250E+00  0.11802665681E+01  0.00000000000E+00 0.  1.
         11    1    3    3    0    0  0.28293691237E+01  0.72457768848E+01 -0.67316708947E+01  0.10286982337E+02  0.51100000000E-03 0. -1.
        -11    1    3    3    0    0 -0.10558362433E+02 -0.32932349265E+02 -0.21903654437E+02  0.40936398514E+02  0.51100000000E-03 0.  1.
         12    1    3    3    0    0  0.65781371369E+01  0.25455018833E+02  0.28513087049E+02  0.38784352581E+02  0.00000000000E+00 0. -1.
</event>
<event>
 7    1  0.1756449E-015  0.9000773E+02  0.7816164E-02  0.1186339E+00
        -11   -1    0    0    0    0  0.00000000000E+00  0.00000000000E+00  0.45593999997E+02  0.45594000000E+02  0.51100000000E-03 0. -1.
         11   -1    0    0    0    0 -0.00000000000E+00 -0.00000000000E+00 -0.45593999997E+02  0.45594000000E+02  0.51100000000E-03 0.  1.
    9900012    2    1    2    0    0  0.56253303327E+00 -0.78323782977E+00  0.68054188713E+00  0.90007727925E+02  0.89999989133E+02 0.  0.
        -12    1    1    2    0    0 -0.56253303327E+00  0.78323782977E+00 -0.68054188713E+00  0.11802720753E+01  0.00000000000E+00 0.  1.
         11    1    3    3    0    0 -0.30573205390E+02 -0.25634091959E+02  0.10823971052E+02  0.41339882776E+02  0.51100000000E-03 0. -1.
        -11    1    3    3    0    0 -0.29605294438E+01  0.96322406550E+01 -0.39286975415E+01  0.10815704288E+02  0.51100000000E-03 0.  1.
        -12    1    3    3    0    0  0.34096267867E+02  0.15218613474E+02 -0.62147316236E+01  0.37852140860E+02  0.00000000000E+00 0.  1.
</event>
<event>
 7    1  0.1756449E-015  0.9000775E+02  0.7816164E-02  0.1186339E+00
        -11   -1    0    0    0    0  0.00000000000E+00  0.00000000000E+00  0.45593999997E+02  0.45594000000E+02  0.51100000000E-03 0.  1.
         11   -1    0    0    0    0 -0.00000000000E+00 -0.00000000000E+00 -0.45593999997E+02  0.45594000000E+02  0.51100000000E-03 0. -1.
    9900012    2    1    2    0    0  0.79208838627E+00 -0.65450396221E+00  0.58068985571E+00  0.90007754196E+02  0.90000015752E+02 0.  0.
        -12    1    1    2    0    0 -0.79208838627E+00  0.65450396221E+00 -0.58068985571E+00  0.11802458035E+01  0.00000000000E+00 0.  1.
         11    1    3    3    0    0 -0.43006071176E+01  0.27334947307E+02 -0.24789695898E+02  0.37151360525E+02  0.51100000000E-03 0. -1.
        -11    1    3    3    0    0  0.62827302928E+01  0.76043583373E+01  0.14863865443E+01  0.99753852495E+01  0.51100000000E-03 0.  1.
        -12    1    3    3    0    0 -0.11900347890E+01 -0.35593809607E+02  0.23883999209E+02  0.42881008423E+02  0.00000000000E+00 0.  1.
</event>
<event>
 7    1  0.1756449E-015  0.9000773E+02  0.7816164E-02  0.1186339E+00
        -11   -1    0    0    0    0  0.00000000000E+00  0.00000000000E+00  0.45593999997E+02  0.45594000000E+02  0.51100000000E-03 0.  1.
         11   -1    0    0    0    0 -0.00000000000E+00 -0.00000000000E+00 -0.45593999997E+02  0.45594000000E+02  0.51100000000E-03 0. -1.
    9900012    2    1    2    0    0 -0.99962459909E+00  0.53623418753E-01 -0.62523220178E+00  0.90007728795E+02  0.89999990016E+02 0.  0.
        -12    1    1    2    0    0  0.99962459909E+00 -0.53623418753E-01  0.62523220178E+00  0.11802712045E+01  0.00000000000E+00 0.  1.
         11    1    3    3    0    0 -0.96579075927E+01 -0.27721104751E+01 -0.46999535521E+01  0.11092760667E+02  0.51100000000E-03 0. -1.
        -11    1    3    3    0    0  0.40240235817E+02 -0.71752669594E+01 -0.11278593351E+02  0.42402449255E+02  0.51100000000E-03 0.  1.
         12    1    3    3    0    0 -0.31581952824E+02  0.10001000853E+02  0.15353314701E+02  0.36512518874E+02  0.00000000000E+00 0. -1.
</event>
<event>
 7    1  0.1756449E-015  0.9000769E+02  0.7816164E-02  0.1186339E+00
        -11   -1    0    0    0    0  0.00000000000E+00  0.00000000000E+00  0.45593999997E+02  0.45594000000E+02  0.51100000000E-03 0. -1.
         11   -1    0    0    0    0 -0.00000000000E+00 -0.00000000000E+00 -0.45593999997E+02  0.45594000000E+02  0.51100000000E-03 0.  1.
    9900012    2    1    2    0    0  0.26347852868E+00  0.11127770105E+01 -0.29229754348E+00  0.90007690098E+02  0.89999950808E+02 0.  0.
        -12    1    1    2    0    0 -0.26347852868E+00 -0.11127770105E+01  0.29229754348E+00  0.11803099018E+01  0.00000000000E+00 0.  1.
         11    1    3    3    0    0  0.54950894764E+01  0.14925095498E+02 -0.85140374633E+01  0.18040047621E+02  0.51100000000E-03 0. -1.
        -11    1    3    3    0    0  0.26630619741E+02 -0.17948116152E+01  0.22628497839E+02  0.34992287311E+02  0.51100000000E-03 0.  1.
         12    1    3    3    0    0 -0.31862230689E+02 -0.12017506873E+02 -0.14406757919E+02  0.36975355166E+02  0.00000000000E+00 0. -1.
</event>
<event>
 7    1  0.1756449E-015  0.9000773E+02  0.7816164E-02  0.1186339E+00
        -11   -1    0    0    0    0  0.00000000000E+00  0.00000000000E+00  0.45593999997E+02  0.45594000000E+02  0.51100000000E-03 0.  1.
         11   -1    0    0    0    0 -0.00000000000E+00 -0.00000000000E+00 -0.45593999997E+02  0.45594000000E+02  0.51100000000E-03 0. -1.
    9900012    2    1    2    0    0 -0.24396930771E+00  0.11050054719E+01 -0.33536923555E+00  0.90007732810E+02  0.89999994083E+02 0.  0.
        -12    1    1    2    0    0  0.24396930771E+00 -0.11050054719E+01  0.33536923555E+00  0.11802671902E+01  0.00000000000E+00 0.  1.
         11    1    3    3    0    0  0.22906069473E+02  0.21870534995E+02 -0.23854509158E+02  0.39649034378E+02  0.51100000000E-03 0. -1.
        -11    1    3    3    0    0  0.79070065175E+01 -0.30328151494E+01  0.23036615544E+01  0.87764216294E+01  0.51100000000E-03 0.  1.
        -12    1    3    3    0    0 -0.31057045299E+02 -0.17732714374E+02  0.21215478368E+02  0.41582276803E+02  0.00000000000E+00 0.  1.
</event>
<event>
 7    1  0.1756449E-015  0.9000762E+02  0.7816164E-02  0.1186339E+00
        -11   -1    0    0    0    0  0.00000000000E+00  0.00000000000E+00  0.45593999997E+02  0.45594000000E+02  0.51100000000E-03 0. -1.
         11   -1    0    0    0    0 -0.00000000000E+00 -0.00000000000E+00 -0.45593999997E+02  0.45594000000E+02  0.51100000000E-03 0.  1.
    9900012    2    1    2    0    0 -0.11303160099E+01  0.19979456276E-02  0.34010389768E+00  0.90007623393E+02  0.89999883221E+02 0.  0.
        -12    1    1    2    0    0  0.11303160099E+01 -0.19979456276E-02 -0.34010389768E+00  0.11803766074E+01  0.00000000000E+00 0.  1.
         11    1    3    3    0    0 -0.28497430892E+00 -0.86439924376E+01 -0.30729623935E+01  0.91783938546E+01  0.51100000000E-03 0. -1.
        -11    1    3    3    0    0 -0.31527645307E+02 -0.13600095650E+02 -0.16414195218E+02  0.38057598784E+02  0.51100000000E-03 0.  1.
         12    1    3    3    0    0  0.30682303606E+02  0.22246086033E+02  0.19827261509E+02  0.42771630754E+02  0.00000000000E+00 0. -1.
</event>
<event>
 7    1  0.1756449E-015  0.9000772E+02  0.7816164E-02  0.1186339E+00
        -11   -1    0    0    0    0  0.00000000000E+00  0.00000000000E+00  0.45593999997E+02  0.45594000000E+02  0.51100000000E-03 0.  1.
         11   -1    0    0    0    0 -0.00000000000E+00 -0.00000000000E+00 -0.45593999997E+02  0.45594000000E+02  0.51100000000E-03 0. -1.
    9900012    2    1    2    0    0  0.91015205860E-01  0.50996914769E+00 -0.10605233916E+01  0.90007719456E+02  0.89999980552E+02 0.  0.
        -12    1    1    2    0    0 -0.91015205860E-01 -0.50996914769E+00  0.10605233916E+01  0.11802805444E+01  0.00000000000E+00 0.  1.
         11    1    3    3    0    0 -0.21102108092E+01 -0.59243010666E+01  0.88561746958E+01  0.10861959459E+02  0.51100000000E-03 0. -1.
        -11    1    3    3    0    0  0.57867155041E+01 -0.34751718270E+02  0.41559090117E+01  0.35474491949E+02  0.51100000000E-03 0.  1.
         12    1    3    3    0    0 -0.35854894891E+01  0.41185988485E+02 -0.14072607099E+02  0.43671268048E+02  0.00000000000E+00 0. -1.
</event>
<event>
 7    1  0.1756449E-015  0.9000777E+02  0.7816164E-02  0.1186339E+00
        -11   -1    0    0    0    0  0.00000000000E+00  0.00000000000E+00  0.45593999997E+02  0.45594000000E+02  0.51100000000E-03 0.  1.
         11   -1    0    0    0    0 -0.00000000000E+00 -0.00000000000E+00 -0.45593999997E+02  0.45594000000E+02  0.51100000000E-03 0. -1.
    9900012    2    1    2    0    0 -0.85691407841E-01  0.84784573164E+00  0.81655855892E+00  0.90007765582E+02  0.90000027287E+02 0.  0.
        -12    1    1    2    0    0  0.85691407841E-01 -0.84784573164E+00 -0.81655855892E+00  0.11802344183E+01  0.00000000000E+00 0.  1.
         11    1    3    3    0    0  0.11728355330E+02 -0.71908404773E+01 -0.32967914692E+02  0.35723184417E+02  0.51100000000E-03 0. -1.
        -11    1    3    3    0    0  0.93044626416E+01 -0.68257575218E+01 -0.27295400598E+00  0.11542898031E+02  0.51100000000E-03 0.  1.
        -12    1    3    3    0    0 -0.21118509379E+02  0.14864443731E+02  0.34057427256E+02  0.42741683134E+02  0.00000000000E+00 0.  1.
</event>
<event>
 7    1  0.1756449E-015  0.9000772E+02  0.7816164E-02  0.1186339E+00
        -11   -1    0    0    0    0  0.00000000000E+00  0.00000000000E+00  0.45593999997E+02  0.45594000000E+02  0.51100000000E-03 0.  1.
         11   -1    0    0    0    0 -0.00000000000E+00 -0.00000000000E+00 -0.45593999997E+02  0.45594000000E+02  0.51100000000E-03 0. -1.
    9900012    2    1    2    0    0 -0.41768498811E+00  0.16893785830E+00 -0.10909027513E+01  0.90007716321E+02  0.89999977377E+02 0.  0.
        -12    1    1    2    0    0  0.41768498811E+00 -0.16893785830E+00  0.10909027513E+01  0.11802836786E+01  0.00000000000E+00 0.  1.
         11    1    3    3    0    0  0.20846104965E+02 -0.15182392324E+01  0.32033348241E+01  0.21145365848E+02  0.51100000000E-03 0. -1.
        -11    1    3    3    0    0  0.14098304057E+02  0.22991184409E+02 -0.56560446617E+01  0.27556262070E+02  0.51100000000E-03 0.  1.
        -12    1    3    3    0    0 -0.35362094011E+02 -0.21304007318E+02  0.13618070863E+01  0.41306088403E+02  0.00000000000E+00 0.  1.
</event>
<event>
 7    1  0.1756449E-015  0.9000807E+02  0.7816164E-02  0.1186338E+00
        -11   -1    0    0    0    0  0.00000000000E+00  0.00000000000E+00  0.45593999997E+02  0.45594000000E+02  0.51100000000E-03 0.  1.
         11   -1    0    0    0    0 -0.00000000000E+00 -0.00000000000E+00 -0.45593999997E+02  0.45594000000E+02  0.51100000000E-03 0. -1.
    9900012    2    1    2    0    0  0.42531585000E-01  0.11569882717E+01 -0.22760275187E+00  0.90008070422E+02  0.90000336151E+02 0.  0.
        -12    1    1    2    0    0 -0.42531585000E-01 -0.11569882717E+01  0.22760275187E+00  0.11799295781E+01  0.00000000000E+00 0.  1.
         11    1    3    3    0    0  0.26751310850E+01 -0.67452296956E+01 -0.78442729413E+01  0.10685834933E+02  0.51100000000E-03 0. -1.
        -11    1    3    3    0    0  0.15415274420E+02 -0.31604799467E+02  0.71613841433E+01  0.35885644175E+02  0.51100000000E-03 0.  1.
         12    1    3    3    0    0 -0.18047873920E+02  0.39507017434E+02  0.45528604611E+00  0.43436591314E+02  0.00000000000E+00 0. -1.
</event>
<event>
 7    1  0.1756449E-015  0.9000780E+02  0.7816164E-02  0.1186339E+00
        -11   -1    0    0    0    0  0.00000000000E+00  0.00000000000E+00  0.45593999997E+02  0.45594000000E+02  0.51100000000E-03 0.  1.
         11   -1    0    0    0    0 -0.00000000000E+00 -0.00000000000E+00 -0.45593999997E+02  0.45594000000E+02  0.51100000000E-03 0. -1.
    9900012    2    1    2    0    0  0.47185366703E+00 -0.85725148230E+00 -0.65981439195E+00  0.90007796196E+02  0.90000058306E+02 0.  0.
        -12    1    1    2    0    0 -0.47185366703E+00  0.85725148230E+00  0.65981439195E+00  0.11802038039E+01  0.00000000000E+00 0.  1.
         11    1    3    3    0    0  0.12491231413E+02  0.45277052110E+01 -0.21536940873E+02  0.25305548781E+02  0.51100000000E-03 0. -1.
        -11    1    3    3    0    0 -0.90758694111E+01  0.25842443549E+02  0.18892778385E+02  0.33273718901E+02  0.51100000000E-03 0.  1.
        -12    1    3    3    0    0 -0.29435083353E+01 -0.31227400242E+02  0.19843480952E+01  0.31428528514E+02  0.00000000000E+00 0.  1.
</event>
<event>
 7    1  0.1756449E-015  0.9000757E+02  0.7816164E-02  0.1186339E+00
        -11   -1    0    0    0    0  0.00000000000E+00  0.00000000000E+00  0.45593999997E+02  0.45594000000E+02  0.51100000000E-03 0. -1.
         11   -1    0    0    0    0 -0.00000000000E+00 -0.00000000000E+00 -0.45593999997E+02  0.45594000000E+02  0.51100000000E-03 0.  1.
    9900012    2    1    2    0    0  0.71239614755E+00  0.44657566357E+00  0.82853886115E+00  0.90007570104E+02  0.89999829229E+02 0.  0.
        -12    1    1    2    0    0 -0.71239614755E+00 -0.44657566357E+00 -0.82853886115E+00  0.11804298957E+01  0.00000000000E+00 0.  1.
         11    1    3    3    0    0  0.18730296892E+02 -0.37616110341E+02  0.10262866524E+02  0.43256470133E+02  0.51100000000E-03 0. -1.
        -11    1    3    3    0    0  0.32439967210E+01  0.10429171937E+02 -0.23561740618E+01  0.11173302935E+02  0.51100000000E-03 0.  1.
        -12    1    3    3    0    0 -0.21261897465E+02  0.27633514067E+02 -0.70781536013E+01  0.35577797036E+02  0.00000000000E+00 0.  1.
</event>
<event>
 7    1  0.1756449E-015  0.9000691E+02  0.7816164E-02  0.1186341E+00
        -11   -1    0    0    0    0  0.00000000000E+00  0.00000000000E+00  0.45593999997E+02  0.45594000000E+02  0.51100000000E-03 0. -1.
         11   -1    0    0    0    0 -0.00000000000E+00 -0.00000000000E+00 -0.45593999997E+02  0.45594000000E+02  0.51100000000E-03 0.  1.
    9900012    2    1    2    0    0  0.66221769806E+00 -0.96767529310E+00 -0.14156878964E+00  0.90006911741E+02  0.89999162172E+02 0.  0.
        -12    1    1    2    0    0 -0.66221769806E+00  0.96767529310E+00  0.14156878964E+00  0.11810882586E+01  0.00000000000E+00 0.  1.
         11    1    3    3    0    0 -0.79747894811E+01 -0.30760117234E+01 -0.45052077155E+01  0.96620915029E+01  0.51100000000E-03 0. -1.
        -11    1    3    3    0    0  0.24242862485E+02 -0.20768283838E+02 -0.24578512696E+02  0.40288227582E+02  0.51100000000E-03 0.  1.
         12    1    3    3    0    0 -0.15605855306E+02  0.22876620269E+02  0.28942151622E+02  0.40056592657E+02  0.00000000000E+00 0. -1.
</event>
<event>
 7    1  0.1756449E-015  0.9000790E+02  0.7816164E-02  0.1186339E+00
        -11   -1    0    0    0    0  0.00000000000E+00  0.00000000000E+00  0.45593999997E+02  0.45594000000E+02  0.51100000000E-03 0. -1.
         11   -1    0    0    0    0 -0.00000000000E+00 -0.00000000000E+00 -0.45593999997E+02  0.45594000000E+02  0.51100000000E-03 0.  1.
    9900012    2    1    2    0    0 -0.97239409566E+00 -0.34185333610E+00 -0.57465204366E+00  0.90007898754E+02  0.90000162217E+02 0.  0.
        -12    1    1    2    0    0  0.97239409566E+00  0.34185333610E+00  0.57465204366E+00  0.11801012465E+01  0.00000000000E+00 0.  1.
         11    1    3    3    0    0  0.11872201419E+02 -0.30256307426E+02  0.77782591775E+01  0.33419973395E+02  0.51100000000E-03 0. -1.
        -11    1    3    3    0    0  0.99580238907E+01 -0.62401125012E+01  0.34426570386E+01  0.12245535169E+02  0.51100000000E-03 0.  1.
        -12    1    3    3    0    0 -0.22802619406E+02  0.36154566591E+02 -0.11795568260E+02  0.44342390190E+02  0.00000000000E+00 0.  1.
</event>
<event>
 7    1  0.1756449E-015  0.9000772E+02  0.7816164E-02  0.1186339E+00
        -11   -1    0    0    0    0  0.00000000000E+00  0.00000000000E+00  0.45593999997E+02  0.45594000000E+02  0.51100000000E-03 0.  1.
         11   -1    0    0    0    0 -0.00000000000E+00 -0.00000000000E+00 -0.45593999997E+02  0.45594000000E+02  0.51100000000E-03 0. -1.
    9900012    2    1    2    0    0  0.20233211637E+00 -0.29579281783E+00 -0.11245550324E+01  0.90007722195E+02  0.89999983328E+02 0.  0.
        -12    1    1    2    0    0 -0.20233211637E+00  0.29579281783E+00  0.11245550324E+01  0.11802778051E+01  0.00000000000E+00 0.  1.
         11    1    3    3    0    0 -0.75098043616E+01  0.37904579153E+01 -0.79510791286E+00  0.84496703847E+01  0.51100000000E-03 0. -1.
        -11    1    3    3    0    0 -0.25335178944E+02 -0.33359271461E+01  0.28083323060E+02  0.37969365763E+02  0.51100000000E-03 0.  1.
         12    1    3    3    0    0  0.33047315422E+02 -0.75032358696E+00 -0.28412770180E+02  0.43588686048E+02  0.00000000000E+00 0. -1.
</event>
<event>
 7    1  0.1756449E-015  0.9000781E+02  0.7816164E-02  0.1186339E+00
        -11   -1    0    0    0    0  0.00000000000E+00  0.00000000000E+00  0.45593999997E+02  0.45594000000E+02  0.51100000000E-03 0.  1.
         11   -1    0    0    0    0 -0.00000000000E+00 -0.00000000000E+00 -0.45593999997E+02  0.45594000000E+02  0.51100000000E-03 0. -1.
    9900012    2    1    2    0    0  0.28138672044E+00 -0.88276333065E+00 -0.73102244737E+00  0.90007812132E+02  0.90000074452E+02 0.  0.
        -12    1    1    2    0    0 -0.28138672044E+00  0.88276333065E+00  0.73102244737E+00  0.11801878676E+01  0.00000000000E+00 0.  1.
         11    1    3    3    0    0  0.17371547028E+02 -0.32629846625E+02 -0.18152882386E+02  0.41182577336E+02  0.51100000000E-03 0. -1.
        -11    1    3    3    0    0  0.62892709729E+00 -0.48809808213E+01  0.17777324040E+01  0.52325764048E+01  0.51100000000E-03 0.  1.
        -12    1    3    3    0    0 -0.17719087405E+02  0.36628064115E+02  0.15644127535E+02  0.43592658391E+02  0.00000000000E+00 0.  1.
</event>
<event>
 7    1  0.1756449E-015  0.9000766E+02  0.7816164E-02  0.1186339E+00
        -11   -1    0    0    0    0  0.00000000000E+00  0.00000000000E+00  0.45593999997E+02  0.45594000000E+02  0.51100000000E-03 0.  1.
         11   -1    0    0    0    0 -0.00000000000E+00 -0.00000000000E+00 -0.45593999997E+02  0.45594000000E+02  0.51100000000E-03 0. -1.
    9900012    2    1    2    0    0  0.77398657351E+00  0.88197282092E+00 -0.12754446931E+00  0.90007661547E+02  0.89999921879E+02 0.  0.
        -12    1    1    2    0    0 -0.77398657351E+00 -0.88197282092E+00  0.12754446931E+00  0.11803384534E+01  0.00000000000E+00 0.  1.
         11    1    3    3    0    0 -0.25979273631E+02 -0.26562615470E+01 -0.15578301542E+02  0.30408253205E+02  0.51100000000E-03 0. -1.
        -11    1    3    3    0    0 -0.98706071999E+01 -0.12100040529E+02 -0.26795281757E+01  0.15843602457E+02  0.51100000000E-03 0.  1.
        -12    1    3    3    0    0  0.36623867404E+02  0.15638274897E+02  0.18130285249E+02  0.43755805885E+02  0.00000000000E+00 0.  1.
</event>
<event>
 7    1  0.1756449E-015  0.9000778E+02  0.7816164E-02  0.1186339E+00
        -11   -1    0    0    0    0  0.00000000000E+00  0.00000000000E+00  0.45593999997E+02  0.45594000000E+02  0.51100000000E-03 0. -1.
         11   -1    0    0    0    0 -0.00000000000E+00 -0.00000000000E+00 -0.45593999997E+02  0.45594000000E+02  0.51100000000E-03 0.  1.
    9900012    2    1    2    0    0 -0.37543243500E+00  0.11184067881E+01 -0.33797274480E-01  0.90007777346E+02  0.90000039207E+02 0.  0.
        -12    1    1    2    0    0  0.37543243500E+00 -0.11184067881E+01  0.33797274479E-01  0.11802226539E+01  0.00000000000E+00 0.  1.
         11    1    3    3    0    0  0.11346449108E+02  0.24324962203E+02  0.28690090120E+02  0.39288254796E+02  0.51100000000E-03 0. -1.
        -11    1    3    3    0    0  0.71695981722E+01  0.43508321217E+01 -0.60632963771E+01  0.10348741050E+02  0.51100000000E-03 0.  1.
        -12    1    3    3    0    0 -0.18891479715E+02 -0.27557387537E+02 -0.22660591017E+02  0.40370781500E+02  0.00000000000E+00 0.  1.
</event>
<event>
 7    1  0.1756449E-015  0.9000769E+02  0.7816164E-02  0.1186339E+00
        -11   -1    0    0    0    0  0.00000000000E+00  0.00000000000E+00  0.45593999997E+02  0.45594000000E+02  0.51100000000E-03 0. -1.
         11   -1    0    0    0    0 -0.00000000000E+00 -0.00000000000E+00 -0.45593999997E+02  0.45594000000E+02  0.51100000000E-03 0.  1.
    9900012    2    1    2    0    0 -0.75580717378E-01 -0.77686671415E+00  0.88537912679E+00  0.90007690492E+02  0.89999951207E+02 0.  0.
        -12    1    1    2    0    0  0.75580717378E-01  0.77686671415E+00 -0.88537912679E+00  0.11803095079E+01  0.00000000000E+00 0.  1.
         11    1    3    3    0    0 -0.36513177922E+02 -0.27443373947E+01 -0.15212295220E+02  0.39650441055E+02  0.51100000000E-03 0. -1.
        -11    1    3    3    0    0  0.17423616267E+01  0.65607324915E+01 -0.59221396356E+01  0.90083723829E+01  0.51100000000E-03 0.  1.
        -12    1    3    3    0    0  0.34695235578E+02 -0.45932618110E+01  0.22019813982E+02  0.41348877055E+02  0.00000000000E+00 0.  1.
</event>
<event>
 7    1  0.1756449E-015  0.9000771E+02  0.7816164E-02  0.1186339E+00
        -11   -1    0    0    0    0  0.00000000000E+00  0.00000000000E+00  0.45593999997E+02  0.45594000000E+02  0.51100000000E-03 0.  1.
         11   -1    0    0    0    0 -0.00000000000E+00 -0.00000000000E+00 -0.45593999997E+02  0.45594000000E+02  0.51100000000E-03 0. -1.
    9900012    2    1    2    0    0  0.66514979932E+00 -0.41867263206E-01  0.97412266708E+00  0.90007706776E+02  0.89999967706E+02 0.  0.
        -12    1    1    2    0    0 -0.66514979932E+00  0.41867263206E-01 -0.97412266708E+00  0.11802932236E+01  0.00000000000E+00 0.  1.
         11    1    3    3    0    0 -0.37082397949E+01  0.38096469565E+01 -0.69363663114E+01  0.87394296254E+01  0.51100000000E-03 0. -1.
        -11    1    3    3    0    0  0.30421589282E+02  0.33067201725E-01  0.33007848898E+02  0.44888665351E+02  0.51100000000E-03 0.  1.
         12    1    3    3    0    0 -0.26048199688E+02 -0.38845814214E+01 -0.25097359919E+02  0.36379611800E+02  0.00000000000E+00 0. -1.
</event>
<event>
 7    1  0.1913261E-015  0.9000770E+02  0.7816164E-02  0.1186339E+00
        -11   -1    0    0    0    0  0.00000000000E+00  0.00000000000E+00  0.45593999997E+02  0.45594000000E+02  0.51100000000E-03 0. -1.
         11   -1    0    0    0    0 -0.00000000000E+00 -0.00000000000E+00 -0.45593999997E+02  0.45594000000E+02  0.51100000000E-03 0.  1.
    9900012    2    1    2    0    0 -0.88346294864E+00 -0.70243708201E+00  0.34521757357E+00  0.90007703508E+02  0.89999964394E+02 0.  0.
        -12    1    1    2    0    0  0.88346294864E+00  0.70243708201E+00 -0.34521757357E+00  0.11802964919E+01  0.00000000000E+00 0.  1.
         11    1    3    3    0    0  0.57706098499E+01  0.32542133889E+01 -0.68963196471E+01  0.95629005933E+01  0.51100000000E-03 0. -1.
        -11    1    3    3    0    0  0.10953758310E+02 -0.34870607504E+01 -0.33843851394E+02  0.35742841118E+02  0.51100000000E-03 0.  1.
         12    1    3    3    0    0 -0.17607831108E+02 -0.46958972057E+00  0.41085388614E+02  0.44701961796E+02  0.00000000000E+00 0. -1.
</event>
<event>
 7    1  0.1756449E-015  0.9000775E+02  0.7816164E-02  0.1186339E+00
        -11   -1    0    0    0    0  0.00000000000E+00  0.00000000000E+00  0.45593999997E+02  0.45594000000E+02  0.51100000000E-03 0.  1.
         11   -1    0    0    0    0 -0.00000000000E+00 -0.00000000000E+00 -0.45593999997E+02  0.45594000000E+02  0.51100000000E-03 0. -1.
    9900012    2    1    2    0    0 -0.63292564113E-01  0.54535848564E+00 -0.10447860013E+01  0.90007745953E+02  0.90000007400E+02 0.  0.
        -12    1    1    2    0    0  0.63292564113E-01 -0.54535848564E+00  0.10447860013E+01  0.11802540468E+01  0.00000000000E+00 0.  1.
         11    1    3    3    0    0 -0.66539971253E+01 -0.69076609503E+01 -0.53265363046E+01  0.10971027610E+02  0.51100000000E-03 0. -1.
        -11    1    3    3    0    0 -0.35422100002E+02  0.63628412713E+01 -0.39699852801E+01  0.36207343192E+02  0.51100000000E-03 0.  1.
         12    1    3    3    0    0  0.42012804564E+02  0.10901781646E+01  0.82517355834E+01  0.42829375152E+02  0.00000000000E+00 0. -1.
</event>
<event>
 7    1  0.1756449E-015  0.9000764E+02  0.7816164E-02  0.1186339E+00
        -11   -1    0    0    0    0  0.00000000000E+00  0.00000000000E+00  0.45593999997E+02  0.45594000000E+02  0.51100000000E-03 0. -1.
         11   -1    0    0    0    0 -0.00000000000E+00 -0.00000000000E+00 -0.45593999997E+02  0.45594000000E+02  0.51100000000E-03 0.  1.
    9900012    2    1    2    0    0 -0.73051179421E+00  0.81578001348E+00 -0.44056368404E+00  0.90007643752E+02  0.89999903850E+02 0.  0.
        -12    1    1    2    0    0  0.73051179421E+00 -0.81578001348E+00  0.44056368404E+00  0.11803562477E+01  0.00000000000E+00 0.  1.
         11    1    3    3    0    0  0.26460139106E+02 -0.27906436219E+02 -0.14655069239E+02  0.41154333898E+02  0.51100000000E-03 0. -1.
        -11    1    3    3    0    0 -0.75017675866E+01 -0.30773744847E+01  0.71077058312E+01  0.10782682091E+02  0.51100000000E-03 0.  1.
        -12    1    3    3    0    0 -0.19688883314E+02  0.31799590717E+02  0.71067997235E+01  0.38070627762E+02  0.00000000000E+00 0.  1.
</event>
<event>
 7    1  0.1756449E-015  0.9000793E+02  0.7816164E-02  0.1186339E+00
        -11   -1    0    0    0    0  0.00000000000E+00  0.00000000000E+00  0.45593999997E+02  0.45594000000E+02  0.51100000000E-03 0. -1.
         11   -1    0    0    0    0 -0.00000000000E+00 -0.00000000000E+00 -0.45593999997E+02  0.45594000000E+02  0.51100000000E-03 0.  1.
    9900012    2    1    2    0    0  0.41324525789E+00 -0.10482535199E+01  0.35066734447E+00  0.90007925989E+02  0.90000189812E+02 0.  0.
        -12    1    1    2    0    0 -0.41324525789E+00  0.10482535199E+01 -0.35066734447E+00  0.11800740110E+01  0.00000000000E+00 0.  1.
         11    1    3    3    0    0  0.10118058598E+02 -0.67099338701E+01  0.39986111965E+02  0.41788604579E+02  0.51100000000E-03 0. -1.
        -11    1    3    3    0    0  0.61587926616E+01  0.57490710519E+01 -0.42409087463E+01  0.94322771516E+01  0.51100000000E-03 0.  1.
        -12    1    3    3    0    0 -0.15863606002E+02 -0.87390701624E-01 -0.35394535874E+02  0.38787044258E+02  0.00000000000E+00 0.  1.
</event>
<event>
 7    1  0.1756449E-015  0.9000772E+02  0.7816164E-02  0.1186339E+00
        -11   -1    0    0    0    0  0.00000000000E+00  0.00000000000E+00  0.45593999997E+02  0.45594000000E+02  0.51100000000E-03 0.  1.
         11   -1    0    0    0    0 -0.00000000000E+00 -0.00000000000E+00 -0.45593999997E+02  0.45594000000E+02  0.51100000000E-03 0. -1.
    9900012    2    1    2    0    0  0.51138512894E+00 -0.80954622388E+00 -0.69005592315E+00  0.90007721636E+02  0.89999982762E+02 0.  0.
        -12    1    1    2    0    0 -0.51138512894E+00  0.80954622388E+00  0.69005592315E+00  0.11802783637E+01  0.00000000000E+00 0.  1.
         11    1    3    3    0    0 -0.20944829669E+02  0.27081336126E+02 -0.98267977322E+01  0.35618121935E+02  0.51100000000E-03 0. -1.
        -11    1    3    3    0    0  0.30566788444E+01 -0.56581207118E+01  0.21906998513E+02  0.22831430084E+02  0.51100000000E-03 0.  1.
         12    1    3    3    0    0  0.18399535953E+02 -0.22232761638E+02 -0.12770256704E+02  0.31558169618E+02  0.00000000000E+00 0. -1.
</event>
<event>
 7    1  0.1756449E-015  0.9000783E+02  0.7816164E-02  0.1186339E+00
        -11   -1    0    0    0    0  0.00000000000E+00  0.00000000000E+00  0.45593999997E+02  0.45594000000E+02  0.51100000000E-03 0. -1.
         11   -1    0    0    0    0 -0.00000000000E+00 -0.00000000000E+00 -0.45593999997E+02  0.45594000000E+02  0.51100000000E-03 0.  1.
    9900012    2    1    2    0    0  0.32852995064E+00 -0.34651077506E-01  0.11329860175E+01  0.90007834782E+02  0.90000097401E+02 0.  0.
        -12    1    1    2    0    0 -0.32852995064E+00  0.34651077506E-01 -0.11329860175E+01  0.11801652179E+01  0.00000000000E+00 0.  1.
         11    1    3    3    0    0  0.31349755618E+01 -0.25431810388E+02 -0.27825420281E+02  0.37826697787E+02  0.51100000000E-03 0. -1.
        -11    1    3    3    0    0 -0.65787142580E+01 -0.76408781193E+01  0.80412043423E+01  0.12896645582E+02  0.51100000000E-03 0.  1.
        -12    1    3    3    0    0  0.37722686469E+01  0.33038037430E+02  0.20917201956E+02  0.39284491414E+02  0.00000000000E+00 0.  1.
</event>
<event>
 7    1  0.1756449E-015  0.9000772E+02  0.7816164E-02  0.1186339E+00
        -11   -1    0    0    0    0  0.00000000000E+00  0.00000000000E+00  0.45593999997E+02  0.45594000000E+02  0.51100000000E-03 0.  1.
         11   -1    0    0    0    0 -0.00000000000E+00 -0.00000000000E+00 -0.45593999997E+02  0.45594000000E+02  0.51100000000E-03 0. -1.
    9900012    2    1    2    0    0  0.21915504602E-01 -0.11457136745E+01 -0.28270010770E+00  0.90007720599E+02  0.89999981711E+02 0.  0.
        -12    1    1    2    0    0 -0.21915504602E-01  0.11457136745E+01  0.28270010770E+00  0.11802794009E+01  0.00000000000E+00 0.  1.
         11    1    3    3    0    0 -0.24668651809E+01  0.52494033017E+01  0.55970260923E+01  0.80602952913E+01  0.51100000000E-03 0. -1.
        -11    1    3    3    0    0  0.22949064924E+02  0.16560418536E+02  0.25441112100E+02  0.38054661057E+02  0.51100000000E-03 0.  1.
         12    1    3    3    0    0 -0.20460284239E+02 -0.22955535512E+02 -0.31320838300E+02  0.43892764251E+02  0.00000000000E+00 0. -1.
</event>
<event>
 7    1  0.1756449E-015  0.9000769E+02  0.7816164E-02  0.1186339E+00
        -11   -1    0    0    0    0  0.00000000000E+00  0.00000000000E+00  0.45593999997E+02  0.45594000000E+02  0.51100000000E-03 0.  1.
         11   -1    0    0    0    0 -0.00000000000E+00 -0.00000000000E+00 -0.45593999997E+02  0.45594000000E+02  0.51100000000E-03 0. -1.
    9900012    2    1    2    0    0  0.45100592220E+00  0.99801876012E+00  0.44009645881E+00  0.90007689583E+02  0.89999950285E+02 0.  0.
        -12    1    1    2    0    0 -0.45100592220E+00 -0.99801876012E+00 -0.44009645881E+00  0.11803104170E+01  0.00000000000E+00 0.  1.
         11    1    3    3    0    0 -0.27782114471E+01  0.95098115009E+01  0.24599839130E+01  0.10208158244E+02  0.51100000000E-03 0. -1.
        -11    1    3    3    0    0  0.14520864539E+02  0.23999381837E+02  0.23790250105E+02  0.36780454535E+02  0.51100000000E-03 0.  1.
         12    1    3    3    0    0 -0.11291647170E+02 -0.32511174577E+02 -0.25810137559E+02  0.43019076803E+02  0.00000000000E+00 0. -1.
</event>
<event>
 7    1  0.1756449E-015  0.9000823E+02  0.7816164E-02  0.1186338E+00
        -11   -1    0    0    0    0  0.00000000000E+00  0.00000000000E+00  0.45593999997E+02  0.45594000000E+02  0.51100000000E-03 0.  1.
         11   -1    0    0    0    0 -0.00000000000E+00 -0.00000000000E+00 -0.45593999997E+02  0.45594000000E+02  0.51100000000E-03 0. -1.
    9900012    2    1    2    0    0 -0.28490301028E+00  0.11384849697E+01 -0.12060798953E+00  0.90008227124E+02  0.90000494921E+02 0.  0.
        -12    1    1    2    0    0  0.28490301028E+00 -0.11384849697E+01  0.12060798953E+00  0.11797728759E+01  0.00000000000E+00 0.  1.
         11    1    3    3    0    0  0.26393733254E+01  0.96024430488E+01  0.11305792369E+01  0.10022545272E+02  0.51100000000E-03 0. -1.
        -11    1    3    3    0    0  0.15846957748E+02  0.19561242915E+02  0.26319274876E+02  0.36420770509E+02  0.51100000000E-03 0.  1.
         12    1    3    3    0    0 -0.18771234084E+02 -0.28025200994E+02 -0.27570462102E+02  0.43564911343E+02  0.00000000000E+00 0. -1.
</event>
<event>
 7    1  0.1756449E-015  0.9000763E+02  0.7816164E-02  0.1186339E+00
        -11   -1    0    0    0    0  0.00000000000E+00  0.00000000000E+00  0.45593999997E+02  0.45594000000E+02  0.51100000000E-03 0.  1.
         11   -1    0    0    0    0 -0.00000000000E+00 -0.00000000000E+00 -0.45593999997E+02  0.45594000000E+02  0.51100000000E-03 0. -1.
    9900012    2    1    2    0    0 -0.10415656253E+01 -0.42329765634E+00  0.35948592185E+00  0.90007631420E+02  0.89999891354E+02 0.  0.
        -12    1    1    2    0    0  0.10415656253E+01  0.42329765634E+00 -0.35948592185E+00  0.11803685804E+01  0.00000000000E+00 0.  1.
         11    1    3    3    0    0 -0.15181499060E+02 -0.28046670054E+02 -0.25354674852E+02  0.40742522651E+02  0.51100000000E-03 0. -1.
        -11    1    3    3    0    0  0.19505659318E+01 -0.50803119423E+01  0.91185246879E+01  0.10618934487E+02  0.51100000000E-03 0.  1.
        -12    1    3    3    0    0  0.12189367503E+02  0.32703684340E+02  0.16595636086E+02  0.38646174282E+02  0.00000000000E+00 0.  1.
</event>
<event>
 7    1  0.1756449E-015  0.9000773E+02  0.7816164E-02  0.1186339E+00
        -11   -1    0    0    0    0  0.00000000000E+00  0.00000000000E+00  0.45593999997E+02  0.45594000000E+02  0.51100000000E-03 0.  1.
         11   -1    0    0    0    0 -0.00000000000E+00 -0.00000000000E+00 -0.45593999997E+02  0.45594000000E+02  0.51100000000E-03 0. -1.
    9900012    2    1    2    0    0 -0.68685587840E+00 -0.20443982314E+00 -0.93779972793E+00  0.90007730976E+02  0.89999992225E+02 0.  0.
        -12    1    1    2    0    0  0.68685587840E+00  0.20443982314E+00  0.93779972793E+00  0.11802690239E+01  0.00000000000E+00 0.  1.
         11    1    3    3    0    0  0.90787400143E+00 -0.31648583790E+02 -0.24114788480E+02  0.39799247667E+02  0.51100000000E-03 0. -1.
        -11    1    3    3    0    0 -0.22061583661E+01  0.68213513436E+01 -0.78254152945E+01  0.10612968184E+02  0.51100000000E-03 0.  1.
        -12    1    3    3    0    0  0.61142848624E+00  0.24622792624E+02  0.31002404046E+02  0.39595515125E+02  0.00000000000E+00 0.  1.
</event>
<event>
 7    1  0.1756449E-015  0.9000774E+02  0.7816164E-02  0.1186339E+00
        -11   -1    0    0    0    0  0.00000000000E+00  0.00000000000E+00  0.45593999997E+02  0.45594000000E+02  0.51100000000E-03 0.  1.
         11   -1    0    0    0    0 -0.00000000000E+00 -0.00000000000E+00 -0.45593999997E+02  0.45594000000E+02  0.51100000000E-03 0. -1.
    9900012    2    1    2    0    0  0.83072913458E+00 -0.78598533775E+00  0.29175522640E+00  0.90007743690E+02  0.90000005106E+02 0.  0.
        -12    1    1    2    0    0 -0.83072913458E+00  0.78598533775E+00 -0.29175522640E+00  0.11802563104E+01  0.00000000000E+00 0.  1.
         11    1    3    3    0    0 -0.10873478751E+01  0.89515254582E+01  0.47579713888E+01  0.10195608144E+02  0.51100000000E-03 0. -1.
        -11    1    3    3    0    0 -0.23333516912E+02  0.24943190369E+02  0.81130242232E+01  0.35106080949E+02  0.51100000000E-03 0.  1.
         12    1    3    3    0    0  0.25251593922E+02 -0.34680701165E+02 -0.12579240386E+02  0.44706054596E+02  0.00000000000E+00 0. -1.
</event>
<event>
 7    1  0.1756449E-015  0.9000768E+02  0.7816164E-02  0.1186339E+00
        -11   -1    0    0    0    0  0.00000000000E+00  0.00000000000E+00  0.45593999997E+02  0.45594000000E+02  0.51100000000E-03 0.  1.
         11   -1    0    0    0    0 -0.00000000000E+00 -0.00000000000E+00 -0.45593999997E+02  0.45594000000E+02  0.51100000000E-03 0. -1.
    9900012    2    1    2    0    0 -0.22745969432E+00  0.40641843519E+00 -0.10845501961E+01  0.90007676746E+02  0.89999937279E+02 0.  0.
        -12    1    1    2    0    0  0.22745969432E+00 -0.40641843519E+00  0.10845501961E+01  0.11803232544E+01  0.00000000000E+00 0.  1.
         11    1    3    3    0    0  0.36451872651E+02 -0.20960895215E+02 -0.21933510066E+01  0.42105925199E+02  0.51100000000E-03 0. -1.
        -11    1    3    3    0    0 -0.84619907761E+01 -0.35817548759E+01  0.42133313736E+01  0.10108729762E+02  0.51100000000E-03 0.  1.
        -12    1    3    3    0    0 -0.28217341569E+02  0.24949068527E+02 -0.31045305631E+01  0.37793021784E+02  0.00000000000E+00 0.  1.
</event>
<event>
 7    1  0.1780852E-015  0.9000777E+02  0.7816164E-02  0.1186339E+00
        -11   -1    0    0    0    0  0.00000000000E+00  0.00000000000E+00  0.45593999997E+02  0.45594000000E+02  0.51100000000E-03 0.  1.
         11   -1    0    0    0    0 -0.00000000000E+00 -0.00000000000E+00 -0.45593999997E+02  0.45594000000E+02  0.51100000000E-03 0. -1.
    9900012    2    1    2    0    0 -0.45286203816E+00 -0.10471654355E+01 -0.30214677038E+00  0.90007774536E+02  0.90000036360E+02 0.  0.
        -12    1    1    2    0    0  0.45286203816E+00  0.10471654355E+01  0.30214677038E+00  0.11802254640E+01  0.00000000000E+00 0.  1.
         11    1    3    3    0    0 -0.63503640817E-01 -0.35235099795E+01  0.86177072188E+01  0.93104260513E+01  0.51100000000E-03 0. -1.
        -11    1    3    3    0    0  0.13685958390E+02 -0.27003646787E+02  0.20640493076E+02  0.36640583395E+02  0.51100000000E-03 0.  1.
         12    1    3    3    0    0 -0.14075316788E+02  0.29479991330E+02 -0.29560347066E+02  0.44056765090E+02  0.00000000000E+00 0. -1.
</event>
<event>
 7    1  0.1756449E-015  0.9000768E+02  0.7816164E-02  0.1186339E+00
        -11   -1    0    0    0    0  0.00000000000E+00  0.00000000000E+00  0.45593999997E+02  0.45594000000E+02  0.51100000000E-03 0.  1.
         11   -1    0    0    0    0 -0.00000000000E+00 -0.00000000000E+00 -0.45593999997E+02  0.45594000000E+02  0.51100000000E-03 0. -1.
    9900012    2    1    2    0    0 -0.10888237390E+01  0.46060364992E-02 -0.45562419771E+00  0.90007681501E+02  0.89999942096E+02 0.  0.
        -12    1    1    2    0    0  0.10888237390E+01 -0.46060364992E-02  0.45562419771E+00  0.11803184993E+01  0.00000000000E+00 0.  1.
         11    1    3    3    0    0 -0.38506397812E+01 -0.24691611333E+01  0.89664745347E+01  0.10065875484E+02  0.51100000000E-03 0. -1.
        -11    1    3    3    0    0 -0.56130368078E+01 -0.34789529713E+02  0.10626369571E+02  0.36806756043E+02  0.51100000000E-03 0.  1.
         12    1    3    3    0    0  0.83748528500E+01  0.37263296883E+02 -0.20048468304E+02  0.43135049973E+02  0.00000000000E+00 0. -1.
</event>
<event>
 7    1  0.1756449E-015  0.9000772E+02  0.7816164E-02  0.1186339E+00
        -11   -1    0    0    0    0  0.00000000000E+00  0.00000000000E+00  0.45593999997E+02  0.45594000000E+02  0.51100000000E-03 0. -1.
         11   -1    0    0    0    0 -0.00000000000E+00 -0.00000000000E+00 -0.45593999997E+02  0.45594000000E+02  0.51100000000E-03 0.  1.
    9900012    2    1    2    0    0 -0.79565999353E+00 -0.85556894784E+00 -0.16729858160E+00  0.90007719582E+02  0.89999980680E+02 0.  0.
        -12    1    1    2    0    0  0.79565999353E+00  0.85556894784E+00  0.16729858160E+00  0.11802804180E+01  0.00000000000E+00 0.  1.
         11    1    3    3    0    0 -0.83914224995E+01  0.16608664139E+02  0.73891384560E+01  0.20021564960E+02  0.51100000000E-03 0. -1.
        -11    1    3    3    0    0 -0.13409159502E+02 -0.25990208533E+02 -0.27238048025E+02  0.39965081741E+02  0.51100000000E-03 0.  1.
         12    1    3    3    0    0  0.21004922008E+02  0.85259754455E+01  0.19681610988E+02  0.30021072881E+02  0.00000000000E+00 0. -1.
</event>
<event>
 7    1  0.1756449E-015  0.9000726E+02  0.7816164E-02  0.1186340E+00
        -11   -1    0    0    0    0  0.00000000000E+00  0.00000000000E+00  0.45593999997E+02  0.45594000000E+02  0.51100000000E-03 0. -1.
         11   -1    0    0    0    0 -0.00000000000E+00 -0.00000000000E+00 -0.45593999997E+02  0.45594000000E+02  0.51100000000E-03 0.  1.
    9900012    2    1    2    0    0  0.59887007169E+00 -0.99622239597E+00  0.20746058697E+00  0.90007261113E+02  0.89999516158E+02 0.  0.
        -12    1    1    2    0    0 -0.59887007169E+00  0.99622239597E+00 -0.20746058697E+00  0.11807388874E+01  0.00000000000E+00 0.  1.
         11    1    3    3    0    0 -0.24136626312E+02 -0.14452590335E+02  0.28861766747E+02  0.40304536681E+02  0.51100000000E-03 0. -1.
        -11    1    3    3    0    0  0.11783800670E+02 -0.69426315105E+01 -0.19596934791E+02  0.23897655617E+02  0.51100000000E-03 0.  1.
        -12    1    3    3    0    0  0.12951695713E+02  0.20398999450E+02 -0.90573713684E+01  0.25805068814E+02  0.00000000000E+00 0.  1.
</event>
<event>
 7    1  0.1756449E-015  0.9000782E+02  0.7816164E-02  0.1186339E+00
        -11   -1    0    0    0    0  0.00000000000E+00  0.00000000000E+00  0.45593999997E+02  0.45594000000E+02  0.51100000000E-03 0.  1.
         11   -1    0    0    0    0 -0.00000000000E+00 -0.00000000000E+00 -0.45593999997E+02  0.45594000000E+02  0.51100000000E-03 0. -1.
    9900012    2    1    2    0    0 -0.11788280463E+01  0.11578378658E-01 -0.55242178538E-01  0.90007821488E+02  0.90000083932E+02 0.  0.
        -12    1    1    2    0    0  0.11788280463E+01 -0.11578378658E-01  0.55242178538E-01  0.11801785119E+01  0.00000000000E+00 0.  1.
         11    1    3    3    0    0  0.35561734477E+01 -0.33984840381E+02 -0.20706974272E+02  0.39954906196E+02  0.51100000000E-03 0. -1.
        -11    1    3    3    0    0  0.19783377084E+01 -0.45400118817E+01 -0.14027710679E+01  0.51471637728E+01  0.51100000000E-03 0.  1.
        -12    1    3    3    0    0 -0.67133392024E+01  0.38536430642E+02  0.22054503161E+02  0.44905751520E+02  0.00000000000E+00 0.  1.
</event>
<event>
 7    1  0.1756449E-015  0.9000773E+02  0.7816164E-02  0.1186339E+00
        -11   -1    0    0    0    0  0.00000000000E+00  0.00000000000E+00  0.45593999997E+02  0.45594000000E+02  0.51100000000E-03 0. -1.
         11   -1    0    0    0    0 -0.00000000000E+00 -0.00000000000E+00 -0.45593999997E+02  0.45594000000E+02  0.51100000000E-03 0.  1.
    9900012    2    1    2    0    0  0.10532362017E+01  0.40161369894E+00  0.34990892271E+00  0.90007730406E+02  0.89999991648E+02 0.  0.
        -12    1    1    2    0    0 -0.10532362017E+01 -0.40161369894E+00 -0.34990892271E+00  0.11802695937E+01  0.00000000000E+00 0.  1.
         11    1    3    3    0    0  0.87412079833E+01 -0.16751078561E+02  0.23787143692E+02  0.30378208559E+02  0.51100000000E-03 0. -1.
        -11    1    3    3    0    0  0.15001885328E+02  0.20055985619E+00  0.82558750611E+01  0.17124726595E+02  0.51100000000E-03 0.  1.
        -12    1    3    3    0    0 -0.22689857110E+02  0.16952132404E+02 -0.31693109831E+02  0.42504795252E+02  0.00000000000E+00 0.  1.
</event>
<event>
 7    1  0.1756449E-015  0.9000777E+02  0.7816164E-02  0.1186339E+00
        -11   -1    0    0    0    0  0.00000000000E+00  0.00000000000E+00  0.45593999997E+02  0.45594000000E+02  0.51100000000E-03 0. -1.
         11   -1    0    0    0    0 -0.00000000000E+00 -0.00000000000E+00 -0.45593999997E+02  0.45594000000E+02  0.51100000000E-03 0.  1.
    9900012    2    1    2    0    0  0.10955712791E+01 -0.38918925612E+00 -0.20298615357E+00  0.90007767784E+02  0.90000029519E+02 0.  0.
        -12    1    1    2    0    0 -0.10955712791E+01  0.38918925612E+00  0.20298615357E+00  0.11802322158E+01  0.00000000000E+00 0.  1.
         11    1    3    3    0    0 -0.12534109566E+02 -0.64000330541E+01  0.30882415469E+02  0.33938000989E+02  0.51100000000E-03 0. -1.
        -11    1    3    3    0    0 -0.21197080621E+01 -0.38487803354E+01  0.10030257223E+02  0.10950448966E+02  0.51100000000E-03 0.  1.
        -12    1    3    3    0    0  0.15749388907E+02  0.98596241334E+01 -0.41115658846E+02  0.45119317828E+02  0.00000000000E+00 0.  1.
</event>
<event>
 7    1  0.1756449E-015  0.9000777E+02  0.7816164E-02  0.1186339E+00
        -11   -1    0    0    0    0  0.00000000000E+00  0.00000000000E+00  0.45593999997E+02  0.45594000000E+02  0.51100000000E-03 0.  1.
         11   -1    0    0    0    0 -0.00000000000E+00 -0.00000000000E+00 -0.45593999997E+02  0.45594000000E+02  0.51100000000E-03 0. -1.
    9900012    2    1    2    0    0  0.95006047185E+00  0.27233016929E+00 -0.64510252419E+00  0.90007772951E+02  0.90000034754E+02 0.  0.
        -12    1    1    2    0    0 -0.95006047185E+00 -0.27233016929E+00  0.64510252419E+00  0.11802270493E+01  0.00000000000E+00 0.  1.
         11    1    3    3    0    0  0.48278187386E+01 -0.21677341569E+02 -0.32390195307E+02  0.39272633265E+02  0.51100000000E-03 0. -1.
        -11    1    3    3    0    0  0.43512534430E+01 -0.73363098206E+01  0.34859326472E+01  0.92144763818E+01  0.51100000000E-03 0.  1.
        -12    1    3    3    0    0 -0.82290117097E+01  0.29285981559E+02  0.28259160136E+02  0.41520663304E+02  0.00000000000E+00 0.  1.
</event>
<event>
 7    1  0.1756449E-015  0.9000773E+02  0.7816164E-02  0.1186339E+00
        -11   -1    0    0    0    0  0.00000000000E+00  0.00000000000E+00  0.45593999997E+02  0.45594000000E+02  0.51100000000E-03 0. -1.
         11   -1    0    0    0    0 -0.00000000000E+00 -0.00000000000E+00 -0.45593999997E+02  0.45594000000E+02  0.51100000000E-03 0.  1.
    9900012    2    1    2    0    0 -0.90873405719E+00  0.70398062986E+00  0.26765504054E+00  0.90007734973E+02  0.89999996274E+02 0.  0.
        -12    1    1    2    0    0  0.90873405719E+00 -0.70398062986E+00 -0.26765504054E+00  0.11802650273E+01  0.00000000000E+00 0.  1.
         11    1    3    3    0    0  0.59377820293E+01  0.18120562385E+02  0.34849564025E+02  0.39725359024E+02  0.51100000000E-03 0. -1.
        -11    1    3    3    0    0 -0.10383510568E+02  0.35169997946E+01 -0.16299973138E+01  0.11083477377E+02  0.51100000000E-03 0.  1.
        -12    1    3    3    0    0  0.35369944815E+01 -0.20933581550E+02 -0.32951911671E+02  0.39198898571E+02  0.00000000000E+00 0.  1.
</event>
<event>
 7    1  0.1756449E-015  0.9000772E+02  0.7816164E-02  0.1186339E+00
        -11   -1    0    0    0    0  0.00000000000E+00  0.00000000000E+00  0.45593999997E+02  0.45594000000E+02  0.51100000000E-03 0. -1.
         11   -1    0    0    0    0 -0.00000000000E+00 -0.00000000000E+00 -0.45593999997E+02  0.45594000000E+02  0.51100000000E-03 0.  1.
    9900012    2    1    2    0    0 -0.95791419093E+00 -0.34860853385E+00  0.59492079660E+00  0.90007721109E+02  0.89999982227E+02 0.  0.
        -12    1    1    2    0    0  0.95791419093E+00  0.34860853385E+00 -0.59492079660E+00  0.11802788913E+01  0.00000000000E+00 0.  1.
         11    1    3    3    0    0 -0.50705783865E+00  0.13120030178E+02 -0.35706273117E+02  0.38043793708E+02  0.51100000000E-03 0. -1.
        -11    1    3    3    0    0 -0.77818811827E+01  0.20057617815E+01 -0.34012737960E+01  0.87263634329E+01  0.51100000000E-03 0.  1.
        -12    1    3    3    0    0  0.73310248304E+01 -0.15474400493E+02  0.39702467709E+02  0.43237563968E+02  0.00000000000E+00 0.  1.
</event>
<event>
 7    1  0.1756449E-015  0.9000771E+02  0.7816164E-02  0.1186339E+00
        -11   -1    0    0    0    0  0.00000000000E+00  0.00000000000E+00  0.45593999997E+02  0.45594000000E+02  0.51100000000E-03 0.  1.
         11   -1    0    0    0    0 -0.00000000000E+00 -0.00000000000E+00 -0.45593999997E+02  0.45594000000E+02  0.51100000000E-03 0. -1.
    9900012    2    1    2    0    0 -0.79392926116E+00  0.74874044938E+00 -0.44960273765E+00  0.90007712512E+02  0.89999973517E+02 0.  0.
        -12    1    1    2    0    0  0.79392926116E+00 -0.74874044938E+00  0.44960273765E+00  0.11802874878E+01  0.00000000000E+00 0.  1.
         11    1    3    3    0    0 -0.21720714800E+02  0.30170128326E+02 -0.11162680583E+02  0.38815351765E+02  0.51100000000E-03 0. -1.
        -11    1    3    3    0    0 -0.15729658373E+01  0.11757566472E+01 -0.84339963886E+01  0.86596143426E+01  0.51100000000E-03 0.  1.
        -12    1    3    3    0    0  0.22499751376E+02 -0.30597144524E+02  0.19147074234E+02  0.42532746404E+02  0.00000000000E+00 0.  1.
</event>
<event>
 7    1  0.1756449E-015  0.9000784E+02  0.7816164E-02  0.1186339E+00
        -11   -1    0    0    0    0  0.00000000000E+00  0.00000000000E+00  0.45593999997E+02  0.45594000000E+02  0.51100000000E-03 0.  1.
         11   -1    0    0    0    0 -0.00000000000E+00 -0.00000000000E+00 -0.45593999997E+02  0.45594000000E+02  0.51100000000E-03 0. -1.
    9900012    2    1    2    0    0  0.72660353278E-01 -0.76091248640E+00 -0.89916563121E+00  0.90007844853E+02  0.90000107605E+02 0.  0.
        -12    1    1    2    0    0 -0.72660353278E-01  0.76091248640E+00  0.89916563121E+00  0.11801551471E+01  0.00000000000E+00 0.  1.
         11    1    3    3    0    0  0.98968297149E+01 -0.47554319181E+00 -0.20799542427E+01  0.10124208100E+02  0.51100000000E-03 0. -1.
        -11    1    3    3    0    0  0.32240254078E+02 -0.85701998247E+01  0.12362588985E+02  0.35576901421E+02  0.51100000000E-03 0.  1.
         12    1    3    3    0    0 -0.42064423440E+02  0.82848305301E+01 -0.11181800373E+02  0.44306735332E+02  0.00000000000E+00 0. -1.
</event>
<event>
 7    1  0.1756449E-015  0.9000776E+02  0.7816164E-02  0.1186339E+00
        -11   -1    0    0    0    0  0.00000000000E+00  0.00000000000E+00  0.45593999997E+02  0.45594000000E+02  0.51100000000E-03 0.  1.
         11   -1    0    0    0    0 -0.00000000000E+00 -0.00000000000E+00 -0.45593999997E+02  0.45594000000E+02  0.51100000000E-03 0. -1.
    9900012    2    1    2    0    0 -0.77583728993E+00 -0.72805023854E+00 -0.51087415503E+00  0.90007757206E+02  0.90000018801E+02 0.  0.
        -12    1    1    2    0    0  0.77583728993E+00  0.72805023854E+00  0.51087415503E+00  0.11802427939E+01  0.00000000000E+00 0.  1.
         11    1    3    3    0    0  0.13846059278E+01  0.10658148881E+02  0.23132741743E+01  0.10993839585E+02  0.51100000000E-03 0. -1.
        -11    1    3    3    0    0 -0.17777032162E+02 -0.36389799099E+02  0.16535683507E+02  0.43745504687E+02  0.51100000000E-03 0.  1.
         12    1    3    3    0    0  0.15616588945E+02  0.25003599979E+02 -0.19359831836E+02  0.35268412934E+02  0.00000000000E+00 0. -1.
</event>
<event>
 7    1  0.1756449E-015  0.9000767E+02  0.7816164E-02  0.1186339E+00
        -11   -1    0    0    0    0  0.00000000000E+00  0.00000000000E+00  0.45593999997E+02  0.45594000000E+02  0.51100000000E-03 0.  1.
         11   -1    0    0    0    0 -0.00000000000E+00 -0.00000000000E+00 -0.45593999997E+02  0.45594000000E+02  0.51100000000E-03 0. -1.
    9900012    2    1    2    0    0 -0.25379652360E+00 -0.11523764813E+01 -0.28096494764E-01  0.90007672231E+02  0.89999932704E+02 0.  0.
        -12    1    1    2    0    0  0.25379652360E+00  0.11523764813E+01  0.28096494764E-01  0.11803277693E+01  0.00000000000E+00 0.  1.
         11    1    3    3    0    0  0.55083828632E+01 -0.40037062972E+02 -0.12471110619E+02  0.42294648521E+02  0.51100000000E-03 0. -1.
        -11    1    3    3    0    0 -0.87077376060E+01  0.25315919658E+01 -0.31510696703E+00  0.90737503138E+01  0.51100000000E-03 0.  1.
        -12    1    3    3    0    0  0.29455582191E+01  0.36353094525E+02  0.12758121092E+02  0.38639273396E+02  0.00000000000E+00 0.  1.
</event>
<event>
 7    1  0.1756449E-015  0.9000779E+02  0.7816164E-02  0.1186339E+00
        -11   -1    0    0    0    0  0.00000000000E+00  0.00000000000E+00  0.45593999997E+02  0.45594000000E+02  0.51100000000E-03 0.  1.
         11   -1    0    0    0    0 -0.00000000000E+00 -0.00000000000E+00 -0.45593999997E+02  0.45594000000E+02  0.51100000000E-03 0. -1.
    9900012    2    1    2    0    0 -0.36167957179E+00  0.85396385463E+00  0.72995394352E+00  0.90007788520E+02  0.90000050529E+02 0.  0.
        -12    1    1    2    0    0  0.36167957179E+00 -0.85396385463E+00 -0.72995394352E+00  0.11802114799E+01  0.00000000000E+00 0.  1.
         11    1    3    3    0    0 -0.21462089150E+02 -0.19394380244E+02 -0.98321569983E+01  0.30552161417E+02  0.51100000000E-03 0. -1.
        -11    1    3    3    0    0  0.16988282351E+02 -0.51344433196E+01  0.24464896908E+02  0.30224086858E+02  0.51100000000E-03 0.  1.
         12    1    3    3    0    0  0.41121272279E+01  0.25382787419E+02 -0.13902785966E+02  0.29231540245E+02  0.00000000000E+00 0. -1.
</event>
<event>
 7    1  0.1756449E-015  0.9000768E+02  0.7816164E-02  0.1186339E+00
        -11   -1    0    0    0    0  0.00000000000E+00  0.00000000000E+00  0.45593999997E+02  0.45594000000E+02  0.51100000000E-03 0.  1.
         11   -1    0    0    0    0 -0.00000000000E+00 -0.00000000000E+00 -0.45593999997E+02  0.45594000000E+02  0.51100000000E-03 0. -1.
    9900012    2    1    2    0    0  0.81463236516E+00  0.72681811485E+00 -0.44862206322E+00  0.90007681307E+02  0.89999941900E+02 0.  0.
        -12    1    1    2    0    0 -0.81463236516E+00 -0.72681811485E+00  0.44862206322E+00  0.11803186934E+01  0.00000000000E+00 0.  1.
         11    1    3    3    0    0 -0.32344194914E+02  0.37092728934E+01  0.74537156304E+01  0.33398555762E+02  0.51100000000E-03 0. -1.
        -11    1    3    3    0    0 -0.75659020645E+01 -0.11980656919E+02 -0.51879018363E-01  0.14169746150E+02  0.51100000000E-03 0.  1.
        -12    1    3    3    0    0  0.40724729344E+02  0.89982021408E+01 -0.78504586753E+01  0.42439379394E+02  0.00000000000E+00 0.  1.
</event>
<event>
 7    1  0.1756449E-015  0.9000772E+02  0.7816164E-02  0.1186339E+00
        -11   -1    0    0    0    0  0.00000000000E+00  0.00000000000E+00  0.45593999997E+02  0.45594000000E+02  0.51100000000E-03 0.  1.
         11   -1    0    0    0    0 -0.00000000000E+00 -0.00000000000E+00 -0.45593999997E+02  0.45594000000E+02  0.51100000000E-03 0. -1.
    9900012    2    1    2    0    0 -0.73351564051E+00 -0.65632383351E+00 -0.65134440433E+00  0.90007722193E+02  0.89999983326E+02 0.  0.
        -12    1    1    2    0    0  0.73351564051E+00  0.65632383351E+00  0.65134440433E+00  0.11802778073E+01  0.00000000000E+00 0.  1.
         11    1    3    3    0    0  0.27287377933E+01 -0.63810631344E+00 -0.37750416163E+02  0.37854287873E+02  0.51100000000E-03 0. -1.
        -11    1    3    3    0    0 -0.29850308278E+01 -0.59585853526E+01 -0.58045613865E+01  0.88378776637E+01  0.51100000000E-03 0.  1.
        -12    1    3    3    0    0 -0.47722260605E+00  0.59403678325E+01  0.42903633145E+02  0.43315556656E+02  0.00000000000E+00 0.  1.
</event>
<event>
 7    1  0.1756449E-015  0.9000772E+02  0.7816164E-02  0.1186339E+00
        -11   -1    0    0    0    0  0.00000000000E+00  0.00000000000E+00  0.45593999997E+02  0.45594000000E+02  0.51100000000E-03 0.  1.
         11   -1    0    0    0    0 -0.00000000000E+00 -0.00000000000E+00 -0.45593999997E+02  0.45594000000E+02  0.51100000000E-03 0. -1.
    9900012    2    1    2    0    0  0.35895762052E+00 -0.73687387631E+00 -0.84925375911E+00  0.90007717987E+02  0.89999979064E+02 0.  0.
        -12    1    1    2    0    0 -0.35895762052E+00  0.73687387631E+00  0.84925375911E+00  0.11802820130E+01  0.00000000000E+00 0.  1.
         11    1    3    3    0    0  0.15139597238E+02 -0.14997637786E+02 -0.27002928426E+02  0.34399050678E+02  0.51100000000E-03 0. -1.
        -11    1    3    3    0    0 -0.64747899561E+01 -0.64684968372E+01 -0.97209072599E+01  0.13351419195E+02  0.51100000000E-03 0.  1.
        -12    1    3    3    0    0 -0.83058496619E+01  0.20729260747E+02  0.35874581927E+02  0.42257248114E+02  0.00000000000E+00 0.  1.
</event>
<event>
 7    1  0.1756449E-015  0.9000777E+02  0.7816164E-02  0.1186339E+00
        -11   -1    0    0    0    0  0.00000000000E+00  0.00000000000E+00  0.45593999997E+02  0.45594000000E+02  0.51100000000E-03 0.  1.
         11   -1    0    0    0    0 -0.00000000000E+00 -0.00000000000E+00 -0.45593999997E+02  0.45594000000E+02  0.51100000000E-03 0. -1.
    9900012    2    1    2    0    0  0.10860465463E+01  0.45032504395E+00  0.10317832094E+00  0.90007773110E+02  0.90000034915E+02 0.  0.
        -12    1    1    2    0    0 -0.10860465463E+01 -0.45032504395E+00 -0.10317832094E+00  0.11802268900E+01  0.00000000000E+00 0.  1.
         11    1    3    3    0    0 -0.80556541726E+00  0.10210838975E+02 -0.31963077411E+01  0.10729704173E+02  0.51100000000E-03 0. -1.
        -11    1    3    3    0    0 -0.32201563565E+01  0.13771858049E+02  0.35993553516E+02  0.38672592052E+02  0.51100000000E-03 0.  1.
         12    1    3    3    0    0  0.51117683200E+01 -0.23532371979E+02 -0.32694067454E+02  0.40605476884E+02  0.00000000000E+00 0. -1.
</event>
<event>
 7    1  0.1756449E-015  0.9000774E+02  0.7816164E-02  0.1186339E+00
        -11   -1    0    0    0    0  0.00000000000E+00  0.00000000000E+00  0.45593999997E+02  0.45594000000E+02  0.51100000000E-03 0.  1.
         11   -1    0    0    0    0 -0.00000000000E+00 -0.00000000000E+00 -0.45593999997E+02  0.45594000000E+02  0.51100000000E-03 0. -1.
    9900012    2    1    2    0    0 -0.90280906357E-02  0.58388613705E+00 -0.10256772636E+01  0.90007738005E+02  0.89999999347E+02 0.  0.
        -12    1    1    2    0    0  0.90280906357E-02 -0.58388613705E+00  0.10256772636E+01  0.11802619949E+01  0.00000000000E+00 0.  1.
         11    1    3    3    0    0 -0.63387287904E+01 -0.26889233087E+00  0.92777790296E+01  0.11239616085E+02  0.51100000000E-03 0. -1.
        -11    1    3    3    0    0 -0.16299502816E+02 -0.31376639759E+02  0.65041044623E+01  0.35950948384E+02  0.51100000000E-03 0.  1.
         12    1    3    3    0    0  0.22629203516E+02  0.32229418227E+02 -0.16807560756E+02  0.42817173535E+02  0.00000000000E+00 0. -1.
</event>
<event>
 7    1  0.1756449E-015  0.9000777E+02  0.7816164E-02  0.1186339E+00
        -11   -1    0    0    0    0  0.00000000000E+00  0.00000000000E+00  0.45593999997E+02  0.45594000000E+02  0.51100000000E-03 0. -1.
         11   -1    0    0    0    0 -0.00000000000E+00 -0.00000000000E+00 -0.45593999997E+02  0.45594000000E+02  0.51100000000E-03 0.  1.
    9900012    2    1    2    0    0 -0.75421405942E+00 -0.62791466861E+00 -0.65561429711E+00  0.90007768758E+02  0.90000030505E+02 0.  0.
        -12    1    1    2    0    0  0.75421405942E+00  0.62791466861E+00  0.65561429711E+00  0.11802312422E+01  0.00000000000E+00 0.  1.
         11    1    3    3    0    0 -0.33839054452E+01 -0.60480126767E+01 -0.54787992818E+01  0.88343938802E+01  0.51100000000E-03 0. -1.
        -11    1    3    3    0    0 -0.39073234833E+02  0.91109705099E+00  0.22563701499E+01  0.39148933379E+02  0.51100000000E-03 0.  1.
         12    1    3    3    0    0  0.41702926219E+02  0.45090009571E+01  0.25668148347E+01  0.42024441499E+02  0.00000000000E+00 0. -1.
</event>
<event>
 7    1  0.1756449E-015  0.9000776E+02  0.7816164E-02  0.1186339E+00
        -11   -1    0    0    0    0  0.00000000000E+00  0.00000000000E+00  0.45593999997E+02  0.45594000000E+02  0.51100000000E-03 0.  1.
         11   -1    0    0    0    0 -0.00000000000E+00 -0.00000000000E+00 -0.45593999997E+02  0.45594000000E+02  0.51100000000E-03 0. -1.
    9900012    2    1    2    0    0 -0.81051869592E+00 -0.90875556739E-01 -0.85309534246E+00  0.90007758251E+02  0.90000019860E+02 0.  0.
        -12    1    1    2    0    0  0.81051869592E+00  0.90875556739E-01  0.85309534246E+00  0.11802417492E+01  0.00000000000E+00 0.  1.
         11    1    3    3    0    0 -0.74918893529E+00  0.93153852106E+01  0.28145688243E+01  0.97600964959E+01  0.51100000000E-03 0. -1.
        -11    1    3    3    0    0 -0.31795821876E+02 -0.22664514649E+01  0.22068229958E+02  0.38770064029E+02  0.51100000000E-03 0.  1.
         12    1    3    3    0    0  0.31734492116E+02 -0.71398093024E+01 -0.25735894125E+02  0.41477597726E+02  0.00000000000E+00 0. -1.
</event>
<event>
 7    1  0.1756449E-015  0.9000776E+02  0.7816164E-02  0.1186339E+00
        -11   -1    0    0    0    0  0.00000000000E+00  0.00000000000E+00  0.45593999997E+02  0.45594000000E+02  0.51100000000E-03 0.  1.
         11   -1    0    0    0    0 -0.00000000000E+00 -0.00000000000E+00 -0.45593999997E+02  0.45594000000E+02  0.51100000000E-03 0. -1.
    9900012    2    1    2    0    0  0.10227015181E-01 -0.37215210340E+00 -0.11199877708E+01  0.90007756641E+02  0.90000018229E+02 0.  0.
        -12    1    1    2    0    0 -0.10227015181E-01  0.37215210340E+00  0.11199877708E+01  0.11802433591E+01  0.00000000000E+00 0.  1.
         11    1    3    3    0    0  0.13080073605E+01  0.36741644884E+02 -0.33392771127E+01  0.36916258261E+02  0.51100000000E-03 0. -1.
        -11    1    3    3    0    0  0.80907282048E+01  0.50754809004E+01 -0.16690071194E+01  0.96956678099E+01  0.51100000000E-03 0.  1.
        -12    1    3    3    0    0 -0.93885085501E+01 -0.42189277888E+02  0.38882964614E+01  0.43395830570E+02  0.00000000000E+00 0.  1.
</event>
<event>
 7    1  0.1756449E-015  0.9000775E+02  0.7816164E-02  0.1186339E+00
        -11   -1    0    0    0    0  0.00000000000E+00  0.00000000000E+00  0.45593999997E+02  0.45594000000E+02  0.51100000000E-03 0.  1.
         11   -1    0    0    0    0 -0.00000000000E+00 -0.00000000000E+00 -0.45593999997E+02  0.45594000000E+02  0.51100000000E-03 0. -1.
    9900012    2    1    2    0    0  0.78965823797E+00  0.21260885559E+00 -0.85102009553E+00  0.90007746696E+02  0.90000008153E+02 0.  0.
        -12    1    1    2    0    0 -0.78965823797E+00 -0.21260885559E+00  0.85102009553E+00  0.11802533039E+01  0.00000000000E+00 0.  1.
         11    1    3    3    0    0 -0.14904624866E+02 -0.14480842211E+01 -0.30277048873E+02  0.33777869664E+02  0.51100000000E-03 0. -1.
        -11    1    3    3    0    0  0.23034719116E+01  0.23551859640E+01 -0.12127237982E+02  0.12566733271E+02  0.51100000000E-03 0.  1.
        -12    1    3    3    0    0  0.13390811193E+02 -0.69449288732E+00  0.41553266759E+02  0.43663143761E+02  0.00000000000E+00 0.  1.
</event>
<event>
 7    1  0.1756449E-015  0.9000778E+02  0.7816164E-02  0.1186339E+00
        -11   -1    0    0    0    0  0.00000000000E+00  0.00000000000E+00  0.45593999997E+02  0.45594000000E+02  0.51100000000E-03 0.  1.
         11   -1    0    0    0    0 -0.00000000000E+00 -0.00000000000E+00 -0.45593999997E+02  0.45594000000E+02  0.51100000000E-03 0. -1.
    9900012    2    1    2    0    0  0.11180972678E+01  0.35582388619E+00 -0.12712758112E+00  0.90007782410E+02  0.90000044338E+02 0.  0.
        -12    1    1    2    0    0 -0.11180972678E+01 -0.35582388619E+00  0.12712758112E+00  0.11802175902E+01  0.00000000000E+00 0.  1.
         11    1    3    3    0    0  0.20899288770E+02  0.21980300086E+01  0.23985148587E+01  0.21150992431E+02  0.51100000000E-03 0. -1.
        -11    1    3    3    0    0 -0.20049668073E+02  0.25757964227E+02 -0.17936137805E+02  0.37244690233E+02  0.51100000000E-03 0.  1.
         12    1    3    3    0    0  0.26847657111E+00 -0.27600170349E+02  0.15410495365E+02  0.31612099746E+02  0.00000000000E+00 0. -1.
</event>
<event>
 7    1  0.1756449E-015  0.9000777E+02  0.7816164E-02  0.1186339E+00
        -11   -1    0    0    0    0  0.00000000000E+00  0.00000000000E+00  0.45593999997E+02  0.45594000000E+02  0.51100000000E-03 0. -1.
         11   -1    0    0    0    0 -0.00000000000E+00 -0.00000000000E+00 -0.45593999997E+02  0.45594000000E+02  0.51100000000E-03 0.  1.
    9900012    2    1    2    0    0  0.33625535420E-01  0.23765392223E+00  0.11555615953E+01  0.90007774317E+02  0.90000036138E+02 0.  0.
        -12    1    1    2    0    0 -0.33625535420E-01 -0.23765392223E+00 -0.11555615953E+01  0.11802256834E+01  0.00000000000E+00 0.  1.
         11    1    3    3    0    0 -0.17277098302E+02  0.23213426685E+02  0.24730499862E+02  0.38065193128E+02  0.51100000000E-03 0. -1.
        -11    1    3    3    0    0  0.93113773453E+01  0.92229815900E+01 -0.68318044689E+01  0.14779671513E+02  0.51100000000E-03 0.  1.
        -12    1    3    3    0    0  0.79993464920E+01 -0.32198754353E+02 -0.16743133798E+02  0.37162909675E+02  0.00000000000E+00 0.  1.
</event>
<event>
 7    1  0.1756449E-015  0.9000806E+02  0.7816164E-02  0.1186338E+00
        -11   -1    0    0    0    0  0.00000000000E+00  0.00000000000E+00  0.45593999997E+02  0.45594000000E+02  0.51100000000E-03 0.  1.
         11   -1    0    0    0    0 -0.00000000000E+00 -0.00000000000E+00 -0.45593999997E+02  0.45594000000E+02  0.51100000000E-03 0. -1.
    9900012    2    1    2    0    0  0.74204419033E+00  0.24207891411E+00 -0.88489453931E+00  0.90008055032E+02  0.90000320558E+02 0.  0.
        -12    1    1    2    0    0 -0.74204419033E+00 -0.24207891411E+00  0.88489453931E+00  0.11799449677E+01  0.00000000000E+00 0.  1.
         11    1    3    3    0    0 -0.29718745529E+01  0.19190698201E+02  0.12802414062E+02  0.23259766591E+02  0.51100000000E-03 0. -1.
        -11    1    3    3    0    0  0.30549547493E+02  0.26266497151E+00  0.11293216398E+01  0.30571542528E+02  0.51100000000E-03 0.  1.
         12    1    3    3    0    0 -0.26835628749E+02 -0.19211284258E+02 -0.14816630241E+02  0.36176745914E+02  0.00000000000E+00 0. -1.
</event>
<event>
 7    1  0.1756449E-015  0.9000775E+02  0.7816164E-02  0.1186339E+00
        -11   -1    0    0    0    0  0.00000000000E+00  0.00000000000E+00  0.45593999997E+02  0.45594000000E+02  0.51100000000E-03 0. -1.
         11   -1    0    0    0    0 -0.00000000000E+00 -0.00000000000E+00 -0.45593999997E+02  0.45594000000E+02  0.51100000000E-03 0.  1.
    9900012    2    1    2    0    0  0.22278486579E+00 -0.11451417750E+01 -0.17891300333E+00  0.90007748906E+02  0.90000010392E+02 0.  0.
        -12    1    1    2    0    0 -0.22278486579E+00  0.11451417750E+01  0.17891300333E+00  0.11802510936E+01  0.00000000000E+00 0.  1.
         11    1    3    3    0    0 -0.98293272720E+01 -0.21746945709E+02  0.23500593444E+02  0.33493629466E+02  0.51100000000E-03 0. -1.
        -11    1    3    3    0    0 -0.85999271789E+01 -0.41059545104E+01  0.78355889757E+01  0.12337506425E+02  0.51100000000E-03 0.  1.
        -12    1    3    3    0    0  0.18652039317E+02  0.24707758445E+02 -0.31515095423E+02  0.44176613016E+02  0.00000000000E+00 0.  1.
</event>
<event>
 7    1  0.1756449E-015  0.9000773E+02  0.7816164E-02  0.1186339E+00
        -11   -1    0    0    0    0  0.00000000000E+00  0.00000000000E+00  0.45593999997E+02  0.45594000000E+02  0.51100000000E-03 0. -1.
         11   -1    0    0    0    0 -0.00000000000E+00 -0.00000000000E+00 -0.45593999997E+02  0.45594000000E+02  0.51100000000E-03 0.  1.
    9900012    2    1    2    0    0  0.57755476358E+00  0.35896806770E+00  0.96468185449E+00  0.90007729413E+02  0.89999990641E+02 0.  0.
        -12    1    1    2    0    0 -0.57755476358E+00 -0.35896806770E+00 -0.96468185449E+00  0.11802705872E+01  0.00000000000E+00 0.  1.
         11    1    3    3    0    0  0.19408421842E+02  0.14721092673E+02  0.27774857678E+02  0.36943742734E+02  0.51100000000E-03 0. -1.
        -11    1    3    3    0    0  0.38416018892E+00  0.10016088906E+02  0.25446221892E+01  0.10341407949E+02  0.51100000000E-03 0.  1.
        -12    1    3    3    0    0 -0.19215027268E+02 -0.24378213512E+02 -0.29354798013E+02  0.42722578729E+02  0.00000000000E+00 0.  1.
</event>
<event>
 7    1  0.1756449E-015  0.9000778E+02  0.7816164E-02  0.1186339E+00
        -11   -1    0    0    0    0  0.00000000000E+00  0.00000000000E+00  0.45593999997E+02  0.45594000000E+02  0.51100000000E-03 0. -1.
         11   -1    0    0    0    0 -0.00000000000E+00 -0.00000000000E+00 -0.45593999997E+02  0.45594000000E+02  0.51100000000E-03 0.  1.
    9900012    2    1    2    0    0  0.35523404343E+00 -0.11060508833E+01  0.20830233819E+00  0.90007775595E+02  0.90000037433E+02 0.  0.
        -12    1    1    2    0    0 -0.35523404343E+00  0.11060508833E+01 -0.20830233819E+00  0.11802244050E+01  0.00000000000E+00 0.  1.
         11    1    3    3    0    0 -0.54488947521E+01  0.24539631064E+01  0.56439661788E+01  0.82198992351E+01  0.51100000000E-03 0. -1.
        -11    1    3    3    0    0 -0.26995269784E+02  0.23722272538E+02 -0.13462999880E+02  0.38376336082E+02  0.51100000000E-03 0.  1.
         12    1    3    3    0    0  0.32799398580E+02 -0.27282286527E+02  0.80273360391E+01  0.43411540277E+02  0.00000000000E+00 0. -1.
</event>
<event>
 7    1  0.1756449E-015  0.9000771E+02  0.7816164E-02  0.1186339E+00
        -11   -1    0    0    0    0  0.00000000000E+00  0.00000000000E+00  0.45593999997E+02  0.45594000000E+02  0.51100000000E-03 0. -1.
         11   -1    0    0    0    0 -0.00000000000E+00 -0.00000000000E+00 -0.45593999997E+02  0.45594000000E+02  0.51100000000E-03 0.  1.
    9900012    2    1    2    0    0  0.20044180166E+00 -0.81579881521E+00  0.82909003965E+00  0.90007705581E+02  0.89999966494E+02 0.  0.
        -12    1    1    2    0    0 -0.20044180166E+00  0.81579881521E+00 -0.82909003965E+00  0.11802944195E+01  0.00000000000E+00 0.  1.
         11    1    3    3    0    0 -0.47008411245E+01  0.49832745097E+01 -0.39687758375E+01  0.79172036747E+01  0.51100000000E-03 0. -1.
        -11    1    3    3    0    0 -0.28551354135E+02 -0.10812137930E+01 -0.24296463262E+02  0.37505559235E+02  0.51100000000E-03 0.  1.
         12    1    3    3    0    0  0.33452637061E+02 -0.47178595319E+01  0.29094329139E+02  0.44584942671E+02  0.00000000000E+00 0. -1.
</event>
<event>
 7    1  0.1756449E-015  0.9000776E+02  0.7816164E-02  0.1186339E+00
        -11   -1    0    0    0    0  0.00000000000E+00  0.00000000000E+00  0.45593999997E+02  0.45594000000E+02  0.51100000000E-03 0. -1.
         11   -1    0    0    0    0 -0.00000000000E+00 -0.00000000000E+00 -0.45593999997E+02  0.45594000000E+02  0.51100000000E-03 0.  1.
    9900012    2    1    2    0    0  0.10121575733E+01  0.16273590361E+00 -0.58481925544E+00  0.90007762952E+02  0.90000024623E+02 0.  0.
        -12    1    1    2    0    0 -0.10121575733E+01 -0.16273590361E+00  0.58481925544E+00  0.11802370478E+01  0.00000000000E+00 0.  1.
         11    1    3    3    0    0 -0.36222727567E+01  0.89161718188E+01  0.21456785386E+01  0.98601681770E+01  0.51100000000E-03 0. -1.
        -11    1    3    3    0    0 -0.31777863254E+01  0.13114574422E+02 -0.36641771611E+02  0.39047532767E+02  0.51100000000E-03 0.  1.
         12    1    3    3    0    0  0.78122166554E+01 -0.21868010337E+02  0.33911273817E+02  0.41100062008E+02  0.00000000000E+00 0. -1.
</event>
<event>
 7    1  0.1756449E-015  0.9000783E+02  0.7816164E-02  0.1186339E+00
        -11   -1    0    0    0    0  0.00000000000E+00  0.00000000000E+00  0.45593999997E+02  0.45594000000E+02  0.51100000000E-03 0.  1.
         11   -1    0    0    0    0 -0.00000000000E+00 -0.00000000000E+00 -0.45593999997E+02  0.45594000000E+02  0.51100000000E-03 0. -1.
    9900012    2    1    2    0    0  0.77602148578E+00 -0.69989417713E+00  0.54839165019E+00  0.90007832805E+02  0.90000095398E+02 0.  0.
        -12    1    1    2    0    0 -0.77602148578E+00  0.69989417713E+00 -0.54839165019E+00  0.11801671948E+01  0.00000000000E+00 0.  1.
         11    1    3    3    0    0  0.29340381136E+02  0.23918519138E+02 -0.23245387897E+01  0.37925677368E+02  0.51100000000E-03 0. -1.
        -11    1    3    3    0    0 -0.12236479639E+01  0.72284603763E+01  0.67043319431E+01  0.99345870984E+01  0.51100000000E-03 0.  1.
        -12    1    3    3    0    0 -0.27340711686E+02 -0.31846873691E+02 -0.38314015033E+01  0.42147568339E+02  0.00000000000E+00 0.  1.
</event>
<event>
 7    1  0.1756449E-015  0.9000769E+02  0.7816164E-02  0.1186339E+00
        -11   -1    0    0    0    0  0.00000000000E+00  0.00000000000E+00  0.45593999997E+02  0.45594000000E+02  0.51100000000E-03 0. -1.
         11   -1    0    0    0    0 -0.00000000000E+00 -0.00000000000E+00 -0.45593999997E+02  0.45594000000E+02  0.51100000000E-03 0.  1.
    9900012    2    1    2    0    0 -0.67495565781E+00  0.96193637371E+00  0.11067421958E+00  0.90007688384E+02  0.89999949071E+02 0.  0.
        -12    1    1    2    0    0  0.67495565781E+00 -0.96193637371E+00 -0.11067421958E+00  0.11803116156E+01  0.00000000000E+00 0.  1.
         11    1    3    3    0    0  0.32844435572E+02  0.12986799939E+02  0.16425341702E+02  0.38951325664E+02  0.51100000000E-03 0. -1.
        -11    1    3    3    0    0  0.26260837984E+01 -0.63004307409E+01 -0.12525653058E+02  0.14264772288E+02  0.51100000000E-03 0.  1.
        -12    1    3    3    0    0 -0.36145475028E+02 -0.57244328244E+01 -0.37890144240E+01  0.36791590432E+02  0.00000000000E+00 0.  1.
</event>
<event>
 7    1  0.1756449E-015  0.9000778E+02  0.7816164E-02  0.1186339E+00
        -11   -1    0    0    0    0  0.00000000000E+00  0.00000000000E+00  0.45593999997E+02  0.45594000000E+02  0.51100000000E-03 0. -1.
         11   -1    0    0    0    0 -0.00000000000E+00 -0.00000000000E+00 -0.45593999997E+02  0.45594000000E+02  0.51100000000E-03 0.  1.
    9900012    2    1    2    0    0  0.40433173628E+00 -0.10992840310E+01  0.14491777512E+00  0.90007783624E+02  0.90000045567E+02 0.  0.
        -12    1    1    2    0    0 -0.40433173628E+00  0.10992840310E+01 -0.14491777512E+00  0.11802163765E+01  0.00000000000E+00 0.  1.
         11    1    3    3    0    0 -0.23792867550E+02 -0.24520588677E+02  0.21326291191E+02  0.40276177966E+02  0.51100000000E-03 0. -1.
        -11    1    3    3    0    0 -0.36000327994E+01 -0.32465672841E+01 -0.73461218420E+01  0.88014738348E+01  0.51100000000E-03 0.  1.
        -12    1    3    3    0    0  0.27797232086E+02  0.26667871930E+02 -0.13835251574E+02  0.40930131823E+02  0.00000000000E+00 0.  1.
</event>
<event>
 7    1  0.1756449E-015  0.9000760E+02  0.7816164E-02  0.1186339E+00
        -11   -1    0    0    0    0  0.00000000000E+00  0.00000000000E+00  0.45593999997E+02  0.45594000000E+02  0.51100000000E-03 0.  1.
         11   -1    0    0    0    0 -0.00000000000E+00 -0.00000000000E+00 -0.45593999997E+02  0.45594000000E+02  0.51100000000E-03 0. -1.
    9900012    2    1    2    0    0 -0.11333935385E+01 -0.23177993015E+00  0.23462413178E+00  0.90007596962E+02  0.89999856442E+02 0.  0.
        -12    1    1    2    0    0  0.11333935385E+01  0.23177993015E+00 -0.23462413178E+00  0.11804030380E+01  0.00000000000E+00 0.  1.
         11    1    3    3    0    0 -0.11672103942E+01 -0.27356481462E+02 -0.15221160066E+02  0.31327674221E+02  0.51100000000E-03 0. -1.
        -11    1    3    3    0    0 -0.75075530890E+01 -0.13310919050E+02  0.20579651139E+01  0.15420088846E+02  0.51100000000E-03 0.  1.
        -12    1    3    3    0    0  0.75413699447E+01  0.40435620582E+02  0.13397819084E+02  0.43259833895E+02  0.00000000000E+00 0.  1.
</event>
<event>
 7    1  0.1756449E-015  0.9000773E+02  0.7816164E-02  0.1186339E+00
        -11   -1    0    0    0    0  0.00000000000E+00  0.00000000000E+00  0.45593999997E+02  0.45594000000E+02  0.51100000000E-03 0.  1.
         11   -1    0    0    0    0 -0.00000000000E+00 -0.00000000000E+00 -0.45593999997E+02  0.45594000000E+02  0.51100000000E-03 0. -1.
    9900012    2    1    2    0    0  0.10820288776E+01 -0.46309695555E+00  0.88307868171E-01  0.90007727336E+02  0.89999988537E+02 0.  0.
        -12    1    1    2    0    0 -0.10820288776E+01  0.46309695555E+00 -0.88307868171E-01  0.11802726642E+01  0.00000000000E+00 0.  1.
         11    1    3    3    0    0  0.25860524760E+01  0.28255558491E+01 -0.36222044334E+02  0.36424002104E+02  0.51100000000E-03 0. -1.
        -11    1    3    3    0    0  0.42838645573E+01 -0.64506619995E+01 -0.65968736521E+01  0.10172574798E+02  0.51100000000E-03 0.  1.
        -12    1    3    3    0    0 -0.57878881558E+01  0.31620091949E+01  0.42907225855E+02  0.43411150434E+02  0.00000000000E+00 0.  1.
</event>
<event>
 7    1  0.1756449E-015  0.9000778E+02  0.7816164E-02  0.1186339E+00
        -11   -1    0    0    0    0  0.00000000000E+00  0.00000000000E+00  0.45593999997E+02  0.45594000000E+02  0.51100000000E-03 0.  1.
         11   -1    0    0    0    0 -0.00000000000E+00 -0.00000000000E+00 -0.45593999997E+02  0.45594000000E+02  0.51100000000E-03 0. -1.
    9900012    2    1    2    0    0 -0.55029182664E+00 -0.85730031091E+00 -0.59593486023E+00  0.90007778294E+02  0.90000040168E+02 0.  0.
        -12    1    1    2    0    0  0.55029182664E+00  0.85730031091E+00  0.59593486023E+00  0.11802217059E+01  0.00000000000E+00 0.  1.
         11    1    3    3    0    0  0.44681358912E+01 -0.66521639203E+01 -0.38717410922E+02  0.39537999847E+02  0.51100000000E-03 0. -1.
        -11    1    3    3    0    0 -0.10162362803E+01 -0.88997328867E+01 -0.48213505688E+00  0.89705315398E+01  0.51100000000E-03 0.  1.
        -12    1    3    3    0    0 -0.40021914375E+01  0.14694596496E+02  0.38603611118E+02  0.41499246907E+02  0.00000000000E+00 0.  1.
</event>
<event>
 7    1  0.1756449E-015  0.9000763E+02  0.7816164E-02  0.1186339E+00
        -11   -1    0    0    0    0  0.00000000000E+00  0.00000000000E+00  0.45593999997E+02  0.45594000000E+02  0.51100000000E-03 0. -1.
         11   -1    0    0    0    0 -0.00000000000E+00 -0.00000000000E+00 -0.45593999997E+02  0.45594000000E+02  0.51100000000E-03 0.  1.
    9900012    2    1    2    0    0 -0.10965764479E+01 -0.38931724609E+00  0.19803529204E+00  0.90007633192E+02  0.89999893150E+02 0.  0.
        -12    1    1    2    0    0  0.10965764479E+01  0.38931724609E+00 -0.19803529204E+00  0.11803668078E+01  0.00000000000E+00 0.  1.
         11    1    3    3    0    0  0.99485097691E+01 -0.16360929209E+01 -0.78371340665E+00  0.10112559203E+02  0.51100000000E-03 0. -1.
        -11    1    3    3    0    0  0.19365047555E+02 -0.28292119605E+02  0.11594107156E+02  0.36192159642E+02  0.51100000000E-03 0.  1.
         12    1    3    3    0    0 -0.30410133772E+02  0.29538895280E+02 -0.10612358457E+02  0.43702914347E+02  0.00000000000E+00 0. -1.
</event>
<event>
 7    1  0.1756449E-015  0.9000787E+02  0.7816164E-02  0.1186339E+00
        -11   -1    0    0    0    0  0.00000000000E+00  0.00000000000E+00  0.45593999997E+02  0.45594000000E+02  0.51100000000E-03 0. -1.
         11   -1    0    0    0    0 -0.00000000000E+00 -0.00000000000E+00 -0.45593999997E+02  0.45594000000E+02  0.51100000000E-03 0.  1.
    9900012    2    1    2    0    0 -0.79772335219E+00 -0.79793505330E+00 -0.34588075811E+00  0.90007874416E+02  0.90000137558E+02 0.  0.
        -12    1    1    2    0    0  0.79772335219E+00  0.79793505330E+00  0.34588075811E+00  0.11801255843E+01  0.00000000000E+00 0.  1.
         11    1    3    3    0    0 -0.19350631639E+02  0.21692498856E+02  0.24626934573E+02  0.38098521732E+02  0.51100000000E-03 0. -1.
        -11    1    3    3    0    0 -0.66462263005E+01 -0.58340302379E+01  0.43109582392E+01  0.98383227257E+01  0.51100000000E-03 0.  1.
        -12    1    3    3    0    0  0.25199134588E+02 -0.16656403671E+02 -0.29283773570E+02  0.42071029958E+02  0.00000000000E+00 0.  1.
</event>
<event>
 7    1  0.2268834E-015  0.9000771E+02  0.7816164E-02  0.1186339E+00
        -11   -1    0    0    0    0  0.00000000000E+00  0.00000000000E+00  0.45593999997E+02  0.45594000000E+02  0.51100000000E-03 0. -1.
         11   -1    0    0    0    0 -0.00000000000E+00 -0.00000000000E+00 -0.45593999997E+02  0.45594000000E+02  0.51100000000E-03 0.  1.
    9900012    2    1    2    0    0 -0.41379774389E+00  0.24486723262E+00  0.10779082203E+01  0.90007714159E+02  0.89999975186E+02 0.  0.
        -12    1    1    2    0    0  0.41379774389E+00 -0.24486723262E+00 -0.10779082203E+01  0.11802858407E+01  0.00000000000E+00 0.  1.
         11    1    3    3    0    0 -0.59729057533E+01  0.35955918406E+01  0.67205967458E+01  0.96835068391E+01  0.51100000000E-03 0. -1.
        -11    1    3    3    0    0  0.36251490425E+02  0.20136939819E+02 -0.23333487857E+01  0.41534460633E+02  0.51100000000E-03 0.  1.
         12    1    3    3    0    0 -0.30692382415E+02 -0.23487664427E+02 -0.33093397398E+01  0.38789746687E+02  0.00000000000E+00 0. -1.
</event>
<event>
 7    1  0.1756449E-015  0.9000775E+02  0.7816164E-02  0.1186339E+00
        -11   -1    0    0    0    0  0.00000000000E+00  0.00000000000E+00  0.45593999997E+02  0.45594000000E+02  0.51100000000E-03 0.  1.
         11   -1    0    0    0    0 -0.00000000000E+00 -0.00000000000E+00 -0.45593999997E+02  0.45594000000E+02  0.51100000000E-03 0. -1.
    9900012    2    1    2    0    0 -0.95205117057E+00  0.25260933492E+00  0.65020838678E+00  0.90007752630E+02  0.90000014165E+02 0.  0.
        -12    1    1    2    0    0  0.95205117057E+00 -0.25260933492E+00 -0.65020838678E+00  0.11802473697E+01  0.00000000000E+00 0.  1.
         11    1    3    3    0    0 -0.36880082004E+01 -0.41079021635E+01  0.90401853849E+01  0.10592507575E+02  0.51100000000E-03 0. -1.
        -11    1    3    3    0    0 -0.22076401528E+02  0.27063814120E+02  0.15450441887E+02  0.38190754037E+02  0.51100000000E-03 0.  1.
         12    1    3    3    0    0  0.24812358557E+02 -0.22703302621E+02 -0.23840418886E+02  0.41224491019E+02  0.00000000000E+00 0. -1.
</event>
<event>
 7    1  0.1756449E-015  0.9000773E+02  0.7816164E-02  0.1186339E+00
        -11   -1    0    0    0    0  0.00000000000E+00  0.00000000000E+00  0.45593999997E+02  0.45594000000E+02  0.51100000000E-03 0.  1.
         11   -1    0    0    0    0 -0.00000000000E+00 -0.00000000000E+00 -0.45593999997E+02  0.45594000000E+02  0.51100000000E-03 0. -1.
    9900012    2    1    2    0    0 -0.12894774533E+00 -0.10368133948E+01  0.54903129881E+00  0.90007726767E+02  0.89999987961E+02 0.  0.
        -12    1    1    2    0    0  0.12894774533E+00  0.10368133948E+01 -0.54903129881E+00  0.11802732326E+01  0.00000000000E+00 0.  1.
         11    1    3    3    0    0 -0.36439374084E+02  0.19727033740E+01 -0.42156971563E+01  0.36735427655E+02  0.51100000000E-03 0. -1.
        -11    1    3    3    0    0 -0.62959299152E+01  0.62028064607E+01 -0.22511909383E+01  0.91203838947E+01  0.51100000000E-03 0.  1.
        -12    1    3    3    0    0  0.42606356253E+02 -0.92123232294E+01  0.70159193934E+01  0.44151915218E+02  0.00000000000E+00 0.  1.
</event>
<event>
 7    1  0.1756449E-015  0.9000804E+02  0.7816164E-02  0.1186338E+00
        -11   -1    0    0    0    0  0.00000000000E+00  0.00000000000E+00  0.45593999997E+02  0.45594000000E+02  0.51100000000E-03 0. -1.
         11   -1    0    0    0    0 -0.00000000000E+00 -0.00000000000E+00 -0.45593999997E+02  0.45594000000E+02  0.51100000000E-03 0.  1.
    9900012    2    1    2    0    0  0.38002434696E+00 -0.23247158612E+00  0.10926353560E+01  0.90008036626E+02  0.90000301909E+02 0.  0.
        -12    1    1    2    0    0 -0.38002434696E+00  0.23247158612E+00 -0.10926353560E+01  0.11799633740E+01  0.00000000000E+00 0.  1.
         11    1    3    3    0    0 -0.33871362415E+02 -0.20197867192E+02  0.16827129381E+02  0.42876279158E+02  0.51100000000E-03 0. -1.
        -11    1    3    3    0    0 -0.88548194064E+00  0.43382543791E+01 -0.60119640376E+01  0.74664744810E+01  0.51100000000E-03 0.  1.
        -12    1    3    3    0    0  0.35136868702E+02  0.15627141226E+02 -0.97225299878E+01  0.39665282987E+02  0.00000000000E+00 0.  1.
</event>
<event>
 7    1  0.1756449E-015  0.9000765E+02  0.7816164E-02  0.1186339E+00
        -11   -1    0    0    0    0  0.00000000000E+00  0.00000000000E+00  0.45593999997E+02  0.45594000000E+02  0.51100000000E-03 0.  1.
         11   -1    0    0    0    0 -0.00000000000E+00 -0.00000000000E+00 -0.45593999997E+02  0.45594000000E+02  0.51100000000E-03 0. -1.
    9900012    2    1    2    0    0  0.52242857748E+00  0.96752348750E+00 -0.42917431955E+00  0.90007650936E+02  0.89999911128E+02 0.  0.
        -12    1    1    2    0    0 -0.52242857748E+00 -0.96752348750E+00  0.42917431955E+00  0.11803490645E+01  0.00000000000E+00 0.  1.
         11    1    3    3    0    0  0.16752602477E+02  0.28831000252E+02  0.16279778911E+02  0.37106703800E+02  0.51100000000E-03 0. -1.
        -11    1    3    3    0    0 -0.89377221748E+00  0.93046299390E+01  0.31075480606E-01  0.93475094557E+01  0.51100000000E-03 0.  1.
        -12    1    3    3    0    0 -0.15336401682E+02 -0.37168106703E+02 -0.16740028711E+02  0.43553437680E+02  0.00000000000E+00 0.  1.
</event>
<event>
 7    1  0.1756449E-015  0.9000779E+02  0.7816164E-02  0.1186339E+00
        -11   -1    0    0    0    0  0.00000000000E+00  0.00000000000E+00  0.45593999997E+02  0.45594000000E+02  0.51100000000E-03 0.  1.
         11   -1    0    0    0    0 -0.00000000000E+00 -0.00000000000E+00 -0.45593999997E+02  0.45594000000E+02  0.51100000000E-03 0. -1.
    9900012    2    1    2    0    0  0.67274272575E+00  0.82388010388E+00  0.51140612495E+00  0.90007789245E+02  0.90000051263E+02 0.  0.
        -12    1    1    2    0    0 -0.67274272575E+00 -0.82388010388E+00 -0.51140612495E+00  0.11802107546E+01  0.00000000000E+00 0.  1.
         11    1    3    3    0    0  0.62546612695E+01 -0.57959627116E+01  0.42841737587E+01  0.95429616161E+01  0.51100000000E-03 0. -1.
        -11    1    3    3    0    0  0.30552373657E+02  0.13051600443E+00  0.20192751794E+02  0.36622558564E+02  0.51100000000E-03 0.  1.
         12    1    3    3    0    0 -0.36134292201E+02  0.64893268111E+01 -0.23965519428E+02  0.43842269065E+02  0.00000000000E+00 0. -1.
</event>
<event>
 7    1  0.1756449E-015  0.9000767E+02  0.7816164E-02  0.1186339E+00
        -11   -1    0    0    0    0  0.00000000000E+00  0.00000000000E+00  0.45593999997E+02  0.45594000000E+02  0.51100000000E-03 0.  1.
         11   -1    0    0    0    0 -0.00000000000E+00 -0.00000000000E+00 -0.45593999997E+02  0.45594000000E+02  0.51100000000E-03 0. -1.
    9900012    2    1    2    0    0  0.94984998447E+00 -0.54928029927E+00  0.43502474621E+00  0.90007673617E+02  0.89999934109E+02 0.  0.
        -12    1    1    2    0    0 -0.94984998447E+00  0.54928029927E+00 -0.43502474621E+00  0.11803263828E+01  0.00000000000E+00 0.  1.
         11    1    3    3    0    0 -0.34940455698E+02 -0.12274979182E+02  0.16907244115E+01  0.37072484509E+02  0.51100000000E-03 0. -1.
        -11    1    3    3    0    0 -0.40986019405E+01  0.15466479815E+01 -0.98548134002E+01  0.10784618920E+02  0.51100000000E-03 0.  1.
        -12    1    3    3    0    0  0.39988907623E+02  0.10179050902E+02  0.85991137349E+01  0.42150570188E+02  0.00000000000E+00 0.  1.
</event>
<event>
 7    1  0.1756449E-015  0.9000771E+02  0.7816164E-02  0.1186339E+00
        -11   -1    0    0    0    0  0.00000000000E+00  0.00000000000E+00  0.45593999997E+02  0.45594000000E+02  0.51100000000E-03 0.  1.
         11   -1    0    0    0    0 -0.00000000000E+00 -0.00000000000E+00 -0.45593999997E+02  0.45594000000E+02  0.51100000000E-03 0. -1.
    9900012    2    1    2    0    0  0.14189289724E+00  0.11191704760E+01 -0.34699352904E+00  0.90007711621E+02  0.89999972614E+02 0.  0.
        -12    1    1    2    0    0 -0.14189289724E+00 -0.11191704760E+01  0.34699352904E+00  0.11802883791E+01  0.00000000000E+00 0.  1.
         11    1    3    3    0    0 -0.16799915267E+02  0.58121725937E+01 -0.32406072529E+02  0.36961764572E+02  0.51100000000E-03 0. -1.
        -11    1    3    3    0    0 -0.30439507208E+01 -0.56619029854E+01 -0.67878395723E+01  0.93486655586E+01  0.51100000000E-03 0.  1.
        -12    1    3    3    0    0  0.19985758885E+02  0.96890086768E+00  0.38846918572E+02  0.43697281491E+02  0.00000000000E+00 0.  1.
</event>
<event>
 7    1  0.1756449E-015  0.9000778E+02  0.7816164E-02  0.1186339E+00
        -11   -1    0    0    0    0  0.00000000000E+00  0.00000000000E+00  0.45593999997E+02  0.45594000000E+02  0.51100000000E-03 0.  1.
         11   -1    0    0    0    0 -0.00000000000E+00 -0.00000000000E+00 -0.45593999997E+02  0.45594000000E+02  0.51100000000E-03 0. -1.
    9900012    2    1    2    0    0  0.44057892000E+00 -0.94511467364E+00 -0.55279113850E+00  0.90007775626E+02  0.90000037464E+02 0.  0.
        -12    1    1    2    0    0 -0.44057892000E+00  0.94511467364E+00  0.55279113850E+00  0.11802243744E+01  0.00000000000E+00 0.  1.
         11    1    3    3    0    0 -0.81271599925E+01  0.39663212796E+01 -0.30719321975E+01  0.95508743958E+01  0.51100000000E-03 0. -1.
        -11    1    3    3    0    0  0.67077137425E+01 -0.14451746463E+01  0.41103621904E+02  0.41672409185E+02  0.51100000000E-03 0.  1.
         12    1    3    3    0    0  0.18600251700E+01 -0.34662613070E+01 -0.38584480845E+02  0.38784492045E+02  0.00000000000E+00 0. -1.
</event>
<event>
 7    1  0.1756449E-015  0.9000777E+02  0.7816164E-02  0.1186339E+00
        -11   -1    0    0    0    0  0.00000000000E+00  0.00000000000E+00  0.45593999997E+02  0.45594000000E+02  0.51100000000E-03 0.  1.
         11   -1    0    0    0    0 -0.00000000000E+00 -0.00000000000E+00 -0.45593999997E+02  0.45594000000E+02  0.51100000000E-03 0. -1.
    9900012    2    1    2    0    0  0.90758488161E+00  0.74296404335E-01 -0.75080892245E+00  0.90007769382E+02  0.90000031138E+02 0.  0.
        -12    1    1    2    0    0 -0.90758488161E+00 -0.74296404335E-01  0.75080892245E+00  0.11802306177E+01  0.00000000000E+00 0.  1.
         11    1    3    3    0    0  0.37433647213E+02 -0.12272950887E+02 -0.44350470513E+01  0.39643068874E+02  0.51100000000E-03 0. -1.
        -11    1    3    3    0    0 -0.32296076741E+00 -0.84093147284E+01  0.17051273938E+01  0.85865206894E+01  0.51100000000E-03 0.  1.
        -12    1    3    3    0    0 -0.36203101564E+02  0.20756562020E+02  0.19791107350E+01  0.41778179819E+02  0.00000000000E+00 0.  1.
</event>
<event>
 7    1  0.1756449E-015  0.9000785E+02  0.7816164E-02  0.1186339E+00
        -11   -1    0    0    0    0  0.00000000000E+00  0.00000000000E+00  0.45593999997E+02  0.45594000000E+02  0.51100000000E-03 0. -1.
         11   -1    0    0    0    0 -0.00000000000E+00 -0.00000000000E+00 -0.45593999997E+02  0.45594000000E+02  0.51100000000E-03 0.  1.
    9900012    2    1    2    0    0 -0.85468915572E+00  0.18395517088E+00  0.79272445102E+00  0.90007853775E+02  0.90000116644E+02 0.  0.
        -12    1    1    2    0    0  0.85468915572E+00 -0.18395517088E+00 -0.79272445102E+00  0.11801462253E+01  0.00000000000E+00 0.  1.
         11    1    3    3    0    0 -0.79828284014E+01  0.18221418498E+02  0.29671690583E+02  0.35723309808E+02  0.51100000000E-03 0. -1.
        -11    1    3    3    0    0  0.42884459596E+01  0.50642283075E+01  0.81733535293E+01  0.10528099794E+02  0.51100000000E-03 0.  1.
        -12    1    3    3    0    0  0.28396932860E+01 -0.23101691634E+02 -0.37052319661E+02  0.43756444172E+02  0.00000000000E+00 0.  1.
</event>
<event>
 7    1  0.1756449E-015  0.9000780E+02  0.7816164E-02  0.1186339E+00
        -11   -1    0    0    0    0  0.00000000000E+00  0.00000000000E+00  0.45593999997E+02  0.45594000000E+02  0.51100000000E-03 0. -1.
         11   -1    0    0    0    0 -0.00000000000E+00 -0.00000000000E+00 -0.45593999997E+02  0.45594000000E+02  0.51100000000E-03 0.  1.
    9900012    2    1    2    0    0  0.20673496907E+00 -0.94465615585E+00  0.67658279638E+00  0.90007797102E+02  0.90000059224E+02 0.  0.
        -12    1    1    2    0    0 -0.20673496907E+00  0.94465615585E+00 -0.67658279638E+00  0.11802028981E+01  0.00000000000E+00 0.  1.
         11    1    3    3    0    0  0.16213309679E+02 -0.35771885659E+02  0.19253350031E+01  0.39321827647E+02  0.51100000000E-03 0. -1.
        -11    1    3    3    0    0 -0.18744800665E+01 -0.13706541058E+01 -0.10489599444E+02  0.10743559231E+02  0.51100000000E-03 0.  1.
        -12    1    3    3    0    0 -0.14132094643E+02  0.36197883609E+02  0.92408472375E+01  0.39942410224E+02  0.00000000000E+00 0.  1.
</event>
<event>
 7    1  0.1756449E-015  0.9000776E+02  0.7816164E-02  0.1186339E+00
        -11   -1    0    0    0    0  0.00000000000E+00  0.00000000000E+00  0.45593999997E+02  0.45594000000E+02  0.51100000000E-03 0.  1.
         11   -1    0    0    0    0 -0.00000000000E+00 -0.00000000000E+00 -0.45593999997E+02  0.45594000000E+02  0.51100000000E-03 0. -1.
    9900012    2    1    2    0    0 -0.11290168708E+01  0.26656751341E+00  0.21734461442E+00  0.90007755951E+02  0.90000017530E+02 0.  0.
        -12    1    1    2    0    0  0.11290168708E+01 -0.26656751341E+00 -0.21734461442E+00  0.11802440490E+01  0.00000000000E+00 0.  1.
         11    1    3    3    0    0  0.70822798668E+01  0.25914399277E+01  0.55025358674E+01  0.93355315994E+01  0.51100000000E-03 0. -1.
        -11    1    3    3    0    0 -0.29552034465E+02  0.26539259356E+02  0.11058063359E+02  0.41230277633E+02  0.51100000000E-03 0.  1.
         12    1    3    3    0    0  0.21340737728E+02 -0.28864131770E+02 -0.16343254612E+02  0.39441946718E+02  0.00000000000E+00 0. -1.
</event>
<event>
 7    1  0.1756449E-015  0.9000764E+02  0.7816164E-02  0.1186339E+00
        -11   -1    0    0    0    0  0.00000000000E+00  0.00000000000E+00  0.45593999997E+02  0.45594000000E+02  0.51100000000E-03 0. -1.
         11   -1    0    0    0    0 -0.00000000000E+00 -0.00000000000E+00 -0.45593999997E+02  0.45594000000E+02  0.51100000000E-03 0.  1.
    9900012    2    1    2    0    0 -0.30258785727E+00  0.97441906144E+00 -0.59346416884E+00  0.90007639191E+02  0.89999899229E+02 0.  0.
        -12    1    1    2    0    0  0.30258785727E+00 -0.97441906144E+00  0.59346416884E+00  0.11803608086E+01  0.00000000000E+00 0.  1.
         11    1    3    3    0    0 -0.20046600133E-01 -0.84402626104E+01 -0.55328242842E+01  0.10092104816E+02  0.51100000000E-03 0. -1.
        -11    1    3    3    0    0  0.21617103498E+02  0.21939132217E+02 -0.25779678077E+02  0.40164866339E+02  0.51100000000E-03 0.  1.
         12    1    3    3    0    0 -0.21899644755E+02 -0.12524450545E+02  0.30719038192E+02  0.39750668036E+02  0.00000000000E+00 0. -1.
</event>
<event>
 7    1  0.1756449E-015  0.9000745E+02  0.7816164E-02  0.1186340E+00
        -11   -1    0    0    0    0  0.00000000000E+00  0.00000000000E+00  0.45593999997E+02  0.45594000000E+02  0.51100000000E-03 0. -1.
         11   -1    0    0    0    0 -0.00000000000E+00 -0.00000000000E+00 -0.45593999997E+02  0.45594000000E+02  0.51100000000E-03 0.  1.
    9900012    2    1    2    0    0 -0.77481430910E+00  0.53428456677E+00 -0.71267299392E+00  0.90007449278E+02  0.89999706808E+02 0.  0.
        -12    1    1    2    0    0  0.77481430910E+00 -0.53428456677E+00  0.71267299392E+00  0.11805507224E+01  0.00000000000E+00 0.  1.
         11    1    3    3    0    0 -0.16813061285E+02 -0.26941518460E+02  0.18876049381E+02  0.36943601438E+02  0.51100000000E-03 0. -1.
        -11    1    3    3    0    0 -0.58678306319E+01 -0.65660763765E+01 -0.28131614253E+01  0.92443860138E+01  0.51100000000E-03 0.  1.
        -12    1    3    3    0    0  0.21906077608E+02  0.34041879404E+02 -0.16775560950E+02  0.43819461826E+02  0.00000000000E+00 0.  1.
</event>
<event>
 7    1  0.1756449E-015  0.9000774E+02  0.7816164E-02  0.1186339E+00
        -11   -1    0    0    0    0  0.00000000000E+00  0.00000000000E+00  0.45593999997E+02  0.45594000000E+02  0.51100000000E-03 0. -1.
         11   -1    0    0    0    0 -0.00000000000E+00 -0.00000000000E+00 -0.45593999997E+02  0.45594000000E+02  0.51100000000E-03 0.  1.
    9900012    2    1    2    0    0  0.86401971498E+00 -0.35480654531E+00  0.72151579924E+00  0.90007744603E+02  0.90000006032E+02 0.  0.
        -12    1    1    2    0    0 -0.86401971498E+00  0.35480654531E+00 -0.72151579924E+00  0.11802553965E+01  0.00000000000E+00 0.  1.
         11    1    3    3    0    0 -0.91830175319E+00 -0.20464274024E+01  0.87968624474E+01  0.90783221138E+01  0.51100000000E-03 0. -1.
        -11    1    3    3    0    0 -0.13812434222E+02 -0.34825771372E+02 -0.15480062199E+02  0.40537020324E+02  0.51100000000E-03 0.  1.
         12    1    3    3    0    0  0.15594755690E+02  0.36517392230E+02  0.74047155509E+01  0.40392402165E+02  0.00000000000E+00 0. -1.
</event>
<event>
 7    1  0.1756449E-015  0.9000769E+02  0.7816164E-02  0.1186339E+00
        -11   -1    0    0    0    0  0.00000000000E+00  0.00000000000E+00  0.45593999997E+02  0.45594000000E+02  0.51100000000E-03 0. -1.
         11   -1    0    0    0    0 -0.00000000000E+00 -0.00000000000E+00 -0.45593999997E+02  0.45594000000E+02  0.51100000000E-03 0.  1.
    9900012    2    1    2    0    0 -0.12703350508E+00 -0.42855283954E+00  0.10923990310E+01  0.90007690426E+02  0.89999951140E+02 0.  0.
        -12    1    1    2    0    0  0.12703350508E+00  0.42855283954E+00 -0.10923990310E+01  0.11803095741E+01  0.00000000000E+00 0.  1.
         11    1    3    3    0    0 -0.57983025849E+01  0.18501172168E+02 -0.95583234158E+01  0.21616549939E+02  0.51100000000E-03 0. -1.
        -11    1    3    3    0    0 -0.10513050449E+01  0.23831585816E+02  0.74294646480E+01  0.24984928857E+02  0.51100000000E-03 0.  1.
         12    1    3    3    0    0  0.67225741247E+01 -0.42761310824E+02  0.32212577988E+01  0.43406211630E+02  0.00000000000E+00 0. -1.
</event>
<event>
 7    1  0.1756449E-015  0.9000783E+02  0.7816164E-02  0.1186339E+00
        -11   -1    0    0    0    0  0.00000000000E+00  0.00000000000E+00  0.45593999997E+02  0.45594000000E+02  0.51100000000E-03 0.  1.
         11   -1    0    0    0    0 -0.00000000000E+00 -0.00000000000E+00 -0.45593999997E+02  0.45594000000E+02  0.51100000000E-03 0. -1.
    9900012    2    1    2    0    0  0.10315850818E+01 -0.46829611725E+00 -0.33066219480E+00  0.90007827758E+02  0.90000090284E+02 0.  0.
        -12    1    1    2    0    0 -0.10315850818E+01  0.46829611725E+00  0.33066219480E+00  0.11801722423E+01  0.00000000000E+00 0.  1.
         11    1    3    3    0    0 -0.21555159456E+02 -0.28971780015E+02 -0.74352028095E+01  0.36868295018E+02  0.51100000000E-03 0. -1.
        -11    1    3    3    0    0 -0.86159725100E+01 -0.72928023432E+00 -0.30928840777E+01  0.91832872182E+01  0.51100000000E-03 0.  1.
        -12    1    3    3    0    0  0.31202717048E+02  0.29232764132E+02  0.10197424692E+02  0.43956245522E+02  0.00000000000E+00 0.  1.
</event>
<event>
 7    1  0.1756449E-015  0.9000778E+02  0.7816164E-02  0.1186339E+00
        -11   -1    0    0    0    0  0.00000000000E+00  0.00000000000E+00  0.45593999997E+02  0.45594000000E+02  0.51100000000E-03 0. -1.
         11   -1    0    0    0    0 -0.00000000000E+00 -0.00000000000E+00 -0.45593999997E+02  0.45594000000E+02  0.51100000000E-03 0.  1.
    9900012    2    1    2    0    0  0.44655586872E+00  0.10858903874E+01 -0.11977166963E+00  0.90007781660E+02  0.90000043578E+02 0.  0.
        -12    1    1    2    0    0 -0.44655586872E+00 -0.10858903874E+01  0.11977166963E+00  0.11802183400E+01  0.00000000000E+00 0.  1.
         11    1    3    3    0    0  0.10048239931E+02 -0.13592147246E+02 -0.36635553963E+02  0.40346962797E+02  0.51100000000E-03 0. -1.
        -11    1    3    3    0    0 -0.11857962071E+02  0.10397548908E+02  0.33229361255E+01  0.16117139713E+02  0.51100000000E-03 0.  1.
        -12    1    3    3    0    0  0.22562780083E+01  0.42804887256E+01  0.33192846168E+02  0.33543679150E+02  0.00000000000E+00 0.  1.
</event>
<event>
 7    1  0.1756449E-015  0.9000772E+02  0.7816164E-02  0.1186339E+00
        -11   -1    0    0    0    0  0.00000000000E+00  0.00000000000E+00  0.45593999997E+02  0.45594000000E+02  0.51100000000E-03 0.  1.
         11   -1    0    0    0    0 -0.00000000000E+00 -0.00000000000E+00 -0.45593999997E+02  0.45594000000E+02  0.51100000000E-03 0. -1.
    9900012    2    1    2    0    0 -0.75193701542E+00  0.77295867355E+00  0.47976979379E+00  0.90007723151E+02  0.89999984296E+02 0.  0.
        -12    1    1    2    0    0  0.75193701542E+00 -0.77295867355E+00 -0.47976979379E+00  0.11802768494E+01  0.00000000000E+00 0.  1.
         11    1    3    3    0    0 -0.21808035356E+01  0.14559570760E+02 -0.33303808225E+02  0.36412644059E+02  0.51100000000E-03 0. -1.
        -11    1    3    3    0    0 -0.69385057382E+01 -0.78461959036E+00 -0.70557493303E+01  0.99268367900E+01  0.51100000000E-03 0.  1.
        -12    1    3    3    0    0  0.83673722584E+01 -0.13001992496E+02  0.40839327350E+02  0.43668242302E+02  0.00000000000E+00 0.  1.
</event>
<event>
 7    1  0.1756449E-015  0.9000777E+02  0.7816164E-02  0.1186339E+00
        -11   -1    0    0    0    0  0.00000000000E+00  0.00000000000E+00  0.45593999997E+02  0.45594000000E+02  0.51100000000E-03 0.  1.
         11   -1    0    0    0    0 -0.00000000000E+00 -0.00000000000E+00 -0.45593999997E+02  0.45594000000E+02  0.51100000000E-03 0. -1.
    9900012    2    1    2    0    0 -0.11666898206E+01  0.15313055498E+00  0.91210471825E-01  0.90007773982E+02  0.90000035798E+02 0.  0.
        -12    1    1    2    0    0  0.11666898206E+01 -0.15313055498E+00 -0.91210471825E-01  0.11802260184E+01  0.00000000000E+00 0.  1.
         11    1    3    3    0    0  0.74241011450E+01  0.26828086419E+01  0.62911000091E+00  0.79189973907E+01  0.51100000000E-03 0. -1.
        -11    1    3    3    0    0  0.14890833930E+02  0.33763539142E+02 -0.91344366843E+01  0.38015147564E+02  0.51100000000E-03 0.  1.
         12    1    3    3    0    0 -0.23481624895E+02 -0.36293217229E+02  0.85965371552E+01  0.44073629027E+02  0.00000000000E+00 0. -1.
</event>
<event>
 7    1  0.1756449E-015  0.9000758E+02  0.7816164E-02  0.1186339E+00
        -11   -1    0    0    0    0  0.00000000000E+00  0.00000000000E+00  0.45593999997E+02  0.45594000000E+02  0.51100000000E-03 0. -1.
         11   -1    0    0    0    0 -0.00000000000E+00 -0.00000000000E+00 -0.45593999997E+02  0.45594000000E+02  0.51100000000E-03 0.  1.
    9900012    2    1    2    0    0 -0.11140670113E+01  0.36033581213E+00  0.14969572686E+00  0.90007578036E+02  0.89999837266E+02 0.  0.
        -12    1    1    2    0    0  0.11140670113E+01 -0.36033581213E+00 -0.14969572686E+00  0.11804219643E+01  0.00000000000E+00 0.  1.
         11    1    3    3    0    0  0.16142191730E+02  0.37975221747E+02 -0.10153841037E+02  0.42494567990E+02  0.51100000000E-03 0. -1.
        -11    1    3    3    0    0  0.23482173776E+01 -0.48618811057E+01 -0.40313317139E+01  0.67382229399E+01  0.51100000000E-03 0.  1.
        -12    1    3    3    0    0 -0.19604476118E+02 -0.32753004829E+02  0.14334868478E+02  0.40774787106E+02  0.00000000000E+00 0.  1.
</event>
<event>
 7    1  0.1756449E-015  0.9000777E+02  0.7816164E-02  0.1186339E+00
        -11   -1    0    0    0    0  0.00000000000E+00  0.00000000000E+00  0.45593999997E+02  0.45594000000E+02  0.51100000000E-03 0. -1.
         11   -1    0    0    0    0 -0.00000000000E+00 -0.00000000000E+00 -0.45593999997E+02  0.45594000000E+02  0.51100000000E-03 0.  1.
    9900012    2    1    2    0    0 -0.65942646978E+00  0.51158569107E+00  0.83449781597E+00  0.90007767060E+02  0.90000028785E+02 0.  0.
        -12    1    1    2    0    0  0.65942646978E+00 -0.51158569107E+00 -0.83449781597E+00  0.11802329402E+01  0.00000000000E+00 0.  1.
         11    1    3    3    0    0 -0.17519539418E+01  0.62064137750E+01 -0.57834382032E+01  0.86623941421E+01  0.51100000000E-03 0. -1.
        -11    1    3    3    0    0  0.23640358829E+02  0.30211629621E+02  0.67229283497E+01  0.38946205152E+02  0.51100000000E-03 0.  1.
         12    1    3    3    0    0 -0.22547831356E+02 -0.35906457705E+02 -0.10499233056E+00  0.42399167765E+02  0.00000000000E+00 0. -1.
</event>
<event>
 7    1  0.1756449E-015  0.9000779E+02  0.7816164E-02  0.1186339E+00
        -11   -1    0    0    0    0  0.00000000000E+00  0.00000000000E+00  0.45593999997E+02  0.45594000000E+02  0.51100000000E-03 0.  1.
         11   -1    0    0    0    0 -0.00000000000E+00 -0.00000000000E+00 -0.45593999997E+02  0.45594000000E+02  0.51100000000E-03 0. -1.
    9900012    2    1    2    0    0  0.57270110071E+00 -0.54128530120E+00 -0.87859498240E+00  0.90007785837E+02  0.90000047810E+02 0.  0.
        -12    1    1    2    0    0 -0.57270110071E+00  0.54128530120E+00  0.87859498240E+00  0.11802141633E+01  0.00000000000E+00 0.  1.
         11    1    3    3    0    0 -0.16502265041E+01  0.51627445937E+01  0.86155177934E+01  0.10178621044E+02  0.51100000000E-03 0. -1.
        -11    1    3    3    0    0 -0.33219012991E+02  0.11844546640E+02  0.86567062520E+01  0.36314386579E+02  0.51100000000E-03 0.  1.
         12    1    3    3    0    0  0.35441940596E+02 -0.17548576535E+02 -0.18150819028E+02  0.43514778214E+02  0.00000000000E+00 0. -1.
</event>
<event>
 7    1  0.1756449E-015  0.9000772E+02  0.7816164E-02  0.1186339E+00
        -11   -1    0    0    0    0  0.00000000000E+00  0.00000000000E+00  0.45593999997E+02  0.45594000000E+02  0.51100000000E-03 0.  1.
         11   -1    0    0    0    0 -0.00000000000E+00 -0.00000000000E+00 -0.45593999997E+02  0.45594000000E+02  0.51100000000E-03 0. -1.
    9900012    2    1    2    0    0 -0.96008040814E+00 -0.51039250148E+00 -0.45913301640E+00  0.90007721210E+02  0.89999982330E+02 0.  0.
        -12    1    1    2    0    0  0.96008040814E+00  0.51039250148E+00  0.45913301640E+00  0.11802787901E+01  0.00000000000E+00 0.  1.
         11    1    3    3    0    0 -0.25817201012E+02  0.32544008359E+01 -0.29517110527E+02  0.39349444813E+02  0.51100000000E-03 0. -1.
        -11    1    3    3    0    0 -0.53520830642E+01 -0.76061980291E+01  0.11850443177E+01  0.93756798089E+01  0.51100000000E-03 0.  1.
        -12    1    3    3    0    0  0.30209203668E+02  0.38414046917E+01  0.27872933193E+02  0.41282596588E+02  0.00000000000E+00 0.  1.
</event>
<event>
 7    1  0.1756449E-015  0.9000763E+02  0.7816164E-02  0.1186339E+00
        -11   -1    0    0    0    0  0.00000000000E+00  0.00000000000E+00  0.45593999997E+02  0.45594000000E+02  0.51100000000E-03 0.  1.
         11   -1    0    0    0    0 -0.00000000000E+00 -0.00000000000E+00 -0.45593999997E+02  0.45594000000E+02  0.51100000000E-03 0. -1.
    9900012    2    1    2    0    0 -0.62725480754E+00  0.21003194045E+00 -0.97760626641E+00  0.90007628863E+02  0.89999888764E+02 0.  0.
        -12    1    1    2    0    0  0.62725480754E+00 -0.21003194045E+00  0.97760626641E+00  0.11803711373E+01  0.00000000000E+00 0.  1.
         11    1    3    3    0    0 -0.24793623929E+01  0.82437827050E+01 -0.14911434759E+01  0.87367442614E+01  0.51100000000E-03 0. -1.
        -11    1    3    3    0    0  0.38691849068E+02  0.92981973704E+01 -0.52997301564E+01  0.40144772992E+02  0.51100000000E-03 0.  1.
         12    1    3    3    0    0 -0.36839741482E+02 -0.17331948135E+02  0.58132673659E+01  0.41126111609E+02  0.00000000000E+00 0. -1.
</event>
<event>
 7    1  0.1756449E-015  0.9000770E+02  0.7816164E-02  0.1186339E+00
        -11   -1    0    0    0    0  0.00000000000E+00  0.00000000000E+00  0.45593999997E+02  0.45594000000E+02  0.51100000000E-03 0.  1.
         11   -1    0    0    0    0 -0.00000000000E+00 -0.00000000000E+00 -0.45593999997E+02  0.45594000000E+02  0.51100000000E-03 0. -1.
    9900012    2    1    2    0    0 -0.93231566886E+00  0.71212950181E+00 -0.12951696820E+00  0.90007696828E+02  0.89999957626E+02 0.  0.
        -12    1    1    2    0    0  0.93231566886E+00 -0.71212950181E+00  0.12951696820E+00  0.11803031724E+01  0.00000000000E+00 0.  1.
         11    1    3    3    0    0 -0.10904391993E+02 -0.97983358607E+01  0.48155586602E+00  0.14667823516E+02  0.51100000000E-03 0. -1.
        -11    1    3    3    0    0  0.25764712558E+02 -0.12745053222E+02  0.24406618930E+02  0.37708617618E+02  0.51100000000E-03 0.  1.
         12    1    3    3    0    0 -0.15792636234E+02  0.23255518585E+02 -0.25017691765E+02  0.37631255694E+02  0.00000000000E+00 0. -1.
</event>
<event>
 7    1  0.1756449E-015  0.9000773E+02  0.7816164E-02  0.1186339E+00
        -11   -1    0    0    0    0  0.00000000000E+00  0.00000000000E+00  0.45593999997E+02  0.45594000000E+02  0.51100000000E-03 0. -1.
         11   -1    0    0    0    0 -0.00000000000E+00 -0.00000000000E+00 -0.45593999997E+02  0.45594000000E+02  0.51100000000E-03 0.  1.
    9900012    2    1    2    0    0 -0.22965696041E+00 -0.11512420213E+01 -0.12224975575E+00  0.90007726509E+02  0.89999987699E+02 0.  0.
        -12    1    1    2    0    0  0.22965696041E+00  0.11512420213E+01  0.12224975575E+00  0.11802734911E+01  0.00000000000E+00 0.  1.
         11    1    3    3    0    0 -0.20312101582E+01 -0.89508057244E+01  0.47257625810E+00  0.91905422258E+01  0.51100000000E-03 0. -1.
        -11    1    3    3    0    0  0.28371963501E+02 -0.42432500318E+01 -0.28506848559E+02  0.40442723681E+02  0.51100000000E-03 0.  1.
         12    1    3    3    0    0 -0.26570410303E+02  0.12042813735E+02  0.27912022546E+02  0.40374460602E+02  0.00000000000E+00 0. -1.
</event>
<event>
 7    1  0.1756449E-015  0.9000785E+02  0.7816164E-02  0.1186339E+00
        -11   -1    0    0    0    0  0.00000000000E+00  0.00000000000E+00  0.45593999997E+02  0.45594000000E+02  0.51100000000E-03 0.  1.
         11   -1    0    0    0    0 -0.00000000000E+00 -0.00000000000E+00 -0.45593999997E+02  0.45594000000E+02  0.51100000000E-03 0. -1.
    9900012    2    1    2    0    0 -0.39611111471E-01 -0.11791342909E+01  0.28672934566E-01  0.90007852190E+02  0.90000115039E+02 0.  0.
        -12    1    1    2    0    0  0.39611111471E-01  0.11791342909E+01 -0.28672934566E-01  0.11801478099E+01  0.00000000000E+00 0.  1.
         11    1    3    3    0    0  0.19486469703E+00  0.30687840167E+02 -0.25787263480E+02  0.40084466622E+02  0.51100000000E-03 0. -1.
        -11    1    3    3    0    0  0.57544728515E+00  0.51149431370E+01  0.61838877651E+01  0.80457598165E+01  0.51100000000E-03 0.  1.
        -12    1    3    3    0    0 -0.80992309365E+00 -0.36981917595E+02  0.19632048650E+02  0.41877625751E+02  0.00000000000E+00 0.  1.
</event>
<event>
 7    1  0.1756449E-015  0.9000773E+02  0.7816164E-02  0.1186339E+00
        -11   -1    0    0    0    0  0.00000000000E+00  0.00000000000E+00  0.45593999997E+02  0.45594000000E+02  0.51100000000E-03 0.  1.
         11   -1    0    0    0    0 -0.00000000000E+00 -0.00000000000E+00 -0.45593999997E+02  0.45594000000E+02  0.51100000000E-03 0. -1.
    9900012    2    1    2    0    0  0.93587892249E+00  0.23023354529E-01 -0.71877747113E+00  0.90007728639E+02  0.89999989857E+02 0.  0.
        -12    1    1    2    0    0 -0.93587892249E+00 -0.23023354529E-01  0.71877747113E+00  0.11802713609E+01  0.00000000000E+00 0.  1.
         11    1    3    3    0    0  0.87775103739E+01 -0.38741871417E+01 -0.63436296178E+01  0.11501984671E+02  0.51100000000E-03 0. -1.
        -11    1    3    3    0    0  0.99576264279E+01  0.41545261698E+01  0.39116490971E+02  0.40577263066E+02  0.51100000000E-03 0.  1.
         12    1    3    3    0    0 -0.17799257879E+02 -0.25731567355E+00 -0.33491638824E+02  0.37928480902E+02  0.00000000000E+00 0. -1.
</event>
<event>
 7    1  0.1756449E-015  0.9000731E+02  0.7816164E-02  0.1186340E+00
        -11   -1    0    0    0    0  0.00000000000E+00  0.00000000000E+00  0.45593999997E+02  0.45594000000E+02  0.51100000000E-03 0.  1.
         11   -1    0    0    0    0 -0.00000000000E+00 -0.00000000000E+00 -0.45593999997E+02  0.45594000000E+02  0.51100000000E-03 0. -1.
    9900012    2    1    2    0    0 -0.19232600175E+00  0.57726210062E+00 -0.10118326851E+01  0.90007311131E+02  0.89999566836E+02 0.  0.
        -12    1    1    2    0    0  0.19232600175E+00 -0.57726210062E+00  0.10118326851E+01  0.11806888694E+01  0.00000000000E+00 0.  1.
         11    1    3    3    0    0 -0.34891510453E+01  0.90199607821E+01  0.17153714739E+00  0.96728120410E+01  0.51100000000E-03 0. -1.
        -11    1    3    3    0    0 -0.37669768994E+02 -0.45536433392E+01 -0.75680161313E+01  0.38691368962E+02  0.51100000000E-03 0.  1.
         12    1    3    3    0    0  0.40966594037E+02 -0.38890553423E+01  0.63846462988E+01  0.41643130128E+02  0.00000000000E+00 0. -1.
</event>
<event>
 7    1  0.1756449E-015  0.9000764E+02  0.7816164E-02  0.1186339E+00
        -11   -1    0    0    0    0  0.00000000000E+00  0.00000000000E+00  0.45593999997E+02  0.45594000000E+02  0.51100000000E-03 0. -1.
         11   -1    0    0    0    0 -0.00000000000E+00 -0.00000000000E+00 -0.45593999997E+02  0.45594000000E+02  0.51100000000E-03 0.  1.
    9900012    2    1    2    0    0  0.88778456323E+00 -0.27647478775E+00 -0.72708501197E+00  0.90007638888E+02  0.89999898922E+02 0.  0.
        -12    1    1    2    0    0 -0.88778456323E+00  0.27647478775E+00  0.72708501197E+00  0.11803611115E+01  0.00000000000E+00 0.  1.
         11    1    3    3    0    0 -0.22713037700E+02  0.32069388173E+02 -0.11310394108E+02  0.40893187141E+02  0.51100000000E-03 0. -1.
        -11    1    3    3    0    0  0.92083138178E+01  0.26683426425E+01  0.51102248577E+01  0.10864045940E+02  0.51100000000E-03 0.  1.
        -12    1    3    3    0    0  0.14392508446E+02 -0.35014205604E+02  0.54730842379E+01  0.38250405808E+02  0.00000000000E+00 0.  1.
</event>
<event>
 7    1  0.1756449E-015  0.9000760E+02  0.7816164E-02  0.1186339E+00
        -11   -1    0    0    0    0  0.00000000000E+00  0.00000000000E+00  0.45593999997E+02  0.45594000000E+02  0.51100000000E-03 0.  1.
         11   -1    0    0    0    0 -0.00000000000E+00 -0.00000000000E+00 -0.45593999997E+02  0.45594000000E+02  0.51100000000E-03 0. -1.
    9900012    2    1    2    0    0  0.10671455324E+01  0.11891655770E+00 -0.49031511970E+00  0.90007597674E+02  0.89999857163E+02 0.  0.
        -12    1    1    2    0    0 -0.10671455324E+01 -0.11891655770E+00  0.49031511970E+00  0.11804023262E+01  0.00000000000E+00 0.  1.
         11    1    3    3    0    0  0.40680564399E+02  0.15808938162E+01  0.30807998243E+01  0.40827672881E+02  0.51100000000E-03 0. -1.
        -11    1    3    3    0    0 -0.68190657255E+01 -0.10567020286E+02 -0.79291651275E+01  0.14867186519E+02  0.51100000000E-03 0.  1.
        -12    1    3    3    0    0 -0.32794353141E+02  0.91050430278E+01  0.43580501835E+01  0.34312738274E+02  0.00000000000E+00 0.  1.
</event>
<event>
 7    1  0.1756449E-015  0.9000767E+02  0.7816164E-02  0.1186339E+00
        -11   -1    0    0    0    0  0.00000000000E+00  0.00000000000E+00  0.45593999997E+02  0.45594000000E+02  0.51100000000E-03 0.  1.
         11   -1    0    0    0    0 -0.00000000000E+00 -0.00000000000E+00 -0.45593999997E+02  0.45594000000E+02  0.51100000000E-03 0. -1.
    9900012    2    1    2    0    0  0.35831505502E+00  0.95409707908E+00  0.59538553870E+00  0.90007671717E+02  0.89999932184E+02 0.  0.
        -12    1    1    2    0    0 -0.35831505502E+00 -0.95409707908E+00 -0.59538553870E+00  0.11803282826E+01  0.00000000000E+00 0.  1.
         11    1    3    3    0    0 -0.10730734324E+02 -0.31053437278E+02 -0.19209696730E+02  0.38058863286E+02  0.51100000000E-03 0. -1.
        -11    1    3    3    0    0  0.55110861895E+01 -0.67464250646E+01  0.52890767929E+01  0.10191204822E+02  0.51100000000E-03 0.  1.
        -12    1    3    3    0    0  0.55779631899E+01  0.38753959422E+02  0.14516005476E+02  0.41757603609E+02  0.00000000000E+00 0.  1.
</event>
<event>
 7    1  0.1756449E-015  0.9000764E+02  0.7816164E-02  0.1186339E+00
        -11   -1    0    0    0    0  0.00000000000E+00  0.00000000000E+00  0.45593999997E+02  0.45594000000E+02  0.51100000000E-03 0. -1.
         11   -1    0    0    0    0 -0.00000000000E+00 -0.00000000000E+00 -0.45593999997E+02  0.45594000000E+02  0.51100000000E-03 0.  1.
    9900012    2    1    2    0    0  0.24012434256E+00 -0.88211009585E+00  0.74664295180E+00  0.90007638353E+02  0.89999898379E+02 0.  0.
        -12    1    1    2    0    0 -0.24012434256E+00  0.88211009585E+00 -0.74664295180E+00  0.11803616474E+01  0.00000000000E+00 0.  1.
         11    1    3    3    0    0  0.25269061834E+02  0.25840845339E+02  0.38803821601E+00  0.36144506467E+02  0.51100000000E-03 0. -1.
        -11    1    3    3    0    0  0.72554278027E+01  0.33086509011E+01  0.51777023635E+01  0.95077339788E+01  0.51100000000E-03 0.  1.
        -12    1    3    3    0    0 -0.32284365294E+02 -0.30031606336E+02 -0.48190976277E+01  0.44355397907E+02  0.00000000000E+00 0.  1.
</event>
<event>
 7    1  0.1759709E-015  0.9000776E+02  0.7816164E-02  0.1186339E+00
        -11   -1    0    0    0    0  0.00000000000E+00  0.00000000000E+00  0.45593999997E+02  0.45594000000E+02  0.51100000000E-03 0. -1.
         11   -1    0    0    0    0 -0.00000000000E+00 -0.00000000000E+00 -0.45593999997E+02  0.45594000000E+02  0.51100000000E-03 0.  1.
    9900012    2    1    2    0    0 -0.48196317307E+00 -0.50850937718E+00  0.94978918975E+00  0.90007758587E+02  0.90000020201E+02 0.  0.
        -12    1    1    2    0    0  0.48196317307E+00  0.50850937718E+00 -0.94978918975E+00  0.11802414125E+01  0.00000000000E+00 0.  1.
         11    1    3    3    0    0  0.32620986404E+01  0.65936427492E+01  0.61567442542E+01  0.95928573593E+01  0.51100000000E-03 0. -1.
        -11    1    3    3    0    0 -0.10717482147E+02  0.34733263326E+02  0.52652219009E+01  0.36728552473E+02  0.51100000000E-03 0.  1.
         12    1    3    3    0    0  0.69734203332E+01 -0.41835415452E+02 -0.10472176965E+02  0.43686348755E+02  0.00000000000E+00 0. -1.
</event>
<event>
 7    1  0.1756449E-015  0.9000774E+02  0.7816164E-02  0.1186339E+00
        -11   -1    0    0    0    0  0.00000000000E+00  0.00000000000E+00  0.45593999997E+02  0.45594000000E+02  0.51100000000E-03 0. -1.
         11   -1    0    0    0    0 -0.00000000000E+00 -0.00000000000E+00 -0.45593999997E+02  0.45594000000E+02  0.51100000000E-03 0.  1.
    9900012    2    1    2    0    0  0.37415069845E+00 -0.10730448438E+01 -0.31874918989E+00  0.90007739424E+02  0.90000000784E+02 0.  0.
        -12    1    1    2    0    0 -0.37415069845E+00  0.10730448438E+01  0.31874918989E+00  0.11802605763E+01  0.00000000000E+00 0.  1.
         11    1    3    3    0    0 -0.28550144171E+02 -0.41323238160E+01  0.21900307998E+02  0.36218922168E+02  0.51100000000E-03 0. -1.
        -11    1    3    3    0    0 -0.32093760753E+01 -0.41636119714E+01  0.76795906413E+01  0.93065499579E+01  0.51100000000E-03 0.  1.
        -12    1    3    3    0    0  0.32133670945E+02  0.72228909436E+01 -0.29898647829E+02  0.44482267298E+02  0.00000000000E+00 0.  1.
</event>
<event>
 7    1  0.1756449E-015  0.9000778E+02  0.7816164E-02  0.1186339E+00
        -11   -1    0    0    0    0  0.00000000000E+00  0.00000000000E+00  0.45593999997E+02  0.45594000000E+02  0.51100000000E-03 0.  1.
         11   -1    0    0    0    0 -0.00000000000E+00 -0.00000000000E+00 -0.45593999997E+02  0.45594000000E+02  0.51100000000E-03 0. -1.
    9900012    2    1    2    0    0 -0.55805433768E+00 -0.95692039864E+00  0.40717958604E+00  0.90007781161E+02  0.90000043072E+02 0.  0.
        -12    1    1    2    0    0  0.55805433768E+00  0.95692039864E+00 -0.40717958604E+00  0.11802188392E+01  0.00000000000E+00 0.  1.
         11    1    3    3    0    0  0.15191220179E+02  0.32211269227E+02 -0.20348872436E+02  0.41017260335E+02  0.51100000000E-03 0. -1.
        -11    1    3    3    0    0 -0.58280978681E+01 -0.61210197270E+01 -0.54405938883E+01  0.10051550596E+02  0.51100000000E-03 0.  1.
        -12    1    3    3    0    0 -0.99211766488E+01 -0.27047169899E+02  0.26196645910E+02  0.38938970230E+02  0.00000000000E+00 0.  1.
</event>
<event>
 7    1  0.1756449E-015  0.9000736E+02  0.7816164E-02  0.1186340E+00
        -11   -1    0    0    0    0  0.00000000000E+00  0.00000000000E+00  0.45593999997E+02  0.45594000000E+02  0.51100000000E-03 0.  1.
         11   -1    0    0    0    0 -0.00000000000E+00 -0.00000000000E+00 -0.45593999997E+02  0.45594000000E+02  0.51100000000E-03 0. -1.
    9900012    2    1    2    0    0  0.69249415855E+00  0.51470156899E+00  0.80587771405E+00  0.90007362564E+02  0.89999618949E+02 0.  0.
        -12    1    1    2    0    0 -0.69249415855E+00 -0.51470156899E+00 -0.80587771405E+00  0.11806374358E+01  0.00000000000E+00 0.  1.
         11    1    3    3    0    0 -0.82455776578E+01  0.37991709621E+01  0.12418986582E+02  0.15383578222E+02  0.51100000000E-03 0. -1.
        -11    1    3    3    0    0 -0.49696805397E+01 -0.27606681542E+02  0.18414630733E+02  0.33554809130E+02  0.51100000000E-03 0.  1.
         12    1    3    3    0    0  0.13907752356E+02  0.24322212149E+02 -0.30027739601E+02  0.41068975212E+02  0.00000000000E+00 0. -1.
</event>
<event>
 7    1  0.1756449E-015  0.9000773E+02  0.7816164E-02  0.1186339E+00
        -11   -1    0    0    0    0  0.00000000000E+00  0.00000000000E+00  0.45593999997E+02  0.45594000000E+02  0.51100000000E-03 0.  1.
         11   -1    0    0    0    0 -0.00000000000E+00 -0.00000000000E+00 -0.45593999997E+02  0.45594000000E+02  0.51100000000E-03 0. -1.
    9900012    2    1    2    0    0  0.15864447538E+00  0.11655120331E+01 -0.97238557715E-01  0.90007728122E+02  0.89999989333E+02 0.  0.
        -12    1    1    2    0    0 -0.15864447538E+00 -0.11655120331E+01  0.97238557715E-01  0.11802718780E+01  0.00000000000E+00 0.  1.
         11    1    3    3    0    0 -0.55788545745E+01  0.40651753075E+01 -0.20892849466E+01  0.72120995898E+01  0.51100000000E-03 0. -1.
        -11    1    3    3    0    0 -0.19548182889E+02  0.22862575780E+01  0.35444677666E+02  0.40542368000E+02  0.51100000000E-03 0.  1.
         12    1    3    3    0    0  0.25285681939E+02 -0.51859208525E+01 -0.33452631277E+02  0.42253260532E+02  0.00000000000E+00 0. -1.
</event>
<event>
 7    1  0.1756449E-015  0.9000768E+02  0.7816164E-02  0.1186339E+00
        -11   -1    0    0    0    0  0.00000000000E+00  0.00000000000E+00  0.45593999997E+02  0.45594000000E+02  0.51100000000E-03 0.  1.
         11   -1    0    0    0    0 -0.00000000000E+00 -0.00000000000E+00 -0.45593999997E+02  0.45594000000E+02  0.51100000000E-03 0. -1.
    9900012    2    1    2    0    0 -0.47232785624E+00  0.98631036002E+00 -0.44413251188E+00  0.90007679951E+02  0.89999940526E+02 0.  0.
        -12    1    1    2    0    0  0.47232785624E+00 -0.98631036002E+00  0.44413251188E+00  0.11803200490E+01  0.00000000000E+00 0.  1.
         11    1    3    3    0    0  0.13618140914E+02 -0.38205929563E+02 -0.25770220937E+01  0.40642193087E+02  0.51100000000E-03 0. -1.
        -11    1    3    3    0    0 -0.74344995684E+00 -0.61751343695E+00  0.70274149355E+01  0.70935605742E+01  0.51100000000E-03 0.  1.
        -12    1    3    3    0    0 -0.13347018814E+02  0.39809753360E+02 -0.48945253537E+01  0.42271926290E+02  0.00000000000E+00 0.  1.
</event>
<event>
 7    1  0.1756449E-015  0.9000779E+02  0.7816164E-02  0.1186339E+00
        -11   -1    0    0    0    0  0.00000000000E+00  0.00000000000E+00  0.45593999997E+02  0.45594000000E+02  0.51100000000E-03 0.  1.
         11   -1    0    0    0    0 -0.00000000000E+00 -0.00000000000E+00 -0.45593999997E+02  0.45594000000E+02  0.51100000000E-03 0. -1.
    9900012    2    1    2    0    0  0.74453008046E-01 -0.69211337351E+00 -0.95306908099E+00  0.90007786102E+02  0.90000048078E+02 0.  0.
        -12    1    1    2    0    0 -0.74453008046E-01  0.69211337351E+00  0.95306908099E+00  0.11802138981E+01  0.00000000000E+00 0.  1.
         11    1    3    3    0    0 -0.27057117818E+02 -0.29893239857E+02  0.19994598756E+01  0.40369434648E+02  0.51100000000E-03 0. -1.
        -11    1    3    3    0    0  0.38598476896E+01 -0.10641231204E+01  0.88202139025E+01  0.96864315281E+01  0.51100000000E-03 0.  1.
        -12    1    3    3    0    0  0.23271723137E+02  0.30265249604E+02 -0.11772742859E+02  0.39951919926E+02  0.00000000000E+00 0.  1.
</event>
<event>
 7    1  0.1756449E-015  0.9000771E+02  0.7816164E-02  0.1186339E+00
        -11   -1    0    0    0    0  0.00000000000E+00  0.00000000000E+00  0.45593999997E+02  0.45594000000E+02  0.51100000000E-03 0. -1.
         11   -1    0    0    0    0 -0.00000000000E+00 -0.00000000000E+00 -0.45593999997E+02  0.45594000000E+02  0.51100000000E-03 0.  1.
    9900012    2    1    2    0    0  0.52050350838E+00 -0.30859298026E+00  0.10133717297E+01  0.90007713682E+02  0.89999974703E+02 0.  0.
        -12    1    1    2    0    0 -0.52050350838E+00  0.30859298026E+00 -0.10133717297E+01  0.11802863179E+01  0.00000000000E+00 0.  1.
         11    1    3    3    0    0 -0.25484308729E+02  0.23842670733E+02  0.65839197282E+01  0.35514376502E+02  0.51100000000E-03 0. -1.
        -11    1    3    3    0    0 -0.25014892700E+01  0.95683468155E+01 -0.26682026493E+01  0.10243535278E+02  0.51100000000E-03 0.  1.
        -12    1    3    3    0    0  0.28506301507E+02 -0.33719610529E+02 -0.29023453492E+01  0.44249801902E+02  0.00000000000E+00 0.  1.
</event>
<event>
 7    1  0.2536116E-015  0.9000774E+02  0.7816164E-02  0.1186339E+00
        -11   -1    0    0    0    0  0.00000000000E+00  0.00000000000E+00  0.45593999997E+02  0.45594000000E+02  0.51100000000E-03 0. -1.
         11   -1    0    0    0    0 -0.00000000000E+00 -0.00000000000E+00 -0.45593999997E+02  0.45594000000E+02  0.51100000000E-03 0.  1.
    9900012    2    1    2    0    0  0.17400096432E+00  0.90436832601E+00  0.73813926001E+00  0.90007742413E+02  0.90000003813E+02 0.  0.
        -12    1    1    2    0    0 -0.17400096432E+00 -0.90436832601E+00 -0.73813926001E+00  0.11802575871E+01  0.00000000000E+00 0.  1.
         11    1    3    3    0    0  0.17236696625E+02  0.93713328654E+01  0.31408761371E+02  0.37032902686E+02  0.51100000000E-03 0. -1.
        -11    1    3    3    0    0  0.84982104268E+01  0.34652314727E+01  0.24210882460E+01  0.94915266514E+01  0.51100000000E-03 0.  1.
        -12    1    3    3    0    0 -0.25560906088E+02 -0.11932196012E+02 -0.33091710357E+02  0.43483313076E+02  0.00000000000E+00 0.  1.
</event>
<event>
 7    1  0.1756449E-015  0.9000772E+02  0.7816164E-02  0.1186339E+00
        -11   -1    0    0    0    0  0.00000000000E+00  0.00000000000E+00  0.45593999997E+02  0.45594000000E+02  0.51100000000E-03 0.  1.
         11   -1    0    0    0    0 -0.00000000000E+00 -0.00000000000E+00 -0.45593999997E+02  0.45594000000E+02  0.51100000000E-03 0. -1.
    9900012    2    1    2    0    0 -0.63179083112E+00  0.42031983173E-01 -0.99606201056E+00  0.90007717885E+02  0.89999978961E+02 0.  0.
        -12    1    1    2    0    0  0.63179083112E+00 -0.42031983173E-01  0.99606201056E+00  0.11802821149E+01  0.00000000000E+00 0.  1.
         11    1    3    3    0    0  0.64734763316E+01  0.93665329836E+01  0.11196887962E+02  0.15968974177E+02  0.51100000000E-03 0. -1.
        -11    1    3    3    0    0  0.32580338934E+02 -0.39863267322E+01 -0.79439008086E+01  0.33770917165E+02  0.51100000000E-03 0.  1.
         12    1    3    3    0    0 -0.39685606096E+02 -0.53381742683E+01 -0.42490491643E+01  0.40267826544E+02  0.00000000000E+00 0. -1.
</event>
<event>
 7    1  0.1756449E-015  0.9000771E+02  0.7816164E-02  0.1186339E+00
        -11   -1    0    0    0    0  0.00000000000E+00  0.00000000000E+00  0.45593999997E+02  0.45594000000E+02  0.51100000000E-03 0.  1.
         11   -1    0    0    0    0 -0.00000000000E+00 -0.00000000000E+00 -0.45593999997E+02  0.45594000000E+02  0.51100000000E-03 0. -1.
    9900012    2    1    2    0    0  0.69290720116E+00 -0.75512514758E+00 -0.58544504766E+00  0.90007711780E+02  0.89999972776E+02 0.  0.
        -12    1    1    2    0    0 -0.69290720116E+00  0.75512514758E+00  0.58544504766E+00  0.11802882198E+01  0.00000000000E+00 0.  1.
         11    1    3    3    0    0 -0.20212235173E+02  0.18962043273E+01 -0.27675708140E+02  0.34323095182E+02  0.51100000000E-03 0. -1.
        -11    1    3    3    0    0 -0.43872300895E+01  0.16152440113E+02  0.12844407804E+02  0.21098054924E+02  0.51100000000E-03 0.  1.
        -12    1    3    3    0    0  0.25292372464E+02 -0.18803769588E+02  0.14245855288E+02  0.34586561674E+02  0.00000000000E+00 0.  1.
</event>
<event>
 7    1  0.1756449E-015  0.9000772E+02  0.7816164E-02  0.1186339E+00
        -11   -1    0    0    0    0  0.00000000000E+00  0.00000000000E+00  0.45593999997E+02  0.45594000000E+02  0.51100000000E-03 0.  1.
         11   -1    0    0    0    0 -0.00000000000E+00 -0.00000000000E+00 -0.45593999997E+02  0.45594000000E+02  0.51100000000E-03 0. -1.
    9900012    2    1    2    0    0 -0.10241406716E+01 -0.57195703713E+00 -0.13060435915E+00  0.90007721869E+02  0.89999982998E+02 0.  0.
        -12    1    1    2    0    0  0.10241406716E+01  0.57195703713E+00  0.13060435915E+00  0.11802781308E+01  0.00000000000E+00 0.  1.
         11    1    3    3    0    0  0.11334196998E+01  0.64516666340E+01 -0.12552240047E+02  0.14158650113E+02  0.51100000000E-03 0. -1.
        -11    1    3    3    0    0 -0.23668125159E+02 -0.15127239881E+02  0.34150288843E+02  0.44218274088E+02  0.51100000000E-03 0.  1.
         12    1    3    3    0    0  0.21510564788E+02  0.81036162095E+01 -0.21728653155E+02  0.31630797668E+02  0.00000000000E+00 0. -1.
</event>
<event>
 7    1  0.1756449E-015  0.9000779E+02  0.7816164E-02  0.1186339E+00
        -11   -1    0    0    0    0  0.00000000000E+00  0.00000000000E+00  0.45593999997E+02  0.45594000000E+02  0.51100000000E-03 0.  1.
         11   -1    0    0    0    0 -0.00000000000E+00 -0.00000000000E+00 -0.45593999997E+02  0.45594000000E+02  0.51100000000E-03 0. -1.
    9900012    2    1    2    0    0  0.53908708542E+00  0.86393063365E+00  0.59658609022E+00  0.90007785618E+02  0.90000047588E+02 0.  0.
        -12    1    1    2    0    0 -0.53908708542E+00 -0.86393063365E+00 -0.59658609022E+00  0.11802143824E+01  0.00000000000E+00 0.  1.
         11    1    3    3    0    0  0.39134883644E+01 -0.93775110108E+01  0.15792117142E+01  0.10283336707E+02  0.51100000000E-03 0. -1.
        -11    1    3    3    0    0 -0.21440881856E+02 -0.67705653670E+01  0.31590735806E+02  0.38775334417E+02  0.51100000000E-03 0.  1.
         12    1    3    3    0    0  0.18066480577E+02  0.17012007011E+02 -0.32573361430E+02  0.40949114493E+02  0.00000000000E+00 0. -1.
</event>
<event>
 7    1  0.1756449E-015  0.9000770E+02  0.7816164E-02  0.1186339E+00
        -11   -1    0    0    0    0  0.00000000000E+00  0.00000000000E+00  0.45593999997E+02  0.45594000000E+02  0.51100000000E-03 0.  1.
         11   -1    0    0    0    0 -0.00000000000E+00 -0.00000000000E+00 -0.45593999997E+02  0.45594000000E+02  0.51100000000E-03 0. -1.
    9900012    2    1    2    0    0 -0.11588502703E+01  0.12319043871E+00  0.18705698517E+00  0.90007703364E+02  0.89999964248E+02 0.  0.
        -12    1    1    2    0    0  0.11588502703E+01 -0.12319043871E+00 -0.18705698517E+00  0.11802966360E+01  0.00000000000E+00 0.  1.
         11    1    3    3    0    0  0.73160629859E+01  0.73671036238E-01 -0.18382543492E+01  0.75438308802E+01  0.51100000000E-03 0. -1.
        -11    1    3    3    0    0 -0.66292834734E+01  0.36129472587E+02  0.20309521267E+02  0.41973358731E+02  0.51100000000E-03 0.  1.
         12    1    3    3    0    0 -0.18456297828E+01 -0.36079953185E+02 -0.18284209933E+02  0.40490513753E+02  0.00000000000E+00 0. -1.
</event>
<event>
 7    1  0.1756449E-015  0.9000766E+02  0.7816164E-02  0.1186339E+00
        -11   -1    0    0    0    0  0.00000000000E+00  0.00000000000E+00  0.45593999997E+02  0.45594000000E+02  0.51100000000E-03 0. -1.
         11   -1    0    0    0    0 -0.00000000000E+00 -0.00000000000E+00 -0.45593999997E+02  0.45594000000E+02  0.51100000000E-03 0.  1.
    9900012    2    1    2    0    0  0.94029073153E-01 -0.11685148051E+01  0.13756404064E+00  0.90007664378E+02  0.89999924747E+02 0.  0.
        -12    1    1    2    0    0 -0.94029073153E-01  0.11685148051E+01 -0.13756404064E+00  0.11803356225E+01  0.00000000000E+00 0.  1.
         11    1    3    3    0    0  0.12765214051E+02 -0.22161850002E+02  0.24919413860E+02  0.35708198956E+02  0.51100000000E-03 0. -1.
        -11    1    3    3    0    0  0.21475067731E+01  0.15696075509E+01  0.10808298231E+02  0.11130802492E+02  0.51100000000E-03 0.  1.
        -12    1    3    3    0    0 -0.14818691751E+02  0.19423727646E+02 -0.35590148051E+02  0.43168662930E+02  0.00000000000E+00 0.  1.
</event>
<event>
 7    1  0.1756449E-015  0.9000762E+02  0.7816164E-02  0.1186339E+00
        -11   -1    0    0    0    0  0.00000000000E+00  0.00000000000E+00  0.45593999997E+02  0.45594000000E+02  0.51100000000E-03 0. -1.
         11   -1    0    0    0    0 -0.00000000000E+00 -0.00000000000E+00 -0.45593999997E+02  0.45594000000E+02  0.51100000000E-03 0.  1.
    9900012    2    1    2    0    0 -0.81388871146E-01  0.67938907251E+00  0.96182032813E+00  0.90007622093E+02  0.89999881904E+02 0.  0.
        -12    1    1    2    0    0  0.81388871146E-01 -0.67938907251E+00 -0.96182032813E+00  0.11803779072E+01  0.00000000000E+00 0.  1.
         11    1    3    3    0    0  0.17050903119E+02 -0.34885781340E+02 -0.11155771722E+02  0.40400523263E+02  0.51100000000E-03 0. -1.
        -11    1    3    3    0    0 -0.30902746313E+01 -0.86019129075E+00  0.10010646190E+02  0.10512029479E+02  0.51100000000E-03 0.  1.
        -12    1    3    3    0    0 -0.14042017359E+02  0.36425361704E+02  0.21069458600E+01  0.39095069352E+02  0.00000000000E+00 0.  1.
</event>
<event>
 7    1  0.1756449E-015  0.9000774E+02  0.7816164E-02  0.1186339E+00
        -11   -1    0    0    0    0  0.00000000000E+00  0.00000000000E+00  0.45593999997E+02  0.45594000000E+02  0.51100000000E-03 0. -1.
         11   -1    0    0    0    0 -0.00000000000E+00 -0.00000000000E+00 -0.45593999997E+02  0.45594000000E+02  0.51100000000E-03 0.  1.
    9900012    2    1    2    0    0  0.10404077858E+01 -0.42805104716E+00  0.35683324821E+00  0.90007743237E+02  0.90000004648E+02 0.  0.
        -12    1    1    2    0    0 -0.10404077858E+01  0.42805104716E+00 -0.35683324821E+00  0.11802567631E+01  0.00000000000E+00 0.  1.
         11    1    3    3    0    0  0.34258023097E+02  0.50174313604E+01  0.17249097788E+01  0.34666440226E+02  0.51100000000E-03 0. -1.
        -11    1    3    3    0    0  0.10291666370E+02 -0.53363549853E+01 -0.23141214578E+01  0.11821600551E+02  0.51100000000E-03 0.  1.
        -12    1    3    3    0    0 -0.43509281681E+02 -0.10912742220E+00  0.94604492720E+00  0.43519702460E+02  0.00000000000E+00 0.  1.
</event>
<event>
 7    1  0.1756449E-015  0.9000800E+02  0.7816164E-02  0.1186339E+00
        -11   -1    0    0    0    0  0.00000000000E+00  0.00000000000E+00  0.45593999997E+02  0.45594000000E+02  0.51100000000E-03 0.  1.
         11   -1    0    0    0    0 -0.00000000000E+00 -0.00000000000E+00 -0.45593999997E+02  0.45594000000E+02  0.51100000000E-03 0. -1.
    9900012    2    1    2    0    0 -0.74597079881E+00 -0.91294239996E+00 -0.49579591231E-01  0.90008002375E+02  0.90000267206E+02 0.  0.
        -12    1    1    2    0    0  0.74597079881E+00  0.91294239996E+00  0.49579591231E-01  0.11799976247E+01  0.00000000000E+00 0.  1.
         11    1    3    3    0    0  0.22626582734E+02  0.16886740172E+02  0.16343002263E+01  0.28280650228E+02  0.51100000000E-03 0. -1.
        -11    1    3    3    0    0  0.10233254952E+02  0.11320309363E+02  0.63710059210E+01  0.16536584523E+02  0.51100000000E-03 0.  1.
         12    1    3    3    0    0 -0.33605808484E+02 -0.29119991935E+02 -0.80548857386E+01  0.45190767624E+02  0.00000000000E+00 0. -1.
</event>
<event>
 7    1  0.1756449E-015  0.9000777E+02  0.7816164E-02  0.1186339E+00
        -11   -1    0    0    0    0  0.00000000000E+00  0.00000000000E+00  0.45593999997E+02  0.45594000000E+02  0.51100000000E-03 0. -1.
         11   -1    0    0    0    0 -0.00000000000E+00 -0.00000000000E+00 -0.45593999997E+02  0.45594000000E+02  0.51100000000E-03 0.  1.
    9900012    2    1    2    0    0 -0.10361491550E+01 -0.29353544838E+00  0.48287948790E+00  0.90007770899E+02  0.90000032675E+02 0.  0.
        -12    1    1    2    0    0  0.10361491550E+01  0.29353544838E+00 -0.48287948790E+00  0.11802291009E+01  0.00000000000E+00 0.  1.
         11    1    3    3    0    0  0.61818980804E+00 -0.50036839605E+01 -0.68671887195E+01  0.85192307743E+01  0.51100000000E-03 0. -1.
        -11    1    3    3    0    0 -0.33919505543E+02 -0.13716736895E+02 -0.13359351601E+02  0.38950661134E+02  0.51100000000E-03 0.  1.
         12    1    3    3    0    0  0.32265166580E+02  0.18426885407E+02  0.20709419808E+02  0.42537878991E+02  0.00000000000E+00 0. -1.
</event>
<event>
 7    1  0.1756449E-015  0.9000779E+02  0.7816164E-02  0.1186339E+00
        -11   -1    0    0    0    0  0.00000000000E+00  0.00000000000E+00  0.45593999997E+02  0.45594000000E+02  0.51100000000E-03 0. -1.
         11   -1    0    0    0    0 -0.00000000000E+00 -0.00000000000E+00 -0.45593999997E+02  0.45594000000E+02  0.51100000000E-03 0.  1.
    9900012    2    1    2    0    0 -0.88879852049E+00  0.55025302957E+00  0.54785308775E+00  0.90007794843E+02  0.90000056935E+02 0.  0.
        -12    1    1    2    0    0  0.88879852049E+00 -0.55025302957E+00 -0.54785308775E+00  0.11802051569E+01  0.00000000000E+00 0.  1.
         11    1    3    3    0    0 -0.18915775594E+02  0.11238864495E+02  0.34732627678E+02  0.41115375070E+02  0.51100000000E-03 0. -1.
        -11    1    3    3    0    0  0.10911577185E+01 -0.88889203792E+01  0.17508839499E+01  0.91251918085E+01  0.51100000000E-03 0.  1.
        -12    1    3    3    0    0  0.16935819355E+02 -0.17996910862E+01 -0.35935658540E+02  0.39767227964E+02  0.00000000000E+00 0.  1.
</event>
<event>
 7    1  0.1756449E-015  0.9000783E+02  0.7816164E-02  0.1186339E+00
        -11   -1    0    0    0    0  0.00000000000E+00  0.00000000000E+00  0.45593999997E+02  0.45594000000E+02  0.51100000000E-03 0. -1.
         11   -1    0    0    0    0 -0.00000000000E+00 -0.00000000000E+00 -0.45593999997E+02  0.45594000000E+02  0.51100000000E-03 0.  1.
    9900012    2    1    2    0    0  0.10583555266E+01  0.16016350045E+00  0.49702046669E+00  0.90007831321E+02  0.90000093894E+02 0.  0.
        -12    1    1    2    0    0 -0.10583555266E+01 -0.16016350045E+00 -0.49702046669E+00  0.11801686794E+01  0.00000000000E+00 0.  1.
         11    1    3    3    0    0  0.96877475356E+01 -0.29942350979E+02 -0.22141680882E+02  0.38479226435E+02  0.51100000000E-03 0. -1.
        -11    1    3    3    0    0 -0.64855232854E+01 -0.97990953563E+00 -0.62354441231E+01  0.90500275501E+01  0.51100000000E-03 0.  1.
        -12    1    3    3    0    0 -0.21438687236E+01  0.31082424015E+02  0.28874145471E+02  0.42478577336E+02  0.00000000000E+00 0.  1.
</event>
<event>
 7    1  0.1756449E-015  0.9000784E+02  0.7816164E-02  0.1186339E+00
        -11   -1    0    0    0    0  0.00000000000E+00  0.00000000000E+00  0.45593999997E+02  0.45594000000E+02  0.51100000000E-03 0.  1.
         11   -1    0    0    0    0 -0.00000000000E+00 -0.00000000000E+00 -0.45593999997E+02  0.45594000000E+02  0.51100000000E-03 0. -1.
    9900012    2    1    2    0    0 -0.85350091979E+00 -0.39312062557E+00 -0.71397666847E+00  0.90007843091E+02  0.90000105820E+02 0.  0.
        -12    1    1    2    0    0  0.85350091979E+00  0.39312062557E+00  0.71397666847E+00  0.11801569088E+01  0.00000000000E+00 0.  1.
         11    1    3    3    0    0  0.15313365171E+02 -0.48871960757E+01  0.69182002943E+01  0.17499866683E+02  0.51100000000E-03 0. -1.
        -11    1    3    3    0    0  0.26262007988E+02 -0.69352350227E+01 -0.87967455560E+01  0.28551239570E+02  0.51100000000E-03 0.  1.
         12    1    3    3    0    0 -0.42428874078E+02  0.11429310473E+02  0.11645685931E+01  0.43956736838E+02  0.00000000000E+00 0. -1.
</event>
<event>
 7    1  0.3344501E-015  0.9000777E+02  0.7816164E-02  0.1186339E+00
        -11   -1    0    0    0    0  0.00000000000E+00  0.00000000000E+00  0.45593999997E+02  0.45594000000E+02  0.51100000000E-03 0. -1.
         11   -1    0    0    0    0 -0.00000000000E+00 -0.00000000000E+00 -0.45593999997E+02  0.45594000000E+02  0.51100000000E-03 0.  1.
    9900012    2    1    2    0    0 -0.18320588447E+00 -0.37591074324E+00  0.11036662707E+01  0.90007765905E+02  0.90000027615E+02 0.  0.
        -12    1    1    2    0    0  0.18320588447E+00  0.37591074324E+00 -0.11036662707E+01  0.11802340954E+01  0.00000000000E+00 0.  1.
         11    1    3    3    0    0  0.61909532571E+01 -0.57637793362E+01 -0.37331996174E+01  0.92458549693E+01  0.51100000000E-03 0. -1.
        -11    1    3    3    0    0 -0.17939609454E+02  0.29649011123E+01 -0.34874356528E+02  0.39329899180E+02  0.51100000000E-03 0.  1.
         12    1    3    3    0    0  0.11565450312E+02  0.24229674807E+01  0.39711222416E+02  0.41432011756E+02  0.00000000000E+00 0. -1.
</event>
<event>
 7    1  0.1756449E-015  0.9000769E+02  0.7816164E-02  0.1186339E+00
        -11   -1    0    0    0    0  0.00000000000E+00  0.00000000000E+00  0.45593999997E+02  0.45594000000E+02  0.51100000000E-03 0.  1.
         11   -1    0    0    0    0 -0.00000000000E+00 -0.00000000000E+00 -0.45593999997E+02  0.45594000000E+02  0.51100000000E-03 0. -1.
    9900012    2    1    2    0    0  0.84399408851E+00 -0.82192251676E+00 -0.72522301627E-01  0.90007685580E+02  0.89999946230E+02 0.  0.
        -12    1    1    2    0    0 -0.84399408851E+00  0.82192251676E+00  0.72522301627E-01  0.11803144197E+01  0.00000000000E+00 0.  1.
         11    1    3    3    0    0 -0.43922072417E+01 -0.77876110406E+01  0.10176834407E+01  0.89985582190E+01  0.51100000000E-03 0. -1.
        -11    1    3    3    0    0  0.18031275977E+02 -0.32607714160E+02 -0.97741402917E+01  0.38521730942E+02  0.51100000000E-03 0.  1.
         12    1    3    3    0    0 -0.12795074647E+02  0.39573402684E+02  0.86839345494E+01  0.42487396419E+02  0.00000000000E+00 0. -1.
</event>
<event>
 7    1  0.1756449E-015  0.9000767E+02  0.7816164E-02  0.1186339E+00
        -11   -1    0    0    0    0  0.00000000000E+00  0.00000000000E+00  0.45593999997E+02  0.45594000000E+02  0.51100000000E-03 0. -1.
         11   -1    0    0    0    0 -0.00000000000E+00 -0.00000000000E+00 -0.45593999997E+02  0.45594000000E+02  0.51100000000E-03 0.  1.
    9900012    2    1    2    0    0  0.67791865192E+00  0.26125796975E+00  0.93024216012E+00  0.90007669579E+02  0.89999930018E+02 0.  0.
        -12    1    1    2    0    0 -0.67791865192E+00 -0.26125796975E+00 -0.93024216012E+00  0.11803304206E+01  0.00000000000E+00 0.  1.
         11    1    3    3    0    0 -0.11193059165E+01  0.81492015461E+01 -0.17673598168E+01  0.84134352412E+01  0.51100000000E-03 0. -1.
        -11    1    3    3    0    0 -0.22860939821E+02 -0.34095868395E+02  0.14787994912E+02  0.43632964659E+02  0.51100000000E-03 0.  1.
         12    1    3    3    0    0  0.24658164389E+02  0.26207924819E+02 -0.12090392935E+02  0.37961269680E+02  0.00000000000E+00 0. -1.
</event>
<event>
 7    1  0.1756449E-015  0.9000777E+02  0.7816164E-02  0.1186339E+00
        -11   -1    0    0    0    0  0.00000000000E+00  0.00000000000E+00  0.45593999997E+02  0.45594000000E+02  0.51100000000E-03 0.  1.
         11   -1    0    0    0    0 -0.00000000000E+00 -0.00000000000E+00 -0.45593999997E+02  0.45594000000E+02  0.51100000000E-03 0. -1.
    9900012    2    1    2    0    0  0.73564595300E+00 -0.75083472698E+00 -0.53666844437E+00  0.90007770880E+02  0.90000032656E+02 0.  0.
        -12    1    1    2    0    0 -0.73564595300E+00  0.75083472698E+00  0.53666844437E+00  0.11802291195E+01  0.00000000000E+00 0.  1.
         11    1    3    3    0    0  0.65202818145E+00 -0.73607299100E+01  0.56287957636E+01  0.92891779813E+01  0.51100000000E-03 0. -1.
        -11    1    3    3    0    0  0.18212917796E+02  0.16744702362E+02  0.30077891000E+02  0.38945795140E+02  0.51100000000E-03 0.  1.
         12    1    3    3    0    0 -0.18129300024E+02 -0.10134807179E+02 -0.36243355208E+02  0.41772797759E+02  0.00000000000E+00 0. -1.
</event>
<event>
 7    1  0.1756449E-015  0.9000788E+02  0.7816164E-02  0.1186339E+00
        -11   -1    0    0    0    0  0.00000000000E+00  0.00000000000E+00  0.45593999997E+02  0.45594000000E+02  0.51100000000E-03 0.  1.
         11   -1    0    0    0    0 -0.00000000000E+00 -0.00000000000E+00 -0.45593999997E+02  0.45594000000E+02  0.51100000000E-03 0. -1.
    9900012    2    1    2    0    0 -0.54659941180E+00 -0.80481031112E+00 -0.66798476694E+00  0.90007875344E+02  0.90000138499E+02 0.  0.
        -12    1    1    2    0    0  0.54659941180E+00  0.80481031112E+00  0.66798476694E+00  0.11801246556E+01  0.00000000000E+00 0.  1.
         11    1    3    3    0    0  0.95392073516E+00  0.86730618179E+01  0.79068732156E+01  0.11774999379E+02  0.51100000000E-03 0. -1.
        -11    1    3    3    0    0  0.15091671086E+02  0.30224633591E+02 -0.98314323394E+01  0.35184429426E+02  0.51100000000E-03 0.  1.
         12    1    3    3    0    0 -0.16592191233E+02 -0.39702505720E+02  0.12565743569E+01  0.43048446540E+02  0.00000000000E+00 0. -1.
</event>
<event>
 7    1  0.1756449E-015  0.9000782E+02  0.7816164E-02  0.1186339E+00
        -11   -1    0    0    0    0  0.00000000000E+00  0.00000000000E+00  0.45593999997E+02  0.45594000000E+02  0.51100000000E-03 0.  1.
         11   -1    0    0    0    0 -0.00000000000E+00 -0.00000000000E+00 -0.45593999997E+02  0.45594000000E+02  0.51100000000E-03 0. -1.
    9900012    2    1    2    0    0 -0.72140875961E-01 -0.18173482916E+00 -0.11638711626E+01  0.90007818685E+02  0.90000081091E+02 0.  0.
        -12    1    1    2    0    0  0.72140875961E-01  0.18173482916E+00  0.11638711626E+01  0.11801813154E+01  0.00000000000E+00 0.  1.
         11    1    3    3    0    0  0.80887618998E+01  0.21834900028E+01  0.78490594567E+01  0.11480567594E+02  0.51100000000E-03 0. -1.
        -11    1    3    3    0    0  0.16072536344E+01 -0.30057780114E+02  0.20872448806E+02  0.36629394331E+02  0.51100000000E-03 0.  1.
         12    1    3    3    0    0 -0.97681564101E+01  0.27692555282E+02 -0.29885379425E+02  0.41897856760E+02  0.00000000000E+00 0. -1.
</event>
<event>
 7    1  0.1756449E-015  0.9000779E+02  0.7816164E-02  0.1186339E+00
        -11   -1    0    0    0    0  0.00000000000E+00  0.00000000000E+00  0.45593999997E+02  0.45594000000E+02  0.51100000000E-03 0.  1.
         11   -1    0    0    0    0 -0.00000000000E+00 -0.00000000000E+00 -0.45593999997E+02  0.45594000000E+02  0.51100000000E-03 0. -1.
    9900012    2    1    2    0    0  0.11715342718E+01 -0.72005651094E-01  0.12333939234E+00  0.90007792404E+02  0.90000054464E+02 0.  0.
        -12    1    1    2    0    0 -0.11715342718E+01  0.72005651094E-01 -0.12333939234E+00  0.11802075959E+01  0.00000000000E+00 0.  1.
         11    1    3    3    0    0 -0.79628516242E-01  0.10503133218E+02 -0.38176574614E+02  0.39595113305E+02  0.51100000000E-03 0. -1.
        -11    1    3    3    0    0  0.45837336254E+01  0.87828497334E+01  0.36037321185E+01  0.10542103625E+02  0.51100000000E-03 0.  1.
        -12    1    3    3    0    0 -0.33325708373E+01 -0.19357988603E+02  0.34696181888E+02  0.39870575475E+02  0.00000000000E+00 0.  1.
</event>
<event>
 7    1  0.1756449E-015  0.9000771E+02  0.7816164E-02  0.1186339E+00
        -11   -1    0    0    0    0  0.00000000000E+00  0.00000000000E+00  0.45593999997E+02  0.45594000000E+02  0.51100000000E-03 0.  1.
         11   -1    0    0    0    0 -0.00000000000E+00 -0.00000000000E+00 -0.45593999997E+02  0.45594000000E+02  0.51100000000E-03 0. -1.
    9900012    2    1    2    0    0 -0.62619728389E+00  0.79130779364E+00 -0.61220135034E+00  0.90007711240E+02  0.89999972229E+02 0.  0.
        -12    1    1    2    0    0  0.62619728389E+00 -0.79130779364E+00  0.61220135034E+00  0.11802887596E+01  0.00000000000E+00 0.  1.
         11    1    3    3    0    0 -0.23032177814E+02  0.27927121430E+02 -0.14729538296E+02  0.39081512572E+02  0.51100000000E-03 0. -1.
        -11    1    3    3    0    0  0.16663716296E+02  0.34247728277E+01  0.95147743259E+01  0.19492035308E+02  0.51100000000E-03 0.  1.
        -12    1    3    3    0    0  0.57422642347E+01 -0.30560586464E+02  0.46025626197E+01  0.31434163361E+02  0.00000000000E+00 0.  1.
</event>
<event>
 7    1  0.1968441E-015  0.9000778E+02  0.7816164E-02  0.1186339E+00
        -11   -1    0    0    0    0  0.00000000000E+00  0.00000000000E+00  0.45593999997E+02  0.45594000000E+02  0.51100000000E-03 0. -1.
         11   -1    0    0    0    0 -0.00000000000E+00 -0.00000000000E+00 -0.45593999997E+02  0.45594000000E+02  0.51100000000E-03 0.  1.
    9900012    2    1    2    0    0  0.18936376879E-01 -0.84679485193E+00  0.82188713161E+00  0.90007780290E+02  0.90000042189E+02 0.  0.
        -12    1    1    2    0    0 -0.18936376879E-01  0.84679485193E+00 -0.82188713161E+00  0.11802197104E+01  0.00000000000E+00 0.  1.
         11    1    3    3    0    0 -0.57140918336E+01  0.77280609895E+01  0.24359951044E+01  0.99150312430E+01  0.51100000000E-03 0. -1.
        -11    1    3    3    0    0 -0.13012352655E+02 -0.38811566799E+01 -0.37198782593E+02  0.39599673300E+02  0.51100000000E-03 0.  1.
         12    1    3    3    0    0  0.18745380865E+02 -0.46936991616E+01  0.35584674620E+02  0.40493075747E+02  0.00000000000E+00 0. -1.
</event>
<event>
 7    1  0.1756449E-015  0.9000763E+02  0.7816164E-02  0.1186339E+00
        -11   -1    0    0    0    0  0.00000000000E+00  0.00000000000E+00  0.45593999997E+02  0.45594000000E+02  0.51100000000E-03 0.  1.
         11   -1    0    0    0    0 -0.00000000000E+00 -0.00000000000E+00 -0.45593999997E+02  0.45594000000E+02  0.51100000000E-03 0. -1.
    9900012    2    1    2    0    0  0.35926533374E+00 -0.83925001830E+00  0.74824543617E+00  0.90007625735E+02  0.89999885594E+02 0.  0.
        -12    1    1    2    0    0 -0.35926533374E+00  0.83925001830E+00 -0.74824543617E+00  0.11803742652E+01  0.00000000000E+00 0.  1.
         11    1    3    3    0    0  0.62992934662E+01  0.31706532037E+01 -0.53542746104E+01  0.88545127916E+01  0.51100000000E-03 0. -1.
        -11    1    3    3    0    0  0.14886771805E+02 -0.33782249530E+02  0.20316326366E+02  0.42137981387E+02  0.51100000000E-03 0.  1.
         12    1    3    3    0    0 -0.20826799937E+02  0.29772346308E+02 -0.14213806319E+02  0.39015131557E+02  0.00000000000E+00 0. -1.
</event>
<event>
 7    1  0.1756449E-015  0.9000777E+02  0.7816164E-02  0.1186339E+00
        -11   -1    0    0    0    0  0.00000000000E+00  0.00000000000E+00  0.45593999997E+02  0.45594000000E+02  0.51100000000E-03 0. -1.
         11   -1    0    0    0    0 -0.00000000000E+00 -0.00000000000E+00 -0.45593999997E+02  0.45594000000E+02  0.51100000000E-03 0.  1.
    9900012    2    1    2    0    0  0.94486728986E-01  0.77791491491E+00  0.88253895935E+00  0.90007765120E+02  0.90000026820E+02 0.  0.
        -12    1    1    2    0    0 -0.94486728986E-01 -0.77791491491E+00 -0.88253895935E+00  0.11802348798E+01  0.00000000000E+00 0.  1.
         11    1    3    3    0    0 -0.33095947500E+01  0.22510373630E+02  0.38447962881E+02  0.44675677816E+02  0.51100000000E-03 0. -1.
        -11    1    3    3    0    0  0.41697191587E+01 -0.64602419552E+00 -0.74184855245E+01  0.85345083550E+01  0.51100000000E-03 0.  1.
        -12    1    3    3    0    0 -0.76563767974E+00 -0.21086434520E+02 -0.30146938397E+02  0.36797578949E+02  0.00000000000E+00 0.  1.
</event>
<event>
 7    1  0.1756449E-015  0.9000771E+02  0.7816164E-02  0.1186339E+00
        -11   -1    0    0    0    0  0.00000000000E+00  0.00000000000E+00  0.45593999997E+02  0.45594000000E+02  0.51100000000E-03 0.  1.
         11   -1    0    0    0    0 -0.00000000000E+00 -0.00000000000E+00 -0.45593999997E+02  0.45594000000E+02  0.51100000000E-03 0. -1.
    9900012    2    1    2    0    0  0.44983954945E+00 -0.33446108698E+00 -0.10386809917E+01  0.90007712729E+02  0.89999973737E+02 0.  0.
        -12    1    1    2    0    0 -0.44983954945E+00  0.33446108698E+00  0.10386809917E+01  0.11802872707E+01  0.00000000000E+00 0.  1.
         11    1    3    3    0    0  0.95439646701E+01  0.84648416446E+00  0.25837694425E+01  0.99236919469E+01  0.51100000000E-03 0. -1.
        -11    1    3    3    0    0  0.27320202323E+02 -0.24381040717E+02 -0.45374960198E+01  0.36897391124E+02  0.51100000000E-03 0.  1.
         12    1    3    3    0    0 -0.36414327444E+02  0.23200095465E+02  0.91504558563E+00  0.43186629658E+02  0.00000000000E+00 0. -1.
</event>
<event>
 7    1  0.1756449E-015  0.9000772E+02  0.7816164E-02  0.1186339E+00
        -11   -1    0    0    0    0  0.00000000000E+00  0.00000000000E+00  0.45593999997E+02  0.45594000000E+02  0.51100000000E-03 0. -1.
         11   -1    0    0    0    0 -0.00000000000E+00 -0.00000000000E+00 -0.45593999997E+02  0.45594000000E+02  0.51100000000E-03 0.  1.
    9900012    2    1    2    0    0 -0.60887538067E+00 -0.10110617867E+01  0.95751146645E-02  0.90007717471E+02  0.89999978542E+02 0.  0.
        -12    1    1    2    0    0  0.60887538067E+00  0.10110617867E+01 -0.95751146645E-02  0.11802825291E+01  0.00000000000E+00 0.  1.
         11    1    3    3    0    0 -0.39985875073E+01 -0.10797046679E+01  0.33529251985E+02  0.33784096898E+02  0.51100000000E-03 0. -1.
        -11    1    3    3    0    0 -0.15250591474E+01  0.62511501197E+01  0.10055760119E+02  0.11938215740E+02  0.51100000000E-03 0.  1.
        -12    1    3    3    0    0  0.49147712741E+01 -0.61825072385E+01 -0.43575436990E+02  0.44285404833E+02  0.00000000000E+00 0.  1.
</event>
<event>
 7    1  0.1756449E-015  0.9000776E+02  0.7816164E-02  0.1186339E+00
        -11   -1    0    0    0    0  0.00000000000E+00  0.00000000000E+00  0.45593999997E+02  0.45594000000E+02  0.51100000000E-03 0. -1.
         11   -1    0    0    0    0 -0.00000000000E+00 -0.00000000000E+00 -0.45593999997E+02  0.45594000000E+02  0.51100000000E-03 0.  1.
    9900012    2    1    2    0    0  0.35546757090E+00  0.96195212557E+00  0.58417074082E+00  0.90007760812E+02  0.90000022455E+02 0.  0.
        -12    1    1    2    0    0 -0.35546757090E+00 -0.96195212557E+00 -0.58417074082E+00  0.11802391877E+01  0.00000000000E+00 0.  1.
         11    1    3    3    0    0 -0.17789895041E+02  0.32246898252E+02 -0.19953982085E+02  0.41886802382E+02  0.51100000000E-03 0. -1.
        -11    1    3    3    0    0  0.95248253002E+01  0.13866058811E+00 -0.14379803012E+00  0.95269198534E+01  0.51100000000E-03 0.  1.
        -12    1    3    3    0    0  0.86205373116E+01 -0.31423606715E+02  0.20681950856E+02  0.38594038577E+02  0.00000000000E+00 0.  1.
</event>
<event>
 7    1  0.1756449E-015  0.9000754E+02  0.7816164E-02  0.1186339E+00
        -11   -1    0    0    0    0  0.00000000000E+00  0.00000000000E+00  0.45593999997E+02  0.45594000000E+02  0.51100000000E-03 0. -1.
         11   -1    0    0    0    0 -0.00000000000E+00 -0.00000000000E+00 -0.45593999997E+02  0.45594000000E+02  0.51100000000E-03 0.  1.
    9900012    2    1    2    0    0  0.15021077393E+00 -0.10541778224E+01 -0.50953419891E+00  0.90007542776E+02  0.89999801540E+02 0.  0.
        -12    1    1    2    0    0 -0.15021077393E+00  0.10541778224E+01  0.50953419891E+00  0.11804572240E+01  0.00000000000E+00 0.  1.
         11    1    3    3    0    0  0.20005327080E+02  0.94634611464E+00  0.34181489287E+02  0.39616699670E+02  0.51100000000E-03 0. -1.
        -11    1    3    3    0    0 -0.64907847488E+01  0.57480237730E+01  0.33795076468E+01  0.93054358386E+01  0.51100000000E-03 0.  1.
        -12    1    3    3    0    0 -0.13364331558E+02 -0.77485477100E+01 -0.38070531133E+02  0.41085407268E+02  0.00000000000E+00 0.  1.
</event>
<event>
 7    1  0.1756449E-015  0.9000777E+02  0.7816164E-02  0.1186339E+00
        -11   -1    0    0    0    0  0.00000000000E+00  0.00000000000E+00  0.45593999997E+02  0.45594000000E+02  0.51100000000E-03 0.  1.
         11   -1    0    0    0    0 -0.00000000000E+00 -0.00000000000E+00 -0.45593999997E+02  0.45594000000E+02  0.51100000000E-03 0. -1.
    9900012    2    1    2    0    0  0.84349188918E+00 -0.55207042494E+00 -0.61374085568E+00  0.90007771988E+02  0.90000033779E+02 0.  0.
        -12    1    1    2    0    0 -0.84349188918E+00  0.55207042494E+00  0.61374085568E+00  0.11802280115E+01  0.00000000000E+00 0.  1.
         11    1    3    3    0    0  0.23421940091E+02  0.33881711467E+02  0.97572351119E+01  0.42329201349E+02  0.51100000000E-03 0. -1.
        -11    1    3    3    0    0 -0.85887533784E+01  0.12167673326E+00  0.11330813654E+01  0.86640269773E+01  0.51100000000E-03 0.  1.
        -12    1    3    3    0    0 -0.13989694823E+02 -0.34555458625E+02 -0.11504057333E+02  0.39014543662E+02  0.00000000000E+00 0.  1.
</event>
<event>
 7    1  0.1756449E-015  0.9000788E+02  0.7816164E-02  0.1186339E+00
        -11   -1    0    0    0    0  0.00000000000E+00  0.00000000000E+00  0.45593999997E+02  0.45594000000E+02  0.51100000000E-03 0.  1.
         11   -1    0    0    0    0 -0.00000000000E+00 -0.00000000000E+00 -0.45593999997E+02  0.45594000000E+02  0.51100000000E-03 0. -1.
    9900012    2    1    2    0    0 -0.68976533716E+00 -0.82954447229E+00  0.47828771782E+00  0.90007881619E+02  0.90000144856E+02 0.  0.
        -12    1    1    2    0    0  0.68976533716E+00  0.82954447229E+00 -0.47828771782E+00  0.11801183809E+01  0.00000000000E+00 0.  1.
         11    1    3    3    0    0  0.22839043488E+01 -0.87754831203E+01 -0.66117528081E+01  0.11222325896E+02  0.51100000000E-03 0. -1.
        -11    1    3    3    0    0 -0.34257175218E+02 -0.14092774618E+02  0.14550771213E+02  0.39798056403E+02  0.51100000000E-03 0.  1.
         12    1    3    3    0    0  0.31283505532E+02  0.22038713266E+02 -0.74607306866E+01  0.38987499319E+02  0.00000000000E+00 0. -1.
</event>
<event>
 7    1  0.1756449E-015  0.9000772E+02  0.7816164E-02  0.1186339E+00
        -11   -1    0    0    0    0  0.00000000000E+00  0.00000000000E+00  0.45593999997E+02  0.45594000000E+02  0.51100000000E-03 0. -1.
         11   -1    0    0    0    0 -0.00000000000E+00 -0.00000000000E+00 -0.45593999997E+02  0.45594000000E+02  0.51100000000E-03 0.  1.
    9900012    2    1    2    0    0  0.11427672790E+01 -0.23838258469E+00 -0.17412642625E+00  0.90007718964E+02  0.89999980055E+02 0.  0.
        -12    1    1    2    0    0 -0.11427672790E+01  0.23838258469E+00  0.17412642625E+00  0.11802810355E+01  0.00000000000E+00 0.  1.
         11    1    3    3    0    0 -0.28943643276E+01  0.90912462155E+01  0.33238014863E+01  0.10103254881E+02  0.51100000000E-03 0. -1.
        -11    1    3    3    0    0  0.11039517600E+02  0.28857379915E+02  0.17764347804E+02  0.35639744353E+02  0.51100000000E-03 0.  1.
         12    1    3    3    0    0 -0.70023859934E+01 -0.38187008715E+02 -0.21262275716E+02  0.44264719731E+02  0.00000000000E+00 0. -1.
</event>
<event>
 7    1  0.1756449E-015  0.9000776E+02  0.7816164E-02  0.1186339E+00
        -11   -1    0    0    0    0  0.00000000000E+00  0.00000000000E+00  0.45593999997E+02  0.45594000000E+02  0.51100000000E-03 0.  1.
         11   -1    0    0    0    0 -0.00000000000E+00 -0.00000000000E+00 -0.45593999997E+02  0.45594000000E+02  0.51100000000E-03 0. -1.
    9900012    2    1    2    0    0  0.56936268042E+00 -0.10336388066E+01 -0.19754779314E-01  0.90007757103E+02  0.90000018697E+02 0.  0.
        -12    1    1    2    0    0 -0.56936268042E+00  0.10336388066E+01  0.19754779314E-01  0.11802428969E+01  0.00000000000E+00 0.  1.
         11    1    3    3    0    0 -0.35511585561E+02 -0.85055774347E+01 -0.21223185919E+02  0.42235544004E+02  0.51100000000E-03 0. -1.
        -11    1    3    3    0    0  0.95856614087E+01 -0.16646672252E+00 -0.40253925250E+01  0.10397903686E+02  0.51100000000E-03 0.  1.
        -12    1    3    3    0    0  0.26495286832E+02  0.76384053507E+01  0.25228823664E+02  0.37374309413E+02  0.00000000000E+00 0.  1.
</event>
<event>
 7    1  0.1756449E-015  0.9000768E+02  0.7816164E-02  0.1186339E+00
        -11   -1    0    0    0    0  0.00000000000E+00  0.00000000000E+00  0.45593999997E+02  0.45594000000E+02  0.51100000000E-03 0.  1.
         11   -1    0    0    0    0 -0.00000000000E+00 -0.00000000000E+00 -0.45593999997E+02  0.45594000000E+02  0.51100000000E-03 0. -1.
    9900012    2    1    2    0    0  0.42581483603E-01 -0.52848069478E+00 -0.10545336949E+01  0.90007683796E+02  0.89999944422E+02 0.  0.
        -12    1    1    2    0    0 -0.42581483603E-01  0.52848069478E+00  0.10545336949E+01  0.11803162039E+01  0.00000000000E+00 0.  1.
         11    1    3    3    0    0 -0.32704351876E+02  0.98546808473E+00  0.90753196421E+01  0.33954487271E+02  0.51100000000E-03 0. -1.
        -11    1    3    3    0    0  0.84604738308E-01  0.10652433552E+02  0.10984732301E+02  0.15301824810E+02  0.51100000000E-03 0.  1.
        -12    1    3    3    0    0  0.32662328621E+02 -0.12166382332E+02 -0.21114585638E+02  0.40751371715E+02  0.00000000000E+00 0.  1.
</event>
<event>
 7    1  0.1787489E-015  0.9000777E+02  0.7816164E-02  0.1186339E+00
        -11   -1    0    0    0    0  0.00000000000E+00  0.00000000000E+00  0.45593999997E+02  0.45594000000E+02  0.51100000000E-03 0.  1.
         11   -1    0    0    0    0 -0.00000000000E+00 -0.00000000000E+00 -0.45593999997E+02  0.45594000000E+02  0.51100000000E-03 0. -1.
    9900012    2    1    2    0    0  0.19288112822E+00  0.10189910747E+01 -0.56337762955E+00  0.90007771084E+02  0.90000032863E+02 0.  0.
        -12    1    1    2    0    0 -0.19288112822E+00 -0.10189910747E+01  0.56337762955E+00  0.11802289157E+01  0.00000000000E+00 0.  1.
         11    1    3    3    0    0 -0.42362060770E+01 -0.80666209073E+01  0.24343505009E+01  0.94309001379E+01  0.51100000000E-03 0. -1.
        -11    1    3    3    0    0 -0.28330436219E+02  0.54095151728E+01  0.24348559150E+02  0.37745579923E+02  0.51100000000E-03 0.  1.
         12    1    3    3    0    0  0.32759523424E+02  0.36760968091E+01 -0.27346287280E+02  0.42831291024E+02  0.00000000000E+00 0. -1.
</event>
<event>
 7    1  0.1756449E-015  0.9000783E+02  0.7816164E-02  0.1186339E+00
        -11   -1    0    0    0    0  0.00000000000E+00  0.00000000000E+00  0.45593999997E+02  0.45594000000E+02  0.51100000000E-03 0.  1.
         11   -1    0    0    0    0 -0.00000000000E+00 -0.00000000000E+00 -0.45593999997E+02  0.45594000000E+02  0.51100000000E-03 0. -1.
    9900012    2    1    2    0    0 -0.60629263027E+00  0.14765852936E+00 -0.10017079645E+01  0.90007825165E+02  0.90000087657E+02 0.  0.
        -12    1    1    2    0    0  0.60629263027E+00 -0.14765852936E+00  0.10017079645E+01  0.11801748349E+01  0.00000000000E+00 0.  1.
         11    1    3    3    0    0 -0.22405089970E+02  0.29916332998E+01 -0.27816243518E+02  0.35842451508E+02  0.51100000000E-03 0. -1.
        -11    1    3    3    0    0 -0.97265306065E+01  0.39504432623E+01 -0.22670582960E+01  0.10740156106E+02  0.51100000000E-03 0.  1.
        -12    1    3    3    0    0  0.31525327946E+02 -0.67944180327E+01  0.29081593850E+02  0.43425217551E+02  0.00000000000E+00 0.  1.
</event>
<event>
 7    1  0.2306348E-015  0.9000775E+02  0.7816164E-02  0.1186339E+00
        -11   -1    0    0    0    0  0.00000000000E+00  0.00000000000E+00  0.45593999997E+02  0.45594000000E+02  0.51100000000E-03 0. -1.
         11   -1    0    0    0    0 -0.00000000000E+00 -0.00000000000E+00 -0.45593999997E+02  0.45594000000E+02  0.51100000000E-03 0.  1.
    9900012    2    1    2    0    0 -0.77578192590E+00  0.67318468898E+00  0.58135906116E+00  0.90007748510E+02  0.90000009990E+02 0.  0.
        -12    1    1    2    0    0  0.77578192590E+00 -0.67318468898E+00 -0.58135906116E+00  0.11802514902E+01  0.00000000000E+00 0.  1.
         11    1    3    3    0    0  0.48755638786E+01  0.70873132077E+01 -0.42356273351E+01  0.95886219458E+01  0.51100000000E-03 0. -1.
        -11    1    3    3    0    0 -0.53773953890E+01  0.25892994914E+02 -0.25045989809E+02  0.36423415169E+02  0.51100000000E-03 0.  1.
         12    1    3    3    0    0 -0.27395041542E+00 -0.32307123433E+02  0.29862976205E+02  0.43995711395E+02  0.00000000000E+00 0. -1.
</event>
<event>
 7    1  0.1756449E-015  0.9000776E+02  0.7816164E-02  0.1186339E+00
        -11   -1    0    0    0    0  0.00000000000E+00  0.00000000000E+00  0.45593999997E+02  0.45594000000E+02  0.51100000000E-03 0.  1.
         11   -1    0    0    0    0 -0.00000000000E+00 -0.00000000000E+00 -0.45593999997E+02  0.45594000000E+02  0.51100000000E-03 0. -1.
    9900012    2    1    2    0    0 -0.11537711118E+01  0.12770773062E+00 -0.21323997164E+00  0.90007759207E+02  0.90000020829E+02 0.  0.
        -12    1    1    2    0    0  0.11537711118E+01 -0.12770773062E+00  0.21323997164E+00  0.11802407926E+01  0.00000000000E+00 0.  1.
         11    1    3    3    0    0  0.15086473231E+02 -0.30581878811E+02 -0.17746209768E+02  0.38441916544E+02  0.51100000000E-03 0. -1.
        -11    1    3    3    0    0 -0.55413631723E+01 -0.71736242738E+01  0.43298349263E+01  0.10045648898E+02  0.51100000000E-03 0.  1.
        -12    1    3    3    0    0 -0.10698881170E+02  0.37883210815E+02  0.13203134870E+02  0.41520193766E+02  0.00000000000E+00 0.  1.
</event>
<event>
 7    1  0.1756449E-015  0.9000758E+02  0.7816164E-02  0.1186339E+00
        -11   -1    0    0    0    0  0.00000000000E+00  0.00000000000E+00  0.45593999997E+02  0.45594000000E+02  0.51100000000E-03 0.  1.
         11   -1    0    0    0    0 -0.00000000000E+00 -0.00000000000E+00 -0.45593999997E+02  0.45594000000E+02  0.51100000000E-03 0. -1.
    9900012    2    1    2    0    0 -0.10382199119E+01  0.73051401896E-01 -0.55691718680E+00  0.90007578954E+02  0.89999838196E+02 0.  0.
        -12    1    1    2    0    0  0.10382199119E+01 -0.73051401896E-01  0.55691718680E+00  0.11804210459E+01  0.00000000000E+00 0.  1.
         11    1    3    3    0    0 -0.13025953399E+02  0.39400423840E+02  0.85795921710E+01  0.42375444102E+02  0.51100000000E-03 0. -1.
        -11    1    3    3    0    0 -0.28165735726E+01 -0.53388458007E+01 -0.86602561809E+01  0.10556343996E+02  0.51100000000E-03 0.  1.
        -12    1    3    3    0    0  0.14804307060E+02 -0.33988526638E+02 -0.47625317686E+00  0.37075790856E+02  0.00000000000E+00 0.  1.
</event>
<event>
 7    1  0.1756449E-015  0.9000783E+02  0.7816164E-02  0.1186339E+00
        -11   -1    0    0    0    0  0.00000000000E+00  0.00000000000E+00  0.45593999997E+02  0.45594000000E+02  0.51100000000E-03 0.  1.
         11   -1    0    0    0    0 -0.00000000000E+00 -0.00000000000E+00 -0.45593999997E+02  0.45594000000E+02  0.51100000000E-03 0. -1.
    9900012    2    1    2    0    0  0.65935936790E+00  0.88133213430E+00 -0.42580587499E+00  0.90007825542E+02  0.90000088040E+02 0.  0.
        -12    1    1    2    0    0 -0.65935936790E+00 -0.88133213430E+00  0.42580587499E+00  0.11801744575E+01  0.00000000000E+00 0.  1.
         11    1    3    3    0    0  0.75363534382E+01 -0.26487344130E+02  0.18118250037E+02  0.32964329310E+02  0.51100000000E-03 0. -1.
        -11    1    3    3    0    0 -0.15501905451E+02  0.19754565292E+02  0.94087819236E+01  0.26815612990E+02  0.51100000000E-03 0.  1.
        -12    1    3    3    0    0  0.86249113810E+01  0.76141109720E+01 -0.27952837836E+02  0.30227883242E+02  0.00000000000E+00 0.  1.
</event>
<event>
 7    1  0.1756449E-015  0.9000774E+02  0.7816164E-02  0.1186339E+00
        -11   -1    0    0    0    0  0.00000000000E+00  0.00000000000E+00  0.45593999997E+02  0.45594000000E+02  0.51100000000E-03 0.  1.
         11   -1    0    0    0    0 -0.00000000000E+00 -0.00000000000E+00 -0.45593999997E+02  0.45594000000E+02  0.51100000000E-03 0. -1.
    9900012    2    1    2    0    0 -0.32431947474E+00  0.80678411890E+00 -0.79808145052E+00  0.90007738276E+02  0.89999999621E+02 0.  0.
        -12    1    1    2    0    0  0.32431947474E+00 -0.80678411890E+00  0.79808145052E+00  0.11802617243E+01  0.00000000000E+00 0.  1.
         11    1    3    3    0    0  0.74856599757E+00 -0.34276633870E+01  0.28197819196E+02  0.28415246524E+02  0.51100000000E-03 0. -1.
        -11    1    3    3    0    0 -0.97918532981E+01  0.10309305188E+02  0.12392923778E+02  0.18861249282E+02  0.51100000000E-03 0.  1.
         12    1    3    3    0    0  0.87189678258E+01 -0.60748576822E+01 -0.41388824424E+02  0.42731242470E+02  0.00000000000E+00 0. -1.
</event>
<event>
 7    1  0.1756449E-015  0.9000766E+02  0.7816164E-02  0.1186339E+00
        -11   -1    0    0    0    0  0.00000000000E+00  0.00000000000E+00  0.45593999997E+02  0.45594000000E+02  0.51100000000E-03 0. -1.
         11   -1    0    0    0    0 -0.00000000000E+00 -0.00000000000E+00 -0.45593999997E+02  0.45594000000E+02  0.51100000000E-03 0.  1.
    9900012    2    1    2    0    0  0.52003736170E+00 -0.10446620730E+01  0.17730634518E+00  0.90007663080E+02  0.89999923433E+02 0.  0.
        -12    1    1    2    0    0 -0.52003736170E+00  0.10446620730E+01 -0.17730634518E+00  0.11803369198E+01  0.00000000000E+00 0.  1.
         11    1    3    3    0    0  0.58204838586E+01  0.32707954066E+01  0.79624555512E+01  0.10391190192E+02  0.51100000000E-03 0. -1.
        -11    1    3    3    0    0  0.29070655067E+02  0.53235183488E+01  0.18870968787E+02  0.35065029543E+02  0.51100000000E-03 0.  1.
         12    1    3    3    0    0 -0.34371101563E+02 -0.96389758284E+01 -0.26656117993E+02  0.44551443345E+02  0.00000000000E+00 0. -1.
</event>
<event>
 7    1  0.1756449E-015  0.9000772E+02  0.7816164E-02  0.1186339E+00
        -11   -1    0    0    0    0  0.00000000000E+00  0.00000000000E+00  0.45593999997E+02  0.45594000000E+02  0.51100000000E-03 0.  1.
         11   -1    0    0    0    0 -0.00000000000E+00 -0.00000000000E+00 -0.45593999997E+02  0.45594000000E+02  0.51100000000E-03 0. -1.
    9900012    2    1    2    0    0 -0.11934740564E+00 -0.92104034102E+00 -0.72835065575E+00  0.90007723003E+02  0.89999984146E+02 0.  0.
        -12    1    1    2    0    0  0.11934740564E+00  0.92104034102E+00  0.72835065575E+00  0.11802769975E+01  0.00000000000E+00 0.  1.
         11    1    3    3    0    0 -0.20412242604E+02 -0.98629202752E+01 -0.29366448417E+02  0.37098856281E+02  0.51100000000E-03 0. -1.
        -11    1    3    3    0    0 -0.86672981671E+01 -0.14387146622E+01 -0.25017480756E+01  0.91351355267E+01  0.51100000000E-03 0.  1.
        -12    1    3    3    0    0  0.28960193365E+02  0.10380594596E+02  0.31139845837E+02  0.43773731195E+02  0.00000000000E+00 0.  1.
</event>
<event>
 7    1  0.1756449E-015  0.9000780E+02  0.7816164E-02  0.1186339E+00
        -11   -1    0    0    0    0  0.00000000000E+00  0.00000000000E+00  0.45593999997E+02  0.45594000000E+02  0.51100000000E-03 0. -1.
         11   -1    0    0    0    0 -0.00000000000E+00 -0.00000000000E+00 -0.45593999997E+02  0.45594000000E+02  0.51100000000E-03 0.  1.
    9900012    2    1    2    0    0  0.21046689767E+00 -0.94938412336E+00 -0.66877241242E+00  0.90007795328E+02  0.90000057426E+02 0.  0.
        -12    1    1    2    0    0 -0.21046689767E+00  0.94938412336E+00  0.66877241242E+00  0.11802046722E+01  0.00000000000E+00 0.  1.
         11    1    3    3    0    0 -0.10527983020E+02  0.14491356600E+02  0.28240310832E+02  0.33441785220E+02  0.51100000000E-03 0. -1.
        -11    1    3    3    0    0  0.43477317790E+01  0.12467768910E+01  0.11513401628E+02  0.12369949133E+02  0.51100000000E-03 0.  1.
        -12    1    3    3    0    0  0.63907181385E+01 -0.16687517614E+02 -0.40422484872E+02  0.44196060975E+02  0.00000000000E+00 0.  1.
</event>
<event>
 7    1  0.1756449E-015  0.9000772E+02  0.7816164E-02  0.1186339E+00
        -11   -1    0    0    0    0  0.00000000000E+00  0.00000000000E+00  0.45593999997E+02  0.45594000000E+02  0.51100000000E-03 0.  1.
         11   -1    0    0    0    0 -0.00000000000E+00 -0.00000000000E+00 -0.45593999997E+02  0.45594000000E+02  0.51100000000E-03 0. -1.
    9900012    2    1    2    0    0  0.46464787180E+00 -0.24156209677E+00 -0.10577395493E+01  0.90007719167E+02  0.89999980260E+02 0.  0.
        -12    1    1    2    0    0 -0.46464787180E+00  0.24156209677E+00  0.10577395493E+01  0.11802808333E+01  0.00000000000E+00 0.  1.
         11    1    3    3    0    0  0.19662618342E+02 -0.25591153161E+02 -0.18270358148E+02  0.37085464366E+02  0.51100000000E-03 0. -1.
        -11    1    3    3    0    0 -0.28389485169E+00 -0.42189422112E+01 -0.84447178853E+01  0.94442220480E+01  0.51100000000E-03 0.  1.
        -12    1    3    3    0    0 -0.18914075618E+02  0.29568533275E+02  0.25657336484E+02  0.43478032752E+02  0.00000000000E+00 0.  1.
</event>
<event>
 7    1  0.1756449E-015  0.9000776E+02  0.7816164E-02  0.1186339E+00
        -11   -1    0    0    0    0  0.00000000000E+00  0.00000000000E+00  0.45593999997E+02  0.45594000000E+02  0.51100000000E-03 0.  1.
         11   -1    0    0    0    0 -0.00000000000E+00 -0.00000000000E+00 -0.45593999997E+02  0.45594000000E+02  0.51100000000E-03 0. -1.
    9900012    2    1    2    0    0  0.29973181571E+00  0.26918839258E+00 -0.11093540270E+01  0.90007759385E+02  0.90000021009E+02 0.  0.
        -12    1    1    2    0    0 -0.29973181571E+00 -0.26918839258E+00  0.11093540270E+01  0.11802406150E+01  0.00000000000E+00 0.  1.
         11    1    3    3    0    0 -0.34228760758E+01  0.63208515819E+01  0.84857426565E+01  0.11121019470E+02  0.51100000000E-03 0. -1.
        -11    1    3    3    0    0  0.37838107752E+02  0.12010844914E+02 -0.47571230049E+01  0.39982658908E+02  0.51100000000E-03 0.  1.
         12    1    3    3    0    0 -0.34115499860E+02 -0.18062508104E+02 -0.48379736786E+01  0.38904081007E+02  0.00000000000E+00 0. -1.
</event>
<event>
 7    1  0.1756449E-015  0.9000773E+02  0.7816164E-02  0.1186339E+00
        -11   -1    0    0    0    0  0.00000000000E+00  0.00000000000E+00  0.45593999997E+02  0.45594000000E+02  0.51100000000E-03 0.  1.
         11   -1    0    0    0    0 -0.00000000000E+00 -0.00000000000E+00 -0.45593999997E+02  0.45594000000E+02  0.51100000000E-03 0. -1.
    9900012    2    1    2    0    0 -0.19742585619E+00 -0.24823539219E+00 -0.11368568752E+01  0.90007728280E+02  0.89999989493E+02 0.  0.
        -12    1    1    2    0    0  0.19742585619E+00  0.24823539219E+00  0.11368568752E+01  0.11802717201E+01  0.00000000000E+00 0.  1.
         11    1    3    3    0    0 -0.47657366136E+01  0.13673063867E+01 -0.22516519701E+01  0.54453382889E+01  0.51100000000E-03 0. -1.
        -11    1    3    3    0    0 -0.37371256372E+02  0.79762159571E+01 -0.11185030822E+02  0.39816274796E+02  0.51100000000E-03 0.  1.
         12    1    3    3    0    0  0.41939567130E+02 -0.95917577360E+01  0.12299825917E+02  0.44746115195E+02  0.00000000000E+00 0. -1.
</event>
<event>
 7    1  0.1756449E-015  0.9000820E+02  0.7816164E-02  0.1186338E+00
        -11   -1    0    0    0    0  0.00000000000E+00  0.00000000000E+00  0.45593999997E+02  0.45594000000E+02  0.51100000000E-03 0. -1.
         11   -1    0    0    0    0 -0.00000000000E+00 -0.00000000000E+00 -0.45593999997E+02  0.45594000000E+02  0.51100000000E-03 0.  1.
    9900012    2    1    2    0    0  0.78175957865E+00 -0.87308328931E-01  0.87929144085E+00  0.90008201618E+02  0.90000469079E+02 0.  0.
        -12    1    1    2    0    0 -0.78175957865E+00  0.87308328931E-01 -0.87929144085E+00  0.11797983815E+01  0.00000000000E+00 0.  1.
         11    1    3    3    0    0  0.79667947675E+01 -0.64163478229E+01  0.21854226710E+02  0.24129785817E+02  0.51100000000E-03 0. -1.
        -11    1    3    3    0    0  0.19068322853E+02 -0.19407361337E+01 -0.31115307104E+02  0.36544900186E+02  0.51100000000E-03 0.  1.
         12    1    3    3    0    0 -0.26253358042E+02  0.82697756277E+01  0.10140371835E+02  0.29333515615E+02  0.00000000000E+00 0. -1.
</event>
<event>
 7    1  0.1756449E-015  0.9000796E+02  0.7816164E-02  0.1186339E+00
        -11   -1    0    0    0    0  0.00000000000E+00  0.00000000000E+00  0.45593999997E+02  0.45594000000E+02  0.51100000000E-03 0. -1.
         11   -1    0    0    0    0 -0.00000000000E+00 -0.00000000000E+00 -0.45593999997E+02  0.45594000000E+02  0.51100000000E-03 0.  1.
    9900012    2    1    2    0    0 -0.96315441479E+00  0.43452154970E+00  0.52536837004E+00  0.90007962997E+02  0.90000227308E+02 0.  0.
        -12    1    1    2    0    0  0.96315441479E+00 -0.43452154970E+00 -0.52536837004E+00  0.11800370029E+01  0.00000000000E+00 0.  1.
         11    1    3    3    0    0 -0.33022085296E+01  0.65774883156E+01  0.58668254619E+01  0.94120972677E+01  0.51100000000E-03 0. -1.
        -11    1    3    3    0    0  0.30889344968E+02  0.22675297797E+02  0.52324823069E+01  0.38674276129E+02  0.51100000000E-03 0.  1.
         12    1    3    3    0    0 -0.28550290853E+02 -0.28818264563E+02 -0.10573939399E+02  0.41921589601E+02  0.00000000000E+00 0. -1.
</event>
<event>
 7    1  0.1756449E-015  0.9000774E+02  0.7816164E-02  0.1186339E+00
        -11   -1    0    0    0    0  0.00000000000E+00  0.00000000000E+00  0.45593999997E+02  0.45594000000E+02  0.51100000000E-03 0.  1.
         11   -1    0    0    0    0 -0.00000000000E+00 -0.00000000000E+00 -0.45593999997E+02  0.45594000000E+02  0.51100000000E-03 0. -1.
    9900012    2    1    2    0    0 -0.40787083111E+00  0.10436117056E+00 -0.11026128064E+01  0.90007743727E+02  0.90000005144E+02 0.  0.
        -12    1    1    2    0    0  0.40787083111E+00 -0.10436117056E+00  0.11026128064E+01  0.11802562729E+01  0.00000000000E+00 0.  1.
         11    1    3    3    0    0  0.10194790190E+02 -0.11619196638E+02  0.36976906798E+02  0.40077813241E+02  0.51100000000E-03 0. -1.
        -11    1    3    3    0    0  0.68473404238E+01  0.80627662628E+01 -0.37080290246E+01  0.11209092300E+02  0.51100000000E-03 0.  1.
        -12    1    3    3    0    0 -0.17450001445E+02  0.36607915453E+01 -0.34371490580E+02  0.38720838186E+02  0.00000000000E+00 0.  1.
</event>
<event>
 7    1  0.1756449E-015  0.9000768E+02  0.7816164E-02  0.1186339E+00
        -11   -1    0    0    0    0  0.00000000000E+00  0.00000000000E+00  0.45593999997E+02  0.45594000000E+02  0.51100000000E-03 0.  1.
         11   -1    0    0    0    0 -0.00000000000E+00 -0.00000000000E+00 -0.45593999997E+02  0.45594000000E+02  0.51100000000E-03 0. -1.
    9900012    2    1    2    0    0  0.83416101319E+00 -0.37368133599E+00 -0.74679060063E+00  0.90007678629E+02  0.89999939187E+02 0.  0.
        -12    1    1    2    0    0 -0.83416101319E+00  0.37368133599E+00  0.74679060063E+00  0.11803213706E+01  0.00000000000E+00 0.  1.
         11    1    3    3    0    0  0.47549564349E+01  0.33485900328E+01  0.73880871738E+01  0.94024729861E+01  0.51100000000E-03 0. -1.
        -11    1    3    3    0    0 -0.30179407894E+02 -0.19647073272E+02  0.18018707557E+02  0.40267579655E+02  0.51100000000E-03 0.  1.
         12    1    3    3    0    0  0.26258612473E+02  0.15924801903E+02 -0.26153585332E+02  0.40337625988E+02  0.00000000000E+00 0. -1.
</event>
<event>
 7    1  0.1756449E-015  0.9000775E+02  0.7816164E-02  0.1186339E+00
        -11   -1    0    0    0    0  0.00000000000E+00  0.00000000000E+00  0.45593999997E+02  0.45594000000E+02  0.51100000000E-03 0.  1.
         11   -1    0    0    0    0 -0.00000000000E+00 -0.00000000000E+00 -0.45593999997E+02  0.45594000000E+02  0.51100000000E-03 0. -1.
    9900012    2    1    2    0    0  0.78442128785E+00 -0.27869958479E+00 -0.83665709152E+00  0.90007752016E+02  0.90000013542E+02 0.  0.
        -12    1    1    2    0    0 -0.78442128785E+00  0.27869958479E+00  0.83665709152E+00  0.11802479842E+01  0.00000000000E+00 0.  1.
         11    1    3    3    0    0  0.38681774645E+02  0.16384430240E+02 -0.13638141185E+02  0.44167048115E+02  0.51100000000E-03 0. -1.
        -11    1    3    3    0    0 -0.11413660069E+02 -0.53991483795E+01 -0.30430849608E+01  0.12987794491E+02  0.51100000000E-03 0.  1.
        -12    1    3    3    0    0 -0.26483693288E+02 -0.11263981445E+02  0.15844569054E+02  0.32852909409E+02  0.00000000000E+00 0.  1.
</event>
<event>
 7    1  0.1756449E-015  0.9000773E+02  0.7816164E-02  0.1186339E+00
        -11   -1    0    0    0    0  0.00000000000E+00  0.00000000000E+00  0.45593999997E+02  0.45594000000E+02  0.51100000000E-03 0. -1.
         11   -1    0    0    0    0 -0.00000000000E+00 -0.00000000000E+00 -0.45593999997E+02  0.45594000000E+02  0.51100000000E-03 0.  1.
    9900012    2    1    2    0    0  0.63066923616E+00 -0.98102325827E+00  0.18134433800E+00  0.90007730502E+02  0.89999991745E+02 0.  0.
        -12    1    1    2    0    0 -0.63066923616E+00  0.98102325827E+00 -0.18134433800E+00  0.11802694979E+01  0.00000000000E+00 0.  1.
         11    1    3    3    0    0  0.81895826788E+01  0.29708057356E+02  0.24667845729E+02  0.39473289064E+02  0.51100000000E-03 0. -1.
        -11    1    3    3    0    0  0.11163347370E+02 -0.46438269682E+01 -0.57686553471E+01  0.13396374069E+02  0.51100000000E-03 0.  1.
        -12    1    3    3    0    0 -0.18722260813E+02 -0.26045253647E+02 -0.18717846044E+02  0.37138067370E+02  0.00000000000E+00 0.  1.
</event>
<event>
 7    1  0.1756449E-015  0.9000794E+02  0.7816164E-02  0.1186339E+00
        -11   -1    0    0    0    0  0.00000000000E+00  0.00000000000E+00  0.45593999997E+02  0.45594000000E+02  0.51100000000E-03 0. -1.
         11   -1    0    0    0    0 -0.00000000000E+00 -0.00000000000E+00 -0.45593999997E+02  0.45594000000E+02  0.51100000000E-03 0.  1.
    9900012    2    1    2    0    0  0.51631109407E+00 -0.70232876579E+00  0.79541983365E+00  0.90007942564E+02  0.90000206605E+02 0.  0.
        -12    1    1    2    0    0 -0.51631109407E+00  0.70232876579E+00 -0.79541983365E+00  0.11800574363E+01  0.00000000000E+00 0.  1.
         11    1    3    3    0    0 -0.43760661241E+01 -0.23537775425E+01 -0.43547341491E+01  0.66071123203E+01  0.51100000000E-03 0. -1.
        -11    1    3    3    0    0 -0.17511933133E+02  0.17393660938E+02 -0.29997160165E+02  0.38846323650E+02  0.51100000000E-03 0.  1.
         12    1    3    3    0    0  0.22404310351E+02 -0.15742212161E+02  0.35147314148E+02  0.44554506594E+02  0.00000000000E+00 0. -1.
</event>
<event>
 7    1  0.1756449E-015  0.9000766E+02  0.7816164E-02  0.1186339E+00
        -11   -1    0    0    0    0  0.00000000000E+00  0.00000000000E+00  0.45593999997E+02  0.45594000000E+02  0.51100000000E-03 0.  1.
         11   -1    0    0    0    0 -0.00000000000E+00 -0.00000000000E+00 -0.45593999997E+02  0.45594000000E+02  0.51100000000E-03 0. -1.
    9900012    2    1    2    0    0 -0.55990371620E-01 -0.11773838151E+01 -0.61943556646E-01  0.90007659128E+02  0.89999919428E+02 0.  0.
        -12    1    1    2    0    0  0.55990371620E-01  0.11773838151E+01  0.61943556646E-01  0.11803408720E+01  0.00000000000E+00 0.  1.
         11    1    3    3    0    0 -0.37724595489E+02 -0.11134210217E+02  0.65874124340E-01  0.39333447365E+02  0.51100000000E-03 0. -1.
        -11    1    3    3    0    0 -0.27379782123E+00 -0.78412736405E+01 -0.35772985456E+01  0.86230854511E+01  0.51100000000E-03 0.  1.
        -12    1    3    3    0    0  0.37942402939E+02  0.17798100042E+02  0.34494808646E+01  0.42051126312E+02  0.00000000000E+00 0.  1.
</event>
<event>
 7    1  0.1756449E-015  0.9000753E+02  0.7816164E-02  0.1186339E+00
        -11   -1    0    0    0    0  0.00000000000E+00  0.00000000000E+00  0.45593999997E+02  0.45594000000E+02  0.51100000000E-03 0. -1.
         11   -1    0    0    0    0 -0.00000000000E+00 -0.00000000000E+00 -0.45593999997E+02  0.45594000000E+02  0.51100000000E-03 0.  1.
    9900012    2    1    2    0    0 -0.87530103934E-01  0.10533202391E+00  0.11725000440E+01  0.90007528608E+02  0.89999787185E+02 0.  0.
        -12    1    1    2    0    0  0.87530103934E-01 -0.10533202391E+00 -0.11725000440E+01  0.11804713921E+01  0.00000000000E+00 0.  1.
         11    1    3    3    0    0  0.53754909971E+01 -0.20063036547E+02  0.31215501004E+02  0.37494384141E+02  0.51100000000E-03 0. -1.
        -11    1    3    3    0    0 -0.83008803929E+01 -0.92487795446E+01 -0.38162897962E+01  0.13000331012E+02  0.51100000000E-03 0.  1.
        -12    1    3    3    0    0  0.28378592919E+01  0.29417148115E+02 -0.26226711164E+02  0.39512813454E+02  0.00000000000E+00 0.  1.
</event>
<event>
 7    1  0.1756449E-015  0.9000777E+02  0.7816164E-02  0.1186339E+00
        -11   -1    0    0    0    0  0.00000000000E+00  0.00000000000E+00  0.45593999997E+02  0.45594000000E+02  0.51100000000E-03 0.  1.
         11   -1    0    0    0    0 -0.00000000000E+00 -0.00000000000E+00 -0.45593999997E+02  0.45594000000E+02  0.51100000000E-03 0. -1.
    9900012    2    1    2    0    0  0.21481629211E+00  0.94731731741E+00 -0.67035993097E+00  0.90007771812E+02  0.90000033600E+02 0.  0.
        -12    1    1    2    0    0 -0.21481629211E+00 -0.94731731741E+00  0.67035993097E+00  0.11802281882E+01  0.00000000000E+00 0.  1.
         11    1    3    3    0    0 -0.13050321927E+02  0.13802375983E+02  0.26622724533E+01  0.19180828451E+02  0.51100000000E-03 0. -1.
        -11    1    3    3    0    0 -0.13716651104E+02  0.16574313441E+02  0.15663516571E+02  0.26612029895E+02  0.51100000000E-03 0.  1.
        -12    1    3    3    0    0  0.26981789323E+02 -0.29429372106E+02 -0.18996148955E+02  0.44214913466E+02  0.00000000000E+00 0.  1.
</event>
<event>
 7    1  0.1756449E-015  0.9000766E+02  0.7816164E-02  0.1186339E+00
        -11   -1    0    0    0    0  0.00000000000E+00  0.00000000000E+00  0.45593999997E+02  0.45594000000E+02  0.51100000000E-03 0.  1.
         11   -1    0    0    0    0 -0.00000000000E+00 -0.00000000000E+00 -0.45593999997E+02  0.45594000000E+02  0.51100000000E-03 0. -1.
    9900012    2    1    2    0    0  0.37912197538E-01  0.44116580526E+00 -0.10941410242E+01  0.90007657176E+02  0.89999917450E+02 0.  0.
        -12    1    1    2    0    0 -0.37912197538E-01 -0.44116580526E+00  0.10941410242E+01  0.11803428245E+01  0.00000000000E+00 0.  1.
         11    1    3    3    0    0 -0.88726741804E+01 -0.29541662219E+02 -0.21623335634E+02  0.37669653542E+02  0.51100000000E-03 0. -1.
        -11    1    3    3    0    0 -0.44084379660E+01 -0.12130221082E+01 -0.71979392062E+01  0.85273722219E+01  0.51100000000E-03 0.  1.
        -12    1    3    3    0    0  0.13319024344E+02  0.31195850133E+02  0.27727133816E+02  0.43810631411E+02  0.00000000000E+00 0.  1.
</event>
<event>
 7    1  0.1756449E-015  0.9000773E+02  0.7816164E-02  0.1186339E+00
        -11   -1    0    0    0    0  0.00000000000E+00  0.00000000000E+00  0.45593999997E+02  0.45594000000E+02  0.51100000000E-03 0.  1.
         11   -1    0    0    0    0 -0.00000000000E+00 -0.00000000000E+00 -0.45593999997E+02  0.45594000000E+02  0.51100000000E-03 0. -1.
    9900012    2    1    2    0    0  0.23819864577E+00 -0.10292317882E+01 -0.52627991714E+00  0.90007734259E+02  0.89999995551E+02 0.  0.
        -12    1    1    2    0    0 -0.23819864577E+00  0.10292317882E+01  0.52627991714E+00  0.11802657412E+01  0.00000000000E+00 0.  1.
         11    1    3    3    0    0 -0.22328696140E+01  0.22669125279E+01  0.82865478015E+01  0.88764561538E+01  0.51100000000E-03 0. -1.
        -11    1    3    3    0    0 -0.18703310625E+02  0.27126741786E+02  0.15896758183E+02  0.36583888110E+02  0.51100000000E-03 0.  1.
         12    1    3    3    0    0  0.21174378885E+02 -0.30422886102E+02 -0.24709585901E+02  0.44547389995E+02  0.00000000000E+00 0. -1.
</event>
<event>
 7    1  0.1756449E-015  0.9000774E+02  0.7816164E-02  0.1186339E+00
        -11   -1    0    0    0    0  0.00000000000E+00  0.00000000000E+00  0.45593999997E+02  0.45594000000E+02  0.51100000000E-03 0.  1.
         11   -1    0    0    0    0 -0.00000000000E+00 -0.00000000000E+00 -0.45593999997E+02  0.45594000000E+02  0.51100000000E-03 0. -1.
    9900012    2    1    2    0    0  0.33424940770E+00  0.18704226702E+00 -0.11163806676E+01  0.90007740168E+02  0.90000001538E+02 0.  0.
        -12    1    1    2    0    0 -0.33424940770E+00 -0.18704226702E+00  0.11163806676E+01  0.11802598321E+01  0.00000000000E+00 0.  1.
         11    1    3    3    0    0  0.81617961890E+01  0.49436009750E+01  0.25675404169E+00  0.95456812502E+01  0.51100000000E-03 0. -1.
        -11    1    3    3    0    0  0.19322969600E+02 -0.64759423357E+01  0.31670206638E+02  0.37660549280E+02  0.51100000000E-03 0.  1.
         12    1    3    3    0    0 -0.27150516382E+02  0.17193836277E+01 -0.33043341348E+02  0.42801509638E+02  0.00000000000E+00 0. -1.
</event>
<event>
 7    1  0.1756449E-015  0.9000779E+02  0.7816164E-02  0.1186339E+00
        -11   -1    0    0    0    0  0.00000000000E+00  0.00000000000E+00  0.45593999997E+02  0.45594000000E+02  0.51100000000E-03 0.  1.
         11   -1    0    0    0    0 -0.00000000000E+00 -0.00000000000E+00 -0.45593999997E+02  0.45594000000E+02  0.51100000000E-03 0. -1.
    9900012    2    1    2    0    0 -0.51779547213E+00  0.60467675773E+00 -0.87129825588E+00  0.90007785281E+02  0.90000047247E+02 0.  0.
        -12    1    1    2    0    0  0.51779547213E+00 -0.60467675773E+00  0.87129825588E+00  0.11802147190E+01  0.00000000000E+00 0.  1.
         11    1    3    3    0    0 -0.32842136128E+02  0.21085807608E+02  0.92761235885E+01  0.40115628588E+02  0.51100000000E-03 0. -1.
        -11    1    3    3    0    0 -0.35220127304E+01 -0.77516874240E+01  0.38695465143E+01  0.93523591719E+01  0.51100000000E-03 0.  1.
        -12    1    3    3    0    0  0.35846353387E+02 -0.12729443426E+02 -0.14016968359E+02  0.40539797521E+02  0.00000000000E+00 0.  1.
</event>
<event>
 7    1  0.1756449E-015  0.9000776E+02  0.7816164E-02  0.1186339E+00
        -11   -1    0    0    0    0  0.00000000000E+00  0.00000000000E+00  0.45593999997E+02  0.45594000000E+02  0.51100000000E-03 0.  1.
         11   -1    0    0    0    0 -0.00000000000E+00 -0.00000000000E+00 -0.45593999997E+02  0.45594000000E+02  0.51100000000E-03 0. -1.
    9900012    2    1    2    0    0 -0.77891778735E+00  0.11006900996E+00 -0.87985100283E+00  0.90007760239E+02  0.90000021874E+02 0.  0.
        -12    1    1    2    0    0  0.77891778735E+00 -0.11006900996E+00  0.87985100283E+00  0.11802397611E+01  0.00000000000E+00 0.  1.
         11    1    3    3    0    0 -0.64989164059E+01  0.67291558563E+01 -0.13731135277E+01  0.94553103603E+01  0.51100000000E-03 0. -1.
        -11    1    3    3    0    0 -0.18639281521E+02 -0.27962502790E+02  0.23342163155E+02  0.40916756456E+02  0.51100000000E-03 0.  1.
         12    1    3    3    0    0  0.24359280139E+02  0.21343415943E+02 -0.22848900631E+02  0.39635693422E+02  0.00000000000E+00 0. -1.
</event>
<event>
 7    1  0.1756449E-015  0.9000770E+02  0.7816164E-02  0.1186339E+00
        -11   -1    0    0    0    0  0.00000000000E+00  0.00000000000E+00  0.45593999997E+02  0.45594000000E+02  0.51100000000E-03 0. -1.
         11   -1    0    0    0    0 -0.00000000000E+00 -0.00000000000E+00 -0.45593999997E+02  0.45594000000E+02  0.51100000000E-03 0.  1.
    9900012    2    1    2    0    0  0.67259439873E+00  0.96471728788E+00 -0.10025292706E+00  0.90007697784E+02  0.89999958595E+02 0.  0.
        -12    1    1    2    0    0 -0.67259439873E+00 -0.96471728788E+00  0.10025292706E+00  0.11803022156E+01  0.00000000000E+00 0.  1.
         11    1    3    3    0    0 -0.17068059991E+02 -0.19186070860E+01 -0.28791297418E+01  0.17415197769E+02  0.51100000000E-03 0. -1.
        -11    1    3    3    0    0 -0.98327915489E+01  0.17638305657E+02 -0.24039029069E+02  0.31395358494E+02  0.51100000000E-03 0.  1.
         12    1    3    3    0    0  0.27573445938E+02 -0.14754981283E+02  0.26817905884E+02  0.41197141522E+02  0.00000000000E+00 0. -1.
</event>
<event>
 7    1  0.1756449E-015  0.9000771E+02  0.7816164E-02  0.1186339E+00
        -11   -1    0    0    0    0  0.00000000000E+00  0.00000000000E+00  0.45593999997E+02  0.45594000000E+02  0.51100000000E-03 0. -1.
         11   -1    0    0    0    0 -0.00000000000E+00 -0.00000000000E+00 -0.45593999997E+02  0.45594000000E+02  0.51100000000E-03 0.  1.
    9900012    2    1    2    0    0 -0.82638526530E+00  0.29271942958E+00 -0.79025196834E+00  0.90007705357E+02  0.89999966268E+02 0.  0.
        -12    1    1    2    0    0  0.82638526530E+00 -0.29271942958E+00  0.79025196834E+00  0.11802946431E+01  0.00000000000E+00 0.  1.
         11    1    3    3    0    0 -0.60160040610E+01  0.71414635909E+01 -0.56406343886E+00  0.93547300820E+01  0.51100000000E-03 0. -1.
        -11    1    3    3    0    0 -0.68778187685E+01  0.76384488716E+01 -0.37499216470E+02  0.38882406411E+02  0.51100000000E-03 0.  1.
         12    1    3    3    0    0  0.12067437564E+02 -0.14487193033E+02  0.37273027941E+02  0.41770568864E+02  0.00000000000E+00 0. -1.
</event>
<event>
 7    1  0.1756449E-015  0.9000793E+02  0.7816164E-02  0.1186339E+00
        -11   -1    0    0    0    0  0.00000000000E+00  0.00000000000E+00  0.45593999997E+02  0.45594000000E+02  0.51100000000E-03 0. -1.
         11   -1    0    0    0    0 -0.00000000000E+00 -0.00000000000E+00 -0.45593999997E+02  0.45594000000E+02  0.51100000000E-03 0.  1.
    9900012    2    1    2    0    0 -0.10651263252E+01  0.50196406432E+00  0.78081347343E-01  0.90007932753E+02  0.90000196665E+02 0.  0.
        -12    1    1    2    0    0  0.10651263252E+01 -0.50196406432E+00 -0.78081347343E-01  0.11800672469E+01  0.00000000000E+00 0.  1.
         11    1    3    3    0    0  0.32760965521E+01 -0.40046278159E+00 -0.10588146197E+02  0.11090627539E+02  0.51100000000E-03 0. -1.
        -11    1    3    3    0    0 -0.12241184526E+02 -0.66821806368E+01 -0.31979308988E+02  0.34888025743E+02  0.51100000000E-03 0.  1.
         12    1    3    3    0    0  0.78999616490E+01  0.75846074827E+01  0.42645536531E+02  0.44029279471E+02  0.00000000000E+00 0. -1.
</event>
<event>
 7    1  0.1756449E-015  0.9000772E+02  0.7816164E-02  0.1186339E+00
        -11   -1    0    0    0    0  0.00000000000E+00  0.00000000000E+00  0.45593999997E+02  0.45594000000E+02  0.51100000000E-03 0.  1.
         11   -1    0    0    0    0 -0.00000000000E+00 -0.00000000000E+00 -0.45593999997E+02  0.45594000000E+02  0.51100000000E-03 0. -1.
    9900012    2    1    2    0    0  0.72491509938E+00 -0.57013850742E+00 -0.73654204456E+00  0.90007722913E+02  0.89999984055E+02 0.  0.
        -12    1    1    2    0    0 -0.72491509938E+00  0.57013850742E+00  0.73654204456E+00  0.11802770871E+01  0.00000000000E+00 0.  1.
         11    1    3    3    0    0  0.10118865144E+01 -0.33547121485E+01 -0.88027548819E+01  0.94745185466E+01  0.51100000000E-03 0. -1.
        -11    1    3    3    0    0 -0.27019884928E+02 -0.23286455291E+02 -0.12630669120E+02  0.37840018291E+02  0.51100000000E-03 0.  1.
         12    1    3    3    0    0  0.26732913513E+02  0.26071028933E+02  0.20696881958E+02  0.42693186075E+02  0.00000000000E+00 0. -1.
</event>
<event>
 7    1  0.1756449E-015  0.9000783E+02  0.7816164E-02  0.1186339E+00
        -11   -1    0    0    0    0  0.00000000000E+00  0.00000000000E+00  0.45593999997E+02  0.45594000000E+02  0.51100000000E-03 0.  1.
         11   -1    0    0    0    0 -0.00000000000E+00 -0.00000000000E+00 -0.45593999997E+02  0.45594000000E+02  0.51100000000E-03 0. -1.
    9900012    2    1    2    0    0  0.10229999452E+01 -0.20357070767E+00 -0.55211847208E+00  0.90007828518E+02  0.90000091054E+02 0.  0.
        -12    1    1    2    0    0 -0.10229999452E+01  0.20357070767E+00  0.55211847208E+00  0.11801714825E+01  0.00000000000E+00 0.  1.
         11    1    3    3    0    0  0.48957033598E+01 -0.79117098986E+01  0.54786146375E+01  0.10797142377E+02  0.51100000000E-03 0. -1.
        -11    1    3    3    0    0 -0.35525252665E+02 -0.19035482538E+01 -0.22666561211E+02  0.42183409894E+02  0.51100000000E-03 0.  1.
         12    1    3    3    0    0  0.31652549251E+02  0.96116874448E+01  0.16635828102E+02  0.37027276246E+02  0.00000000000E+00 0. -1.
</event>
<event>
 7    1  0.1756449E-015  0.9000776E+02  0.7816164E-02  0.1186339E+00
        -11   -1    0    0    0    0  0.00000000000E+00  0.00000000000E+00  0.45593999997E+02  0.45594000000E+02  0.51100000000E-03 0.  1.
         11   -1    0    0    0    0 -0.00000000000E+00 -0.00000000000E+00 -0.45593999997E+02  0.45594000000E+02  0.51100000000E-03 0. -1.
    9900012    2    1    2    0    0  0.73198091461E+00 -0.77939758524E+00 -0.49972143596E+00  0.90007755039E+02  0.90000016605E+02 0.  0.
        -12    1    1    2    0    0 -0.73198091461E+00  0.77939758524E+00  0.49972143596E+00  0.11802449613E+01  0.00000000000E+00 0.  1.
         11    1    3    3    0    0  0.97157127617E+01 -0.11075036874E+01 -0.44541155593E+01  0.10745268008E+02  0.51100000000E-03 0. -1.
        -11    1    3    3    0    0  0.30668443161E+00  0.38178766608E+02  0.10830495510E+02  0.39686419696E+02  0.51100000000E-03 0.  1.
         12    1    3    3    0    0 -0.92904162787E+01 -0.37850660506E+02 -0.68761013871E+01  0.39576067334E+02  0.00000000000E+00 0. -1.
</event>
<event>
 7    1  0.1756449E-015  0.9000776E+02  0.7816164E-02  0.1186339E+00
        -11   -1    0    0    0    0  0.00000000000E+00  0.00000000000E+00  0.45593999997E+02  0.45594000000E+02  0.51100000000E-03 0. -1.
         11   -1    0    0    0    0 -0.00000000000E+00 -0.00000000000E+00 -0.45593999997E+02  0.45594000000E+02  0.51100000000E-03 0.  1.
    9900012    2    1    2    0    0 -0.85920007213E+00  0.79303479558E+00  0.16073733822E+00  0.90007760430E+02  0.90000022068E+02 0.  0.
        -12    1    1    2    0    0  0.85920007213E+00 -0.79303479558E+00 -0.16073733822E+00  0.11802395701E+01  0.00000000000E+00 0.  1.
         11    1    3    3    0    0 -0.59901224550E+00  0.28351448813E+02  0.25935541305E+02  0.38429360761E+02  0.51100000000E-03 0. -1.
        -11    1    3    3    0    0  0.46558604688E+01 -0.80113159425E+01  0.80032377075E+01  0.12243775312E+02  0.51100000000E-03 0.  1.
        -12    1    3    3    0    0 -0.49160482954E+01 -0.19547098075E+02 -0.33778041674E+02  0.39334624357E+02  0.00000000000E+00 0.  1.
</event>
<event>
 7    1  0.1756449E-015  0.9000775E+02  0.7816164E-02  0.1186339E+00
        -11   -1    0    0    0    0  0.00000000000E+00  0.00000000000E+00  0.45593999997E+02  0.45594000000E+02  0.51100000000E-03 0. -1.
         11   -1    0    0    0    0 -0.00000000000E+00 -0.00000000000E+00 -0.45593999997E+02  0.45594000000E+02  0.51100000000E-03 0.  1.
    9900012    2    1    2    0    0 -0.15162415904E+00  0.86169071699E+00  0.79213492712E+00  0.90007754890E+02  0.90000016454E+02 0.  0.
        -12    1    1    2    0    0  0.15162415904E+00 -0.86169071699E+00 -0.79213492712E+00  0.11802451102E+01  0.00000000000E+00 0.  1.
         11    1    3    3    0    0  0.28071671081E+02 -0.21035705401E+02  0.71029610390E+01  0.35790664632E+02  0.51100000000E-03 0. -1.
        -11    1    3    3    0    0  0.34551255637E+01 -0.89156211566E+01  0.99542214413E-01  0.95622226592E+01  0.51100000000E-03 0.  1.
        -12    1    3    3    0    0 -0.31678420804E+02  0.30813017275E+02 -0.64103683262E+01  0.44654867599E+02  0.00000000000E+00 0.  1.
</event>
<event>
 7    1  0.1756449E-015  0.9000768E+02  0.7816164E-02  0.1186339E+00
        -11   -1    0    0    0    0  0.00000000000E+00  0.00000000000E+00  0.45593999997E+02  0.45594000000E+02  0.51100000000E-03 0. -1.
         11   -1    0    0    0    0 -0.00000000000E+00 -0.00000000000E+00 -0.45593999997E+02  0.45594000000E+02  0.51100000000E-03 0.  1.
    9900012    2    1    2    0    0 -0.60208399596E+00 -0.92816680330E+00  0.41129214941E+00  0.90007678016E+02  0.89999938566E+02 0.  0.
        -12    1    1    2    0    0  0.60208399596E+00  0.92816680330E+00 -0.41129214941E+00  0.11803219837E+01  0.00000000000E+00 0.  1.
         11    1    3    3    0    0 -0.23448509878E+02  0.12862134391E+02 -0.32040139418E+02  0.41735328569E+02  0.51100000000E-03 0. -1.
        -11    1    3    3    0    0 -0.42744297289E+01 -0.52829107025E+01  0.98057102263E+01  0.11930291208E+02  0.51100000000E-03 0.  1.
        -12    1    3    3    0    0  0.27120855611E+02 -0.85073904919E+01  0.22645721341E+02  0.36342058240E+02  0.00000000000E+00 0.  1.
</event>
<event>
 7    1  0.4193660E-015  0.9000773E+02  0.7816164E-02  0.1186339E+00
        -11   -1    0    0    0    0  0.00000000000E+00  0.00000000000E+00  0.45593999997E+02  0.45594000000E+02  0.51100000000E-03 0. -1.
         11   -1    0    0    0    0 -0.00000000000E+00 -0.00000000000E+00 -0.45593999997E+02  0.45594000000E+02  0.51100000000E-03 0.  1.
    9900012    2    1    2    0    0 -0.57654192631E+00 -0.43072610714E+00  0.93546972257E+00  0.90007733431E+02  0.89999994712E+02 0.  0.
        -12    1    1    2    0    0  0.57654192631E+00  0.43072610714E+00 -0.93546972257E+00  0.11802665691E+01  0.00000000000E+00 0.  1.
         11    1    3    3    0    0 -0.46445330031E+00  0.93604400660E+01  0.31851844969E+00  0.93773668671E+01  0.51100000000E-03 0. -1.
        -11    1    3    3    0    0 -0.69432701407E+01  0.12880903308E+02 -0.34957127366E+02  0.37896271904E+02  0.51100000000E-03 0.  1.
         12    1    3    3    0    0  0.68311815147E+01 -0.22672069481E+02  0.35574078638E+02  0.42734094660E+02  0.00000000000E+00 0. -1.
</event>
<event>
 7    1  0.1756449E-015  0.9000756E+02  0.7816164E-02  0.1186339E+00
        -11   -1    0    0    0    0  0.00000000000E+00  0.00000000000E+00  0.45593999997E+02  0.45594000000E+02  0.51100000000E-03 0.  1.
         11   -1    0    0    0    0 -0.00000000000E+00 -0.00000000000E+00 -0.45593999997E+02  0.45594000000E+02  0.51100000000E-03 0. -1.
    9900012    2    1    2    0    0 -0.85926548729E-01  0.19025079133E-01 -0.11771569171E+01  0.90007557823E+02  0.89999816786E+02 0.  0.
        -12    1    1    2    0    0  0.85926548729E-01 -0.19025079133E-01  0.11771569171E+01  0.11804421768E+01  0.00000000000E+00 0.  1.
         11    1    3    3    0    0 -0.29726081425E+01  0.95336718547E+01 -0.38839536723E+02  0.40102829219E+02  0.51100000000E-03 0. -1.
        -11    1    3    3    0    0 -0.87218403148E+01 -0.43503604024E+01 -0.42318863448E+00  0.97557789535E+01  0.51100000000E-03 0.  1.
        -12    1    3    3    0    0  0.11608521909E+02 -0.51642863732E+01  0.38085568441E+02  0.40148949651E+02  0.00000000000E+00 0.  1.
</event>
<event>
 7    1  0.1756449E-015  0.9000789E+02  0.7816164E-02  0.1186339E+00
        -11   -1    0    0    0    0  0.00000000000E+00  0.00000000000E+00  0.45593999997E+02  0.45594000000E+02  0.51100000000E-03 0.  1.
         11   -1    0    0    0    0 -0.00000000000E+00 -0.00000000000E+00 -0.45593999997E+02  0.45594000000E+02  0.51100000000E-03 0. -1.
    9900012    2    1    2    0    0 -0.97158702175E+00 -0.12883563478E+00  0.65733208263E+00  0.90007887536E+02  0.90000150851E+02 0.  0.
        -12    1    1    2    0    0  0.97158702175E+00  0.12883563478E+00 -0.65733208263E+00  0.11801124643E+01  0.00000000000E+00 0.  1.
         11    1    3    3    0    0  0.94290136313E+01 -0.37974282423E+01 -0.15302781348E+01  0.10279518994E+02  0.51100000000E-03 0. -1.
        -11    1    3    3    0    0 -0.27616786039E+02 -0.22044132337E+02  0.23247633571E+02  0.42297554404E+02  0.51100000000E-03 0.  1.
         12    1    3    3    0    0  0.17216185386E+02  0.25712724945E+02 -0.21060023354E+02  0.37430814138E+02  0.00000000000E+00 0. -1.
</event>
<event>
 7    1  0.1756449E-015  0.9000774E+02  0.7816164E-02  0.1186339E+00
        -11   -1    0    0    0    0  0.00000000000E+00  0.00000000000E+00  0.45593999997E+02  0.45594000000E+02  0.51100000000E-03 0.  1.
         11   -1    0    0    0    0 -0.00000000000E+00 -0.00000000000E+00 -0.45593999997E+02  0.45594000000E+02  0.51100000000E-03 0. -1.
    9900012    2    1    2    0    0  0.81222531764E+00  0.46582301540E+00 -0.71855466450E+00  0.90007736532E+02  0.89999997854E+02 0.  0.
        -12    1    1    2    0    0 -0.81222531764E+00 -0.46582301540E+00  0.71855466450E+00  0.11802634681E+01  0.00000000000E+00 0.  1.
         11    1    3    3    0    0 -0.23140187735E+00 -0.41779102688E+01 -0.75879049089E+01  0.86651475585E+01  0.51100000000E-03 0. -1.
        -11    1    3    3    0    0 -0.99842719730E+01 -0.24485398059E+02  0.31864022220E+02  0.41406959768E+02  0.51100000000E-03 0.  1.
         12    1    3    3    0    0  0.11027899168E+02  0.29129131343E+02 -0.24994671976E+02  0.39935629205E+02  0.00000000000E+00 0. -1.
</event>
<event>
 7    1  0.1756449E-015  0.9000770E+02  0.7816164E-02  0.1186339E+00
        -11   -1    0    0    0    0  0.00000000000E+00  0.00000000000E+00  0.45593999997E+02  0.45594000000E+02  0.51100000000E-03 0. -1.
         11   -1    0    0    0    0 -0.00000000000E+00 -0.00000000000E+00 -0.45593999997E+02  0.45594000000E+02  0.51100000000E-03 0.  1.
    9900012    2    1    2    0    0  0.17733383965E+00 -0.34556448580E+00  0.11145660881E+01  0.90007695095E+02  0.89999955870E+02 0.  0.
        -12    1    1    2    0    0 -0.17733383965E+00  0.34556448580E+00 -0.11145660881E+01  0.11803049052E+01  0.00000000000E+00 0.  1.
         11    1    3    3    0    0 -0.18658853791E+02  0.31215800296E+02  0.78671537326E+01  0.37208481843E+02  0.51100000000E-03 0. -1.
        -11    1    3    3    0    0 -0.81007584577E+01 -0.46970638163E+00 -0.83334503203E+01  0.11631393131E+02  0.51100000000E-03 0.  1.
        -12    1    3    3    0    0  0.26936946089E+02 -0.31091658400E+02  0.15808626757E+01  0.41167820121E+02  0.00000000000E+00 0.  1.
</event>
<event>
 7    1  0.1756449E-015  0.9000777E+02  0.7816164E-02  0.1186339E+00
        -11   -1    0    0    0    0  0.00000000000E+00  0.00000000000E+00  0.45593999997E+02  0.45594000000E+02  0.51100000000E-03 0.  1.
         11   -1    0    0    0    0 -0.00000000000E+00 -0.00000000000E+00 -0.45593999997E+02  0.45594000000E+02  0.51100000000E-03 0. -1.
    9900012    2    1    2    0    0 -0.69174098783E+00  0.47269136290E+00 -0.83127049814E+00  0.90007765549E+02  0.90000027254E+02 0.  0.
        -12    1    1    2    0    0  0.69174098783E+00 -0.47269136290E+00  0.83127049814E+00  0.11802344512E+01  0.00000000000E+00 0.  1.
         11    1    3    3    0    0 -0.14039520799E+02  0.23842360468E+02  0.33445278389E+02  0.43406830611E+02  0.51100000000E-03 0. -1.
        -11    1    3    3    0    0 -0.24464276355E+01 -0.83003334603E+01 -0.47203796858E+01  0.98571054762E+01  0.51100000000E-03 0.  1.
        -12    1    3    3    0    0  0.15794207447E+02 -0.15069335644E+02 -0.29556169201E+02  0.36743829461E+02  0.00000000000E+00 0.  1.
</event>
<event>
 7    1  0.1756449E-015  0.9000894E+02  0.7816164E-02  0.1186337E+00
        -11   -1    0    0    0    0  0.00000000000E+00  0.00000000000E+00  0.45593999997E+02  0.45594000000E+02  0.51100000000E-03 0. -1.
         11   -1    0    0    0    0 -0.00000000000E+00 -0.00000000000E+00 -0.45593999997E+02  0.45594000000E+02  0.51100000000E-03 0.  1.
    9900012    2    1    2    0    0 -0.10853677490E+01  0.45214454561E+00  0.87948058326E-01  0.90008935667E+02  0.90001212809E+02 0.  0.
        -12    1    1    2    0    0  0.10853677490E+01 -0.45214454561E+00 -0.87948058326E-01  0.11790643332E+01  0.00000000000E+00 0.  1.
         11    1    3    3    0    0 -0.79460016299E+01  0.82436387285E+01 -0.59558973533E+00  0.11465219090E+02  0.51100000000E-03 0. -1.
        -11    1    3    3    0    0 -0.96720699874E+01 -0.39393948724E+02  0.98006901509E+01  0.41731111435E+02  0.51100000000E-03 0.  1.
         12    1    3    3    0    0  0.16532703868E+02  0.31602454541E+02 -0.91171523572E+01  0.36812605142E+02  0.00000000000E+00 0. -1.
</event>
<event>
 7    1  0.1756449E-015  0.9000770E+02  0.7816164E-02  0.1186339E+00
        -11   -1    0    0    0    0  0.00000000000E+00  0.00000000000E+00  0.45593999997E+02  0.45594000000E+02  0.51100000000E-03 0.  1.
         11   -1    0    0    0    0 -0.00000000000E+00 -0.00000000000E+00 -0.45593999997E+02  0.45594000000E+02  0.51100000000E-03 0. -1.
    9900012    2    1    2    0    0  0.20671565927E+00 -0.11578876751E+01 -0.98326578642E-01  0.90007702009E+02  0.89999962875E+02 0.  0.
        -12    1    1    2    0    0 -0.20671565927E+00  0.11578876751E+01  0.98326578642E-01  0.11802979912E+01  0.00000000000E+00 0.  1.
         11    1    3    3    0    0  0.44694456755E+01 -0.13200996159E+02 -0.91847504471E+01  0.16691371582E+02  0.51100000000E-03 0. -1.
        -11    1    3    3    0    0  0.96222159223E+01  0.15351323083E+02  0.37428476729E+02  0.41582941577E+02  0.51100000000E-03 0.  1.
         12    1    3    3    0    0 -0.13884945938E+02 -0.33082145993E+01 -0.28342052861E+02  0.31733388850E+02  0.00000000000E+00 0. -1.
</event>
<event>
 7    1  0.1756449E-015  0.9000777E+02  0.7816164E-02  0.1186339E+00
        -11   -1    0    0    0    0  0.00000000000E+00  0.00000000000E+00  0.45593999997E+02  0.45594000000E+02  0.51100000000E-03 0.  1.
         11   -1    0    0    0    0 -0.00000000000E+00 -0.00000000000E+00 -0.45593999997E+02  0.45594000000E+02  0.51100000000E-03 0. -1.
    9900012    2    1    2    0    0  0.64283004749E+00 -0.77365211116E+00 -0.61738676413E+00  0.90007773549E+02  0.90000035360E+02 0.  0.
        -12    1    1    2    0    0 -0.64283004749E+00  0.77365211116E+00  0.61738676413E+00  0.11802264510E+01  0.00000000000E+00 0.  1.
         11    1    3    3    0    0  0.13531839648E+02  0.52431605929E+01 -0.31003907690E+02  0.34232202815E+02  0.51100000000E-03 0. -1.
        -11    1    3    3    0    0 -0.22932304142E+01 -0.54603778474E+01 -0.11301076105E+02  0.12758877433E+02  0.51100000000E-03 0.  1.
        -12    1    3    3    0    0 -0.10595779186E+02 -0.55643485662E+00  0.41687597031E+02  0.43016693301E+02  0.00000000000E+00 0.  1.
</event>
<event>
 7    1  0.1756449E-015  0.9000766E+02  0.7816164E-02  0.1186339E+00
        -11   -1    0    0    0    0  0.00000000000E+00  0.00000000000E+00  0.45593999997E+02  0.45594000000E+02  0.51100000000E-03 0. -1.
         11   -1    0    0    0    0 -0.00000000000E+00 -0.00000000000E+00 -0.45593999997E+02  0.45594000000E+02  0.51100000000E-03 0.  1.
    9900012    2    1    2    0    0 -0.37318957792E-03 -0.11712063320E+01  0.14653422329E+00  0.90007662468E+02  0.89999922812E+02 0.  0.
        -12    1    1    2    0    0  0.37318957791E-03  0.11712063320E+01 -0.14653422329E+00  0.11803375322E+01  0.00000000000E+00 0.  1.
         11    1    3    3    0    0 -0.21862121132E+02  0.81460219454E+01  0.27690120176E+02  0.36208462679E+02  0.51100000000E-03 0. -1.
        -11    1    3    3    0    0 -0.19523984702E+01 -0.47705740477E+01  0.87484351005E+01  0.10154080633E+02  0.51100000000E-03 0.  1.
        -12    1    3    3    0    0  0.23814146413E+02 -0.45466542296E+01 -0.36292021053E+02  0.43645119156E+02  0.00000000000E+00 0.  1.
</event>
<event>
 7    1  0.1756449E-015  0.9000775E+02  0.7816164E-02  0.1186339E+00
        -11   -1    0    0    0    0  0.00000000000E+00  0.00000000000E+00  0.45593999997E+02  0.45594000000E+02  0.51100000000E-03 0.  1.
         11   -1    0    0    0    0 -0.00000000000E+00 -0.00000000000E+00 -0.45593999997E+02  0.45594000000E+02  0.51100000000E-03 0. -1.
    9900012    2    1    2    0    0 -0.63764061934E+00 -0.90085265573E+00  0.41818349894E+00  0.90007746423E+02  0.90000007876E+02 0.  0.
        -12    1    1    2    0    0  0.63764061934E+00  0.90085265573E+00 -0.41818349894E+00  0.11802535768E+01  0.00000000000E+00 0.  1.
         11    1    3    3    0    0  0.22859995593E+02 -0.35957317341E+02  0.98789887207E+01  0.43739027050E+02  0.51100000000E-03 0. -1.
        -11    1    3    3    0    0 -0.34435128057E+01  0.29195555951E+01 -0.69723704698E+01  0.83063551300E+01  0.51100000000E-03 0.  1.
        -12    1    3    3    0    0 -0.20054123406E+02  0.32136909090E+02 -0.24884347520E+01  0.37962364244E+02  0.00000000000E+00 0.  1.
</event>
<event>
 7    1  0.1756449E-015  0.9000774E+02  0.7816164E-02  0.1186339E+00
        -11   -1    0    0    0    0  0.00000000000E+00  0.00000000000E+00  0.45593999997E+02  0.45594000000E+02  0.51100000000E-03 0. -1.
         11   -1    0    0    0    0 -0.00000000000E+00 -0.00000000000E+00 -0.45593999997E+02  0.45594000000E+02  0.51100000000E-03 0.  1.
    9900012    2    1    2    0    0  0.28177036898E+00  0.10183709418E+00  0.11416008379E+01  0.90007738246E+02  0.89999999591E+02 0.  0.
        -12    1    1    2    0    0 -0.28177036898E+00 -0.10183709418E+00 -0.11416008379E+01  0.11802617539E+01  0.00000000000E+00 0.  1.
         11    1    3    3    0    0  0.28314586531E+02 -0.14606322738E+02  0.13348849961E+02  0.34543483754E+02  0.51100000000E-03 0. -1.
        -11    1    3    3    0    0  0.11810230313E+02  0.59872782585E+01 -0.42713960033E+01  0.13913082515E+02  0.51100000000E-03 0.  1.
        -12    1    3    3    0    0 -0.39843046476E+02  0.87208815734E+01 -0.79358531193E+01  0.41551171976E+02  0.00000000000E+00 0.  1.
</event>
<event>
 7    1  0.1756449E-015  0.9000772E+02  0.7816164E-02  0.1186339E+00
        -11   -1    0    0    0    0  0.00000000000E+00  0.00000000000E+00  0.45593999997E+02  0.45594000000E+02  0.51100000000E-03 0.  1.
         11   -1    0    0    0    0 -0.00000000000E+00 -0.00000000000E+00 -0.45593999997E+02  0.45594000000E+02  0.51100000000E-03 0. -1.
    9900012    2    1    2    0    0 -0.10416014140E+00  0.10366944981E+01 -0.55450016902E+00  0.90007722382E+02  0.89999983518E+02 0.  0.
        -12    1    1    2    0    0  0.10416014140E+00 -0.10366944981E+01  0.55450016902E+00  0.11802776177E+01  0.00000000000E+00 0.  1.
         11    1    3    3    0    0  0.32381609555E+01 -0.29893068204E+02 -0.30084542991E+02  0.42534232569E+02  0.51100000000E-03 0. -1.
        -11    1    3    3    0    0 -0.81640969579E+01  0.43451850805E+01  0.33067666341E+01  0.98218032130E+01  0.51100000000E-03 0.  1.
        -12    1    3    3    0    0  0.48217758610E+01  0.26584577622E+02  0.26223276188E+02  0.37651686600E+02  0.00000000000E+00 0.  1.
</event>
<event>
 7    1  0.1756449E-015  0.9000766E+02  0.7816164E-02  0.1186339E+00
        -11   -1    0    0    0    0  0.00000000000E+00  0.00000000000E+00  0.45593999997E+02  0.45594000000E+02  0.51100000000E-03 0. -1.
         11   -1    0    0    0    0 -0.00000000000E+00 -0.00000000000E+00 -0.45593999997E+02  0.45594000000E+02  0.51100000000E-03 0.  1.
    9900012    2    1    2    0    0 -0.22768825587E+00  0.80894453462E+00  0.82883315309E+00  0.90007662083E+02  0.89999922423E+02 0.  0.
        -12    1    1    2    0    0  0.22768825587E+00 -0.80894453462E+00 -0.82883315309E+00  0.11803379167E+01  0.00000000000E+00 0.  1.
         11    1    3    3    0    0 -0.77812161217E+01 -0.20606109018E+01 -0.90829120721E+01  0.12136421779E+02  0.51100000000E-03 0. -1.
        -11    1    3    3    0    0 -0.13776709796E+02  0.15949164700E+02 -0.26395622493E+02  0.33777247882E+02  0.51100000000E-03 0.  1.
         12    1    3    3    0    0  0.21330237662E+02 -0.13079609264E+02  0.36307367718E+02  0.44093992423E+02  0.00000000000E+00 0. -1.
</event>
<event>
 7    1  0.1756449E-015  0.9000776E+02  0.7816164E-02  0.1186339E+00
        -11   -1    0    0    0    0  0.00000000000E+00  0.00000000000E+00  0.45593999997E+02  0.45594000000E+02  0.51100000000E-03 0. -1.
         11   -1    0    0    0    0 -0.00000000000E+00 -0.00000000000E+00 -0.45593999997E+02  0.45594000000E+02  0.51100000000E-03 0.  1.
    9900012    2    1    2    0    0 -0.59576718833E+00 -0.31095327419E+00  0.97022635506E+00  0.90007758643E+02  0.90000020257E+02 0.  0.
        -12    1    1    2    0    0  0.59576718833E+00  0.31095327419E+00 -0.97022635506E+00  0.11802413573E+01  0.00000000000E+00 0.  1.
         11    1    3    3    0    0 -0.42168152625E+01  0.88593964508E+01  0.37230326960E+02  0.38501528310E+02  0.51100000000E-03 0. -1.
        -11    1    3    3    0    0  0.57690884216E+01 -0.66984384754E+01  0.49731359218E+01  0.10143152389E+02  0.51100000000E-03 0.  1.
        -12    1    3    3    0    0 -0.21480403475E+01 -0.24719112496E+01 -0.41233236526E+02  0.41363077944E+02  0.00000000000E+00 0.  1.
</event>
<event>
 7    1  0.1756449E-015  0.9000795E+02  0.7816164E-02  0.1186339E+00
        -11   -1    0    0    0    0  0.00000000000E+00  0.00000000000E+00  0.45593999997E+02  0.45594000000E+02  0.51100000000E-03 0.  1.
         11   -1    0    0    0    0 -0.00000000000E+00 -0.00000000000E+00 -0.45593999997E+02  0.45594000000E+02  0.51100000000E-03 0. -1.
    9900012    2    1    2    0    0 -0.72392566249E+00 -0.83885625329E+00 -0.40593064090E+00  0.90007945822E+02  0.90000209906E+02 0.  0.
        -12    1    1    2    0    0  0.72392566249E+00  0.83885625329E+00  0.40593064090E+00  0.11800541783E+01  0.00000000000E+00 0.  1.
         11    1    3    3    0    0 -0.37454691691E+02 -0.20042481871E+02 -0.16010538424E+01  0.42510215042E+02  0.51100000000E-03 0. -1.
        -11    1    3    3    0    0  0.36378254696E+01  0.13362171904E+02 -0.41375371854E+00  0.13854696118E+02  0.51100000000E-03 0.  1.
        -12    1    3    3    0    0  0.33092940559E+02  0.58414537144E+01  0.16088769200E+01  0.33643034662E+02  0.00000000000E+00 0.  1.
</event>
<event>
 7    1  0.1756449E-015  0.9000775E+02  0.7816164E-02  0.1186339E+00
        -11   -1    0    0    0    0  0.00000000000E+00  0.00000000000E+00  0.45593999997E+02  0.45594000000E+02  0.51100000000E-03 0.  1.
         11   -1    0    0    0    0 -0.00000000000E+00 -0.00000000000E+00 -0.45593999997E+02  0.45594000000E+02  0.51100000000E-03 0. -1.
    9900012    2    1    2    0    0 -0.45920372873E+00 -0.10196091280E+01 -0.37750606280E+00  0.90007753557E+02  0.90000015104E+02 0.  0.
        -12    1    1    2    0    0  0.45920372873E+00  0.10196091280E+01  0.37750606280E+00  0.11802464428E+01  0.00000000000E+00 0.  1.
         11    1    3    3    0    0  0.44315332903E+01 -0.62221060094E+01  0.24818993061E+01  0.80319932098E+01  0.51100000000E-03 0. -1.
        -11    1    3    3    0    0 -0.21135759900E+02 -0.32307921482E+02 -0.11319381198E+02  0.40232456151E+02  0.51100000000E-03 0.  1.
         12    1    3    3    0    0  0.16245022881E+02  0.37510418363E+02  0.84599758287E+01  0.41743304196E+02  0.00000000000E+00 0. -1.
</event>
<event>
 7    1  0.1756449E-015  0.9000777E+02  0.7816164E-02  0.1186339E+00
        -11   -1    0    0    0    0  0.00000000000E+00  0.00000000000E+00  0.45593999997E+02  0.45594000000E+02  0.51100000000E-03 0. -1.
         11   -1    0    0    0    0 -0.00000000000E+00 -0.00000000000E+00 -0.45593999997E+02  0.45594000000E+02  0.51100000000E-03 0.  1.
    9900012    2    1    2    0    0  0.26343765523E+00  0.94846956481E+00  0.65111656863E+00  0.90007768370E+02  0.90000030113E+02 0.  0.
        -12    1    1    2    0    0 -0.26343765523E+00 -0.94846956481E+00 -0.65111656863E+00  0.11802316296E+01  0.00000000000E+00 0.  1.
         11    1    3    3    0    0  0.67491993974E+01 -0.29717663596E+02  0.26572449676E+02  0.40432490699E+02  0.51100000000E-03 0. -1.
        -11    1    3    3    0    0  0.80670097520E+01  0.18907410646E+00 -0.24005589796E+01  0.84187338141E+01  0.51100000000E-03 0.  1.
        -12    1    3    3    0    0 -0.14552771494E+02  0.30477059054E+02 -0.23520774127E+02  0.41156543857E+02  0.00000000000E+00 0.  1.
</event>
<event>
 7    1  0.1756449E-015  0.9000769E+02  0.7816164E-02  0.1186339E+00
        -11   -1    0    0    0    0  0.00000000000E+00  0.00000000000E+00  0.45593999997E+02  0.45594000000E+02  0.51100000000E-03 0.  1.
         11   -1    0    0    0    0 -0.00000000000E+00 -0.00000000000E+00 -0.45593999997E+02  0.45594000000E+02  0.51100000000E-03 0. -1.
    9900012    2    1    2    0    0 -0.10441459636E+01 -0.35770851065E+00  0.41824802724E+00  0.90007691742E+02  0.89999952473E+02 0.  0.
        -12    1    1    2    0    0  0.10441459636E+01  0.35770851065E+00 -0.41824802724E+00  0.11803082581E+01  0.00000000000E+00 0.  1.
         11    1    3    3    0    0  0.50020188917E+01  0.67898272950E+01 -0.34695862969E+02  0.35706089889E+02  0.51100000000E-03 0. -1.
        -11    1    3    3    0    0  0.64333595582E+01 -0.18932274587E+01 -0.72204558157E+01  0.98543091013E+01  0.51100000000E-03 0.  1.
        -12    1    3    3    0    0 -0.12479524414E+02 -0.52543083469E+01  0.42334566812E+02  0.44447292752E+02  0.00000000000E+00 0.  1.
</event>
<event>
 7    1  0.1756449E-015  0.9000788E+02  0.7816164E-02  0.1186339E+00
        -11   -1    0    0    0    0  0.00000000000E+00  0.00000000000E+00  0.45593999997E+02  0.45594000000E+02  0.51100000000E-03 0. -1.
         11   -1    0    0    0    0 -0.00000000000E+00 -0.00000000000E+00 -0.45593999997E+02  0.45594000000E+02  0.51100000000E-03 0.  1.
    9900012    2    1    2    0    0 -0.11493361970E+01  0.21492140674E+00  0.15975782125E+00  0.90007878199E+02  0.90000141391E+02 0.  0.
        -12    1    1    2    0    0  0.11493361970E+01 -0.21492140674E+00 -0.15975782125E+00  0.11801218014E+01  0.00000000000E+00 0.  1.
         11    1    3    3    0    0  0.36219331622E+02  0.10354905112E+02 -0.12646474594E+02  0.39736599791E+02  0.51100000000E-03 0. -1.
        -11    1    3    3    0    0 -0.38244756924E+01  0.60170023251E+00 -0.83358711429E+01  0.91910502916E+01  0.51100000000E-03 0.  1.
        -12    1    3    3    0    0 -0.33544192126E+02 -0.10741683938E+02  0.21142103558E+02  0.41080228116E+02  0.00000000000E+00 0.  1.
</event>
<event>
 7    1  0.1756449E-015  0.9000776E+02  0.7816164E-02  0.1186339E+00
        -11   -1    0    0    0    0  0.00000000000E+00  0.00000000000E+00  0.45593999997E+02  0.45594000000E+02  0.51100000000E-03 0. -1.
         11   -1    0    0    0    0 -0.00000000000E+00 -0.00000000000E+00 -0.45593999997E+02  0.45594000000E+02  0.51100000000E-03 0.  1.
    9900012    2    1    2    0    0  0.63767889718E+00  0.37513984174E+00  0.91957211909E+00  0.90007755466E+02  0.90000017039E+02 0.  0.
        -12    1    1    2    0    0 -0.63767889718E+00 -0.37513984174E+00 -0.91957211909E+00  0.11802445336E+01  0.00000000000E+00 0.  1.
         11    1    3    3    0    0 -0.40613769242E+01 -0.60074280821E+01 -0.68546087154E+00  0.72838061169E+01  0.51100000000E-03 0. -1.
        -11    1    3    3    0    0 -0.33711457197E+02  0.20411356926E+02 -0.91156964019E+01  0.40449743622E+02  0.51100000000E-03 0.  1.
         12    1    3    3    0    0  0.38410513018E+02 -0.14028789002E+02  0.10720729393E+02  0.42274205728E+02  0.00000000000E+00 0. -1.
</event>
<event>
 7    1  0.1756449E-015  0.9000786E+02  0.7816164E-02  0.1186339E+00
        -11   -1    0    0    0    0  0.00000000000E+00  0.00000000000E+00  0.45593999997E+02  0.45594000000E+02  0.51100000000E-03 0. -1.
         11   -1    0    0    0    0 -0.00000000000E+00 -0.00000000000E+00 -0.45593999997E+02  0.45594000000E+02  0.51100000000E-03 0.  1.
    9900012    2    1    2    0    0 -0.88738452116E+00  0.54851319863E+00  0.55173160099E+00  0.90007861967E+02  0.90000124945E+02 0.  0.
        -12    1    1    2    0    0  0.88738452116E+00 -0.54851319863E+00 -0.55173160099E+00  0.11801380330E+01  0.00000000000E+00 0.  1.
         11    1    3    3    0    0 -0.36376430226E+01 -0.36381806070E+00  0.10865141876E+02  0.11463686955E+02  0.51100000000E-03 0. -1.
        -11    1    3    3    0    0 -0.32626904204E+02 -0.90168709022E+01  0.11575395978E+02  0.35774413079E+02  0.51100000000E-03 0.  1.
         12    1    3    3    0    0  0.35377162706E+02  0.99292021616E+01 -0.21888806253E+02  0.42769761934E+02  0.00000000000E+00 0. -1.
</event>
<event>
 7    1  0.1756449E-015  0.9000778E+02  0.7816164E-02  0.1186339E+00
        -11   -1    0    0    0    0  0.00000000000E+00  0.00000000000E+00  0.45593999997E+02  0.45594000000E+02  0.51100000000E-03 0.  1.
         11   -1    0    0    0    0 -0.00000000000E+00 -0.00000000000E+00 -0.45593999997E+02  0.45594000000E+02  0.51100000000E-03 0. -1.
    9900012    2    1    2    0    0 -0.63792918321E+00  0.99164425746E+00 -0.51145147428E-01  0.90007776376E+02  0.90000038224E+02 0.  0.
        -12    1    1    2    0    0  0.63792918321E+00 -0.99164425746E+00  0.51145147428E-01  0.11802236238E+01  0.00000000000E+00 0.  1.
         11    1    3    3    0    0 -0.23294900257E+02  0.30336962371E+02  0.11430807143E+02  0.39920508715E+02  0.51100000000E-03 0. -1.
        -11    1    3    3    0    0 -0.62504321626E+01 -0.26738163078E+01 -0.81517478873E+01  0.10614527297E+02  0.51100000000E-03 0.  1.
        -12    1    3    3    0    0  0.28907403237E+02 -0.26671501805E+02 -0.33302044028E+01  0.39472740364E+02  0.00000000000E+00 0.  1.
</event>
<event>
 7    1  0.1756449E-015  0.9000746E+02  0.7816164E-02  0.1186340E+00
        -11   -1    0    0    0    0  0.00000000000E+00  0.00000000000E+00  0.45593999997E+02  0.45594000000E+02  0.51100000000E-03 0. -1.
         11   -1    0    0    0    0 -0.00000000000E+00 -0.00000000000E+00 -0.45593999997E+02  0.45594000000E+02  0.51100000000E-03 0.  1.
    9900012    2    1    2    0    0 -0.69883897565E-01  0.74239522811E+00  0.91523195890E+00  0.90007456069E+02  0.89999713689E+02 0.  0.
        -12    1    1    2    0    0  0.69883897565E-01 -0.74239522811E+00 -0.91523195890E+00  0.11805439308E+01  0.00000000000E+00 0.  1.
         11    1    3    3    0    0  0.15662640484E+01 -0.35077886015E+02  0.74438179933E+01  0.35893198477E+02  0.51100000000E-03 0. -1.
        -11    1    3    3    0    0  0.50610381801E+01 -0.74308277455E+01 -0.50738717792E+01  0.10323540262E+02  0.51100000000E-03 0.  1.
        -12    1    3    3    0    0 -0.66971861260E+01  0.43251108989E+02 -0.14547142552E+01  0.43790717330E+02  0.00000000000E+00 0.  1.
</event>
<event>
 7    1  0.1756449E-015  0.9000704E+02  0.7816164E-02  0.1186340E+00
        -11   -1    0    0    0    0  0.00000000000E+00  0.00000000000E+00  0.45593999997E+02  0.45594000000E+02  0.51100000000E-03 0.  1.
         11   -1    0    0    0    0 -0.00000000000E+00 -0.00000000000E+00 -0.45593999997E+02  0.45594000000E+02  0.51100000000E-03 0. -1.
    9900012    2    1    2    0    0 -0.30689011193E+00 -0.11403229787E+01 -0.12634307584E-01  0.90007035283E+02  0.89999287346E+02 0.  0.
        -12    1    1    2    0    0  0.30689011193E+00  0.11403229787E+01  0.12634307584E-01  0.11809647168E+01  0.00000000000E+00 0.  1.
         11    1    3    3    0    0 -0.20477755441E+02  0.19639239647E+02 -0.29330424456E+02  0.40808234473E+02  0.51100000000E-03 0. -1.
        -11    1    3    3    0    0 -0.13987761127E+01  0.47391376187E+01  0.84969740871E+01  0.98292710249E+01  0.51100000000E-03 0.  1.
        -12    1    3    3    0    0  0.21569641441E+02 -0.25518700245E+02  0.20820816061E+02  0.39369529785E+02  0.00000000000E+00 0.  1.
</event>
<event>
 7    1  0.1756449E-015  0.9000776E+02  0.7816164E-02  0.1186339E+00
        -11   -1    0    0    0    0  0.00000000000E+00  0.00000000000E+00  0.45593999997E+02  0.45594000000E+02  0.51100000000E-03 0.  1.
         11   -1    0    0    0    0 -0.00000000000E+00 -0.00000000000E+00 -0.45593999997E+02  0.45594000000E+02  0.51100000000E-03 0. -1.
    9900012    2    1    2    0    0 -0.71511978793E-02  0.41163231547E+00 -0.11061039722E+01  0.90007763456E+02  0.90000025133E+02 0.  0.
        -12    1    1    2    0    0  0.71511978793E-02 -0.41163231547E+00  0.11061039722E+01  0.11802365442E+01  0.00000000000E+00 0.  1.
         11    1    3    3    0    0  0.32489591913E+02 -0.17460917684E+02 -0.74997669756E+00  0.36892000411E+02  0.51100000000E-03 0. -1.
        -11    1    3    3    0    0  0.84695041090E+01  0.74842892941E+00 -0.18004761226E+01  0.86910505835E+01  0.51100000000E-03 0.  1.
        -12    1    3    3    0    0 -0.40966247220E+02  0.17124121070E+02  0.14443488479E+01  0.44424712461E+02  0.00000000000E+00 0.  1.
</event>
<event>
 7    1  0.1756449E-015  0.9000776E+02  0.7816164E-02  0.1186339E+00
        -11   -1    0    0    0    0  0.00000000000E+00  0.00000000000E+00  0.45593999997E+02  0.45594000000E+02  0.51100000000E-03 0.  1.
         11   -1    0    0    0    0 -0.00000000000E+00 -0.00000000000E+00 -0.45593999997E+02  0.45594000000E+02  0.51100000000E-03 0. -1.
    9900012    2    1    2    0    0 -0.42000000681E+00  0.36605442931E+00 -0.10404644407E+01  0.90007761845E+02  0.90000023501E+02 0.  0.
        -12    1    1    2    0    0  0.42000000681E+00 -0.36605442931E+00  0.10404644407E+01  0.11802381554E+01  0.00000000000E+00 0.  1.
         11    1    3    3    0    0  0.72357238502E+01 -0.40887191946E+01  0.39859788870E+01  0.92174482498E+01  0.51100000000E-03 0. -1.
        -11    1    3    3    0    0  0.36183255212E+02  0.30185826129E+01  0.20215171705E+01  0.36365180195E+02  0.51100000000E-03 0.  1.
         12    1    3    3    0    0 -0.43838979069E+02  0.14361910110E+01 -0.70479604982E+01  0.44425133400E+02  0.00000000000E+00 0. -1.
</event>
<event>
 7    1  0.1756449E-015  0.9000776E+02  0.7816164E-02  0.1186339E+00
        -11   -1    0    0    0    0  0.00000000000E+00  0.00000000000E+00  0.45593999997E+02  0.45594000000E+02  0.51100000000E-03 0. -1.
         11   -1    0    0    0    0 -0.00000000000E+00 -0.00000000000E+00 -0.45593999997E+02  0.45594000000E+02  0.51100000000E-03 0.  1.
    9900012    2    1    2    0    0 -0.10629792503E+01  0.49319012547E+00  0.14072796856E+00  0.90007760301E+02  0.90000021937E+02 0.  0.
        -12    1    1    2    0    0  0.10629792503E+01 -0.49319012547E+00 -0.14072796856E+00  0.11802396992E+01  0.00000000000E+00 0.  1.
         11    1    3    3    0    0 -0.32267271163E+02  0.19628393025E+02 -0.20057702938E+02  0.42764027505E+02  0.51100000000E-03 0. -1.
        -11    1    3    3    0    0  0.10268247863E+02  0.11068291008E+01 -0.21329227488E+01  0.10545678952E+02  0.51100000000E-03 0.  1.
        -12    1    3    3    0    0  0.20936044049E+02 -0.20242032000E+02  0.22331353655E+02  0.36698053845E+02  0.00000000000E+00 0.  1.
</event>
<event>
 7    1  0.1756449E-015  0.9000763E+02  0.7816164E-02  0.1186339E+00
        -11   -1    0    0    0    0  0.00000000000E+00  0.00000000000E+00  0.45593999997E+02  0.45594000000E+02  0.51100000000E-03 0. -1.
         11   -1    0    0    0    0 -0.00000000000E+00 -0.00000000000E+00 -0.45593999997E+02  0.45594000000E+02  0.51100000000E-03 0.  1.
    9900012    2    1    2    0    0 -0.61839437187E+00  0.87869130608E+00  0.48862893336E+00  0.90007632157E+02  0.89999892101E+02 0.  0.
        -12    1    1    2    0    0  0.61839437187E+00 -0.87869130608E+00 -0.48862893336E+00  0.11803678431E+01  0.00000000000E+00 0.  1.
         11    1    3    3    0    0 -0.45952275619E+01  0.14677079911E+02 -0.64385156660E+01  0.16672950408E+02  0.51100000000E-03 0. -1.
        -11    1    3    3    0    0 -0.49260207070E+01 -0.15788896387E+01 -0.31561763206E+02  0.31982862121E+02  0.51100000000E-03 0.  1.
         12    1    3    3    0    0  0.89028538971E+01 -0.12219498966E+02  0.38488907806E+02  0.41351819628E+02  0.00000000000E+00 0. -1.
</event>
<event>
 7    1  0.1756449E-015  0.9000768E+02  0.7816164E-02  0.1186339E+00
        -11   -1    0    0    0    0  0.00000000000E+00  0.00000000000E+00  0.45593999997E+02  0.45594000000E+02  0.51100000000E-03 0.  1.
         11   -1    0    0    0    0 -0.00000000000E+00 -0.00000000000E+00 -0.45593999997E+02  0.45594000000E+02  0.51100000000E-03 0. -1.
    9900012    2    1    2    0    0 -0.10829011515E+01 -0.46049938124E+00 -0.91746579101E-01  0.90007681391E+02  0.89999941985E+02 0.  0.
        -12    1    1    2    0    0  0.10829011515E+01  0.46049938124E+00  0.91746579101E-01  0.11803186091E+01  0.00000000000E+00 0.  1.
         11    1    3    3    0    0 -0.19141807604E+00 -0.46266960278E+01 -0.84290099932E+01  0.96172328005E+01  0.51100000000E-03 0. -1.
        -11    1    3    3    0    0 -0.14193936404E+02  0.34009388606E+02  0.24181474901E+02  0.44077773000E+02  0.51100000000E-03 0.  1.
         12    1    3    3    0    0  0.13302453329E+02 -0.29843191959E+02 -0.15844211487E+02  0.36312675590E+02  0.00000000000E+00 0. -1.
</event>
<event>
 7    1  0.1756449E-015  0.9000837E+02  0.7816164E-02  0.1186338E+00
        -11   -1    0    0    0    0  0.00000000000E+00  0.00000000000E+00  0.45593999997E+02  0.45594000000E+02  0.51100000000E-03 0.  1.
         11   -1    0    0    0    0 -0.00000000000E+00 -0.00000000000E+00 -0.45593999997E+02  0.45594000000E+02  0.51100000000E-03 0. -1.
    9900012    2    1    2    0    0  0.13358439973E+00 -0.11292500085E+01 -0.31382040864E+00  0.90008367166E+02  0.90000636811E+02 0.  0.
        -12    1    1    2    0    0 -0.13358439973E+00  0.11292500085E+01  0.31382040864E+00  0.11796328338E+01  0.00000000000E+00 0.  1.
         11    1    3    3    0    0 -0.29973161496E+02 -0.30321320711E+02 -0.80710262327E+01  0.43392561165E+02  0.51100000000E-03 0. -1.
        -11    1    3    3    0    0  0.94387124233E+01  0.17242385560E+00  0.54804626612E+01  0.10915791013E+02  0.51100000000E-03 0.  1.
        -12    1    3    3    0    0  0.20668033472E+02  0.29019646847E+02  0.22767431628E+01  0.35700014988E+02  0.00000000000E+00 0.  1.
</event>
<event>
 7    1  0.1756449E-015  0.9000794E+02  0.7816164E-02  0.1186339E+00
        -11   -1    0    0    0    0  0.00000000000E+00  0.00000000000E+00  0.45593999997E+02  0.45594000000E+02  0.51100000000E-03 0. -1.
         11   -1    0    0    0    0 -0.00000000000E+00 -0.00000000000E+00 -0.45593999997E+02  0.45594000000E+02  0.51100000000E-03 0.  1.
    9900012    2    1    2    0    0 -0.34551078275E+00  0.10641897638E+01  0.37506188786E+00  0.90007936877E+02  0.90000200844E+02 0.  0.
        -12    1    1    2    0    0  0.34551078275E+00 -0.10641897638E+01 -0.37506188786E+00  0.11800631229E+01  0.00000000000E+00 0.  1.
         11    1    3    3    0    0 -0.13385987161E+02  0.34929187385E+01  0.33700473488E+01  0.14238762340E+02  0.51100000000E-03 0. -1.
        -11    1    3    3    0    0  0.31820347230E+02 -0.22996633781E+02 -0.19032064403E+02  0.43630254855E+02  0.51100000000E-03 0.  1.
         12    1    3    3    0    0 -0.18779870852E+02  0.20567904806E+02  0.16037078942E+02  0.32138919682E+02  0.00000000000E+00 0. -1.
</event>
<event>
 7    1  0.1756449E-015  0.9000767E+02  0.7816164E-02  0.1186339E+00
        -11   -1    0    0    0    0  0.00000000000E+00  0.00000000000E+00  0.45593999997E+02  0.45594000000E+02  0.51100000000E-03 0.  1.
         11   -1    0    0    0    0 -0.00000000000E+00 -0.00000000000E+00 -0.45593999997E+02  0.45594000000E+02  0.51100000000E-03 0. -1.
    9900012    2    1    2    0    0 -0.47292581260E+00 -0.79150495025E+00 -0.73691292371E+00  0.90007669721E+02  0.89999930161E+02 0.  0.
        -12    1    1    2    0    0  0.47292581260E+00  0.79150495025E+00  0.73691292371E+00  0.11803302790E+01  0.00000000000E+00 0.  1.
         11    1    3    3    0    0 -0.29385264881E+00  0.22004856653E+00  0.50587290344E+01  0.50720321821E+01  0.51100000000E-03 0. -1.
        -11    1    3    3    0    0  0.10950664236E+02  0.24727665370E+02  0.29391931174E+02  0.39940707308E+02  0.51100000000E-03 0.  1.
         12    1    3    3    0    0 -0.11129737400E+02 -0.25739218887E+02 -0.35187573133E+02  0.44994930231E+02  0.00000000000E+00 0. -1.
</event>
<event>
 7    1  0.1756449E-015  0.9000767E+02  0.7816164E-02  0.1186339E+00
        -11   -1    0    0    0    0  0.00000000000E+00  0.00000000000E+00  0.45593999997E+02  0.45594000000E+02  0.51100000000E-03 0. -1.
         11   -1    0    0    0    0 -0.00000000000E+00 -0.00000000000E+00 -0.45593999997E+02  0.45594000000E+02  0.51100000000E-03 0.  1.
    9900012    2    1    2    0    0  0.54323206433E-01  0.11065615292E+01 -0.40712565554E+00  0.90007669229E+02  0.89999929663E+02 0.  0.
        -12    1    1    2    0    0 -0.54323206433E-01 -0.11065615292E+01  0.40712565554E+00  0.11803307706E+01  0.00000000000E+00 0.  1.
         11    1    3    3    0    0  0.22398623833E+01 -0.28370738004E+01  0.80334222400E+01  0.88091909045E+01  0.51100000000E-03 0. -1.
        -11    1    3    3    0    0 -0.35480261309E+02 -0.16003469821E+02 -0.15230620776E+02  0.41796313214E+02  0.51100000000E-03 0.  1.
         12    1    3    3    0    0  0.33294722132E+02  0.19947105150E+02  0.67900728800E+01  0.39402165111E+02  0.00000000000E+00 0. -1.
</event>
<event>
 7    1  0.1756449E-015  0.9000740E+02  0.7816164E-02  0.1186340E+00
        -11   -1    0    0    0    0  0.00000000000E+00  0.00000000000E+00  0.45593999997E+02  0.45594000000E+02  0.51100000000E-03 0. -1.
         11   -1    0    0    0    0 -0.00000000000E+00 -0.00000000000E+00 -0.45593999997E+02  0.45594000000E+02  0.51100000000E-03 0.  1.
    9900012    2    1    2    0    0  0.29308017991E+00  0.11123467247E+01 -0.26569778995E+00  0.90007404157E+02  0.89999661092E+02 0.  0.
        -12    1    1    2    0    0 -0.29308017991E+00 -0.11123467247E+01  0.26569778995E+00  0.11805958425E+01  0.00000000000E+00 0.  1.
         11    1    3    3    0    0 -0.13968457365E+00 -0.48170817622E+01  0.85943417542E+01  0.98532481412E+01  0.51100000000E-03 0. -1.
        -11    1    3    3    0    0  0.11292888179E+02 -0.34477659329E+02 -0.11954534353E+02  0.38198811605E+02  0.51100000000E-03 0.  1.
         12    1    3    3    0    0 -0.10860123425E+02  0.40407087815E+02  0.30944948089E+01  0.41955344411E+02  0.00000000000E+00 0. -1.
</event>
<event>
 7    1  0.1756449E-015  0.9000776E+02  0.7816164E-02  0.1186339E+00
        -11   -1    0    0    0    0  0.00000000000E+00  0.00000000000E+00  0.45593999997E+02  0.45594000000E+02  0.51100000000E-03 0. -1.
         11   -1    0    0    0    0 -0.00000000000E+00 -0.00000000000E+00 -0.45593999997E+02  0.45594000000E+02  0.51100000000E-03 0.  1.
    9900012    2    1    2    0    0  0.86619699613E+00  0.51304218048E+00  0.61600867675E+00  0.90007755871E+02  0.90000017448E+02 0.  0.
        -12    1    1    2    0    0 -0.86619699613E+00 -0.51304218048E+00 -0.61600867675E+00  0.11802441294E+01  0.00000000000E+00 0.  1.
         11    1    3    3    0    0  0.12095110422E+02  0.22009647904E+01  0.58179664126E+01  0.13600907160E+02  0.51100000000E-03 0. -1.
        -11    1    3    3    0    0  0.19337783729E+02 -0.27113574698E+02 -0.13248668275E+02  0.35841638129E+02  0.51100000000E-03 0.  1.
         12    1    3    3    0    0 -0.30566697155E+02  0.25425652088E+02  0.80467105387E+01  0.40565210582E+02  0.00000000000E+00 0. -1.
</event>
<event>
 7    1  0.1756449E-015  0.9000767E+02  0.7816164E-02  0.1186339E+00
        -11   -1    0    0    0    0  0.00000000000E+00  0.00000000000E+00  0.45593999997E+02  0.45594000000E+02  0.51100000000E-03 0.  1.
         11   -1    0    0    0    0 -0.00000000000E+00 -0.00000000000E+00 -0.45593999997E+02  0.45594000000E+02  0.51100000000E-03 0. -1.
    9900012    2    1    2    0    0  0.45542130587E+00 -0.33411017450E+00 -0.10364063557E+01  0.90007671101E+02  0.89999931560E+02 0.  0.
        -12    1    1    2    0    0 -0.45542130587E+00  0.33411017450E+00  0.10364063557E+01  0.11803288985E+01  0.00000000000E+00 0.  1.
         11    1    3    3    0    0  0.17402311470E+02  0.22935056385E+02 -0.24766356369E+02  0.37976698961E+02  0.51100000000E-03 0. -1.
        -11    1    3    3    0    0  0.62440715159E+01 -0.46551677125E+01 -0.61133563628E+01  0.99011182099E+01  0.51100000000E-03 0.  1.
        -12    1    3    3    0    0 -0.23190961680E+02 -0.18613998847E+02  0.29843306376E+02  0.42129853931E+02  0.00000000000E+00 0.  1.
</event>
<event>
 7    1  0.1756449E-015  0.9000759E+02  0.7816164E-02  0.1186339E+00
        -11   -1    0    0    0    0  0.00000000000E+00  0.00000000000E+00  0.45593999997E+02  0.45594000000E+02  0.51100000000E-03 0.  1.
         11   -1    0    0    0    0 -0.00000000000E+00 -0.00000000000E+00 -0.45593999997E+02  0.45594000000E+02  0.51100000000E-03 0. -1.
    9900012    2    1    2    0    0 -0.28749265671E+00 -0.32525495792E+00 -0.10976936162E+01  0.90007587322E+02  0.89999846675E+02 0.  0.
        -12    1    1    2    0    0  0.28749265671E+00  0.32525495792E+00  0.10976936162E+01  0.11804126780E+01  0.00000000000E+00 0.  1.
         11    1    3    3    0    0  0.68143917354E+01  0.45187350209E+01 -0.31475846695E+01  0.87614034507E+01  0.51100000000E-03 0. -1.
        -11    1    3    3    0    0 -0.24097031429E+02  0.34735932924E+01  0.35363701486E+02  0.42933951101E+02  0.51100000000E-03 0.  1.
         12    1    3    3    0    0  0.16995147037E+02 -0.83175832713E+01 -0.33313810433E+02  0.38312232770E+02  0.00000000000E+00 0. -1.
</event>
<event>
 7    1  0.1756449E-015  0.9000774E+02  0.7816164E-02  0.1186339E+00
        -11   -1    0    0    0    0  0.00000000000E+00  0.00000000000E+00  0.45593999997E+02  0.45594000000E+02  0.51100000000E-03 0. -1.
         11   -1    0    0    0    0 -0.00000000000E+00 -0.00000000000E+00 -0.45593999997E+02  0.45594000000E+02  0.51100000000E-03 0.  1.
    9900012    2    1    2    0    0 -0.22813413113E+00 -0.15968749268E+00  0.11469381749E+01  0.90007740514E+02  0.90000001889E+02 0.  0.
        -12    1    1    2    0    0  0.22813413113E+00  0.15968749268E+00 -0.11469381749E+01  0.11802594859E+01  0.00000000000E+00 0.  1.
         11    1    3    3    0    0 -0.75441937141E+00 -0.61254135982E+01 -0.58032692590E+01  0.84715863148E+01  0.51100000000E-03 0. -1.
        -11    1    3    3    0    0  0.15182173989E+02 -0.15451684100E+02 -0.29618334889E+02  0.36694668692E+02  0.51100000000E-03 0.  1.
         12    1    3    3    0    0 -0.14655888748E+02  0.21417410206E+02  0.36568542323E+02  0.44841485508E+02  0.00000000000E+00 0. -1.
</event>
<event>
 7    1  0.1756449E-015  0.9000770E+02  0.7816164E-02  0.1186339E+00
        -11   -1    0    0    0    0  0.00000000000E+00  0.00000000000E+00  0.45593999997E+02  0.45594000000E+02  0.51100000000E-03 0. -1.
         11   -1    0    0    0    0 -0.00000000000E+00 -0.00000000000E+00 -0.45593999997E+02  0.45594000000E+02  0.51100000000E-03 0.  1.
    9900012    2    1    2    0    0 -0.55427918659E+00  0.10295290328E+01  0.16113188721E+00  0.90007695407E+02  0.89999956187E+02 0.  0.
        -12    1    1    2    0    0  0.55427918659E+00 -0.10295290328E+01 -0.16113188721E+00  0.11803045925E+01  0.00000000000E+00 0.  1.
         11    1    3    3    0    0 -0.86474949291E+01 -0.22576201624E+01  0.57869392708E+01  0.10647285275E+02  0.51100000000E-03 0. -1.
        -11    1    3    3    0    0  0.98793145232E+01 -0.37273232687E+02 -0.29178007434E+01  0.38670509330E+02  0.51100000000E-03 0.  1.
         12    1    3    3    0    0 -0.17860987807E+01  0.40560381883E+02 -0.27080066403E+01  0.40689900802E+02  0.00000000000E+00 0. -1.
</event>
<event>
 7    1  0.1756449E-015  0.9000778E+02  0.7816164E-02  0.1186339E+00
        -11   -1    0    0    0    0  0.00000000000E+00  0.00000000000E+00  0.45593999997E+02  0.45594000000E+02  0.51100000000E-03 0.  1.
         11   -1    0    0    0    0 -0.00000000000E+00 -0.00000000000E+00 -0.45593999997E+02  0.45594000000E+02  0.51100000000E-03 0. -1.
    9900012    2    1    2    0    0  0.75761102160E+00  0.26405468191E+00 -0.86556864873E+00  0.90007784587E+02  0.90000046544E+02 0.  0.
        -12    1    1    2    0    0 -0.75761102160E+00 -0.26405468191E+00  0.86556864873E+00  0.11802154129E+01  0.00000000000E+00 0.  1.
         11    1    3    3    0    0 -0.92958878884E+01  0.26082208583E+01 -0.13866267418E+02  0.16896441047E+02  0.51100000000E-03 0. -1.
        -11    1    3    3    0    0  0.10555089419E+02 -0.66766016308E+01 -0.28638996651E+02  0.31243864220E+02  0.51100000000E-03 0.  1.
        -12    1    3    3    0    0 -0.50159050882E+00  0.43324354544E+01  0.41639695420E+02  0.41867479321E+02  0.00000000000E+00 0.  1.
</event>
<event>
 7    1  0.1756449E-015  0.9000774E+02  0.7816164E-02  0.1186339E+00
        -11   -1    0    0    0    0  0.00000000000E+00  0.00000000000E+00  0.45593999997E+02  0.45594000000E+02  0.51100000000E-03 0.  1.
         11   -1    0    0    0    0 -0.00000000000E+00 -0.00000000000E+00 -0.45593999997E+02  0.45594000000E+02  0.51100000000E-03 0. -1.
    9900012    2    1    2    0    0 -0.26713970724E+00  0.11447642396E+01 -0.10565733627E+00  0.90007740596E+02  0.90000001972E+02 0.  0.
        -12    1    1    2    0    0  0.26713970724E+00 -0.11447642396E+01  0.10565733627E+00  0.11802594037E+01  0.00000000000E+00 0.  1.
         11    1    3    3    0    0 -0.82787399765E+01  0.21620875082E+01 -0.35402144024E+01  0.92598745276E+01  0.51100000000E-03 0. -1.
        -11    1    3    3    0    0  0.18218349677E+02  0.24626133821E+02  0.29686159601E+02  0.42657036981E+02  0.51100000000E-03 0.  1.
         12    1    3    3    0    0 -0.10206749408E+02 -0.25643457089E+02 -0.26251602535E+02  0.38090829088E+02  0.00000000000E+00 0. -1.
</event>
<event>
 7    1  0.1756449E-015  0.9000783E+02  0.7816164E-02  0.1186339E+00
        -11   -1    0    0    0    0  0.00000000000E+00  0.00000000000E+00  0.45593999997E+02  0.45594000000E+02  0.51100000000E-03 0. -1.
         11   -1    0    0    0    0 -0.00000000000E+00 -0.00000000000E+00 -0.45593999997E+02  0.45594000000E+02  0.51100000000E-03 0.  1.
    9900012    2    1    2    0    0 -0.11388762783E+01  0.22317091208E+00  0.21437473567E+00  0.90007830114E+02  0.90000092671E+02 0.  0.
        -12    1    1    2    0    0  0.11388762783E+01 -0.22317091208E+00 -0.21437473567E+00  0.11801698863E+01  0.00000000000E+00 0.  1.
         11    1    3    3    0    0  0.38999733622E+01 -0.31342044203E+01  0.56456403311E+01  0.75436254270E+01  0.51100000000E-03 0. -1.
        -11    1    3    3    0    0 -0.11311337321E+02  0.38626222777E+02 -0.18547250977E+02  0.44316271921E+02  0.51100000000E-03 0.  1.
         12    1    3    3    0    0  0.62724876800E+01 -0.35268847444E+02  0.13115985381E+02  0.38147932765E+02  0.00000000000E+00 0. -1.
</event>
<event>
 7    1  0.1756449E-015  0.9000773E+02  0.7816164E-02  0.1186339E+00
        -11   -1    0    0    0    0  0.00000000000E+00  0.00000000000E+00  0.45593999997E+02  0.45594000000E+02  0.51100000000E-03 0.  1.
         11   -1    0    0    0    0 -0.00000000000E+00 -0.00000000000E+00 -0.45593999997E+02  0.45594000000E+02  0.51100000000E-03 0. -1.
    9900012    2    1    2    0    0 -0.24881452710E+00 -0.73876153644E-01 -0.11513736686E+01  0.90007734064E+02  0.89999995354E+02 0.  0.
        -12    1    1    2    0    0  0.24881452710E+00  0.73876153644E-01  0.11513736686E+01  0.11802659360E+01  0.00000000000E+00 0.  1.
         11    1    3    3    0    0  0.39256854536E+02 -0.15447887994E+01 -0.44378903540E+01  0.39537094880E+02  0.51100000000E-03 0. -1.
        -11    1    3    3    0    0  0.69128959917E-01  0.96165887783E+01  0.29699085914E+01  0.10064984642E+02  0.51100000000E-03 0.  1.
        -12    1    3    3    0    0 -0.39574798023E+02 -0.81456761326E+01  0.31660809394E+00  0.40405654542E+02  0.00000000000E+00 0.  1.
</event>
<event>
 7    1  0.1756449E-015  0.9000775E+02  0.7816164E-02  0.1186339E+00
        -11   -1    0    0    0    0  0.00000000000E+00  0.00000000000E+00  0.45593999997E+02  0.45594000000E+02  0.51100000000E-03 0. -1.
         11   -1    0    0    0    0 -0.00000000000E+00 -0.00000000000E+00 -0.45593999997E+02  0.45594000000E+02  0.51100000000E-03 0.  1.
    9900012    2    1    2    0    0 -0.11171237404E+01  0.37062565362E+00 -0.87464280684E-01  0.90007754760E+02  0.90000016323E+02 0.  0.
        -12    1    1    2    0    0  0.11171237404E+01 -0.37062565362E+00  0.87464280684E-01  0.11802452401E+01  0.00000000000E+00 0.  1.
         11    1    3    3    0    0 -0.20368362401E+02  0.24187351306E+02  0.10853205335E+02  0.33431874258E+02  0.51100000000E-03 0. -1.
        -11    1    3    3    0    0 -0.13297655131E+02  0.12014479333E+01  0.20684336231E+01  0.13511089040E+02  0.51100000000E-03 0.  1.
        -12    1    3    3    0    0  0.32548893792E+02 -0.25018173585E+02 -0.13009103238E+02  0.43064791462E+02  0.00000000000E+00 0.  1.
</event>
<event>
 7    1  0.1756449E-015  0.9000782E+02  0.7816164E-02  0.1186339E+00
        -11   -1    0    0    0    0  0.00000000000E+00  0.00000000000E+00  0.45593999997E+02  0.45594000000E+02  0.51100000000E-03 0. -1.
         11   -1    0    0    0    0 -0.00000000000E+00 -0.00000000000E+00 -0.45593999997E+02  0.45594000000E+02  0.51100000000E-03 0.  1.
    9900012    2    1    2    0    0 -0.78146901921E+00  0.26219371420E+00 -0.84462498110E+00  0.90007817501E+02  0.90000079892E+02 0.  0.
        -12    1    1    2    0    0  0.78146901921E+00 -0.26219371420E+00  0.84462498110E+00  0.11801824988E+01  0.00000000000E+00 0.  1.
         11    1    3    3    0    0 -0.92920405842E+01 -0.86433829457E+00 -0.36535324452E+01  0.10021846062E+02  0.51100000000E-03 0. -1.
        -11    1    3    3    0    0 -0.22168446245E+02 -0.26395371838E+02 -0.11531909862E+02  0.36347497970E+02  0.51100000000E-03 0.  1.
         12    1    3    3    0    0  0.30679017810E+02  0.27521903847E+02  0.14340817326E+02  0.43638473469E+02  0.00000000000E+00 0. -1.
</event>
<event>
 7    1  0.1756449E-015  0.9000767E+02  0.7816164E-02  0.1186339E+00
        -11   -1    0    0    0    0  0.00000000000E+00  0.00000000000E+00  0.45593999997E+02  0.45594000000E+02  0.51100000000E-03 0. -1.
         11   -1    0    0    0    0 -0.00000000000E+00 -0.00000000000E+00 -0.45593999997E+02  0.45594000000E+02  0.51100000000E-03 0.  1.
    9900012    2    1    2    0    0  0.66524609299E+00  0.63378593161E+00  0.74090203020E+00  0.90007672592E+02  0.89999933070E+02 0.  0.
        -12    1    1    2    0    0 -0.66524609299E+00 -0.63378593161E+00 -0.74090203020E+00  0.11803274078E+01  0.00000000000E+00 0.  1.
         11    1    3    3    0    0  0.70144722040E+01 -0.94858706671E+01  0.40867500771E+01  0.12485435077E+02  0.51100000000E-03 0. -1.
        -11    1    3    3    0    0  0.30792767263E+02  0.21747744577E+02 -0.73125931956E+01  0.38400949590E+02  0.51100000000E-03 0.  1.
         12    1    3    3    0    0 -0.37141993374E+02 -0.11628087979E+02  0.39667451487E+01  0.39121287925E+02  0.00000000000E+00 0. -1.
</event>
<event>
 7    1  0.1756449E-015  0.9000774E+02  0.7816164E-02  0.1186339E+00
        -11   -1    0    0    0    0  0.00000000000E+00  0.00000000000E+00  0.45593999997E+02  0.45594000000E+02  0.51100000000E-03 0. -1.
         11   -1    0    0    0    0 -0.00000000000E+00 -0.00000000000E+00 -0.45593999997E+02  0.45594000000E+02  0.51100000000E-03 0.  1.
    9900012    2    1    2    0    0  0.20127688486E+00 -0.83387240588E+00 -0.81065239495E+00  0.90007740334E+02  0.90000001706E+02 0.  0.
        -12    1    1    2    0    0 -0.20127688486E+00  0.83387240588E+00  0.81065239495E+00  0.11802596660E+01  0.00000000000E+00 0.  1.
         11    1    3    3    0    0  0.95157237697E+01 -0.52835299413E+01 -0.10187199449E+01  0.10931718899E+02  0.51100000000E-03 0. -1.
        -11    1    3    3    0    0  0.13806080009E+02  0.34623645593E+02  0.12192429313E+02  0.39218108218E+02  0.51100000000E-03 0.  1.
         12    1    3    3    0    0 -0.23120526893E+02 -0.30173988058E+02 -0.11984361763E+02  0.39857913217E+02  0.00000000000E+00 0. -1.
</event>
<event>
 7    1  0.1756449E-015  0.9000777E+02  0.7816164E-02  0.1186339E+00
        -11   -1    0    0    0    0  0.00000000000E+00  0.00000000000E+00  0.45593999997E+02  0.45594000000E+02  0.51100000000E-03 0.  1.
         11   -1    0    0    0    0 -0.00000000000E+00 -0.00000000000E+00 -0.45593999997E+02  0.45594000000E+02  0.51100000000E-03 0. -1.
    9900012    2    1    2    0    0 -0.63899400202E+00 -0.64031223772E+00 -0.75804724859E+00  0.90007767511E+02  0.90000029242E+02 0.  0.
        -12    1    1    2    0    0  0.63899400202E+00  0.64031223772E+00  0.75804724859E+00  0.11802324887E+01  0.00000000000E+00 0.  1.
         11    1    3    3    0    0 -0.34216630226E+01 -0.12369985383E+02 -0.26990513772E+01  0.13115227593E+02  0.51100000000E-03 0. -1.
        -11    1    3    3    0    0 -0.33766972829E+02  0.15068257243E+02  0.11934028240E+02  0.38854624701E+02  0.51100000000E-03 0.  1.
         12    1    3    3    0    0  0.36549641850E+02 -0.33385840976E+01 -0.99930241109E+01  0.38037915216E+02  0.00000000000E+00 0. -1.
</event>
<event>
 7    1  0.1756449E-015  0.9000770E+02  0.7816164E-02  0.1186339E+00
        -11   -1    0    0    0    0  0.00000000000E+00  0.00000000000E+00  0.45593999997E+02  0.45594000000E+02  0.51100000000E-03 0. -1.
         11   -1    0    0    0    0 -0.00000000000E+00 -0.00000000000E+00 -0.45593999997E+02  0.45594000000E+02  0.51100000000E-03 0.  1.
    9900012    2    1    2    0    0 -0.80605894158E+00  0.56252731818E+00 -0.65340891960E+00  0.90007698675E+02  0.89999959498E+02 0.  0.
        -12    1    1    2    0    0  0.80605894158E+00 -0.56252731818E+00  0.65340891960E+00  0.11803013248E+01  0.00000000000E+00 0.  1.
         11    1    3    3    0    0  0.13786442678E+01 -0.61582149819E+00 -0.90712604963E+01  0.91960678221E+01  0.51100000000E-03 0. -1.
        -11    1    3    3    0    0 -0.17658443307E+02 -0.70449155547E+01 -0.31739295516E+02  0.36997761221E+02  0.51100000000E-03 0.  1.
         12    1    3    3    0    0  0.15473740097E+02  0.82232643711E+01  0.40157147093E+02  0.43813869633E+02  0.00000000000E+00 0. -1.
</event>
<event>
 7    1  0.1756449E-015  0.9000777E+02  0.7816164E-02  0.1186339E+00
        -11   -1    0    0    0    0  0.00000000000E+00  0.00000000000E+00  0.45593999997E+02  0.45594000000E+02  0.51100000000E-03 0. -1.
         11   -1    0    0    0    0 -0.00000000000E+00 -0.00000000000E+00 -0.45593999997E+02  0.45594000000E+02  0.51100000000E-03 0.  1.
    9900012    2    1    2    0    0 -0.11461553467E+01  0.18696691622E+00 -0.21052995189E+00  0.90007766308E+02  0.90000028024E+02 0.  0.
        -12    1    1    2    0    0  0.11461553467E+01 -0.18696691622E+00  0.21052995189E+00  0.11802336917E+01  0.00000000000E+00 0.  1.
         11    1    3    3    0    0  0.18329209285E+02 -0.17400695608E+02  0.26769505176E+02  0.36815085607E+02  0.51100000000E-03 0. -1.
        -11    1    3    3    0    0  0.21618542877E+01 -0.96556105967E+01 -0.13620396676E+01  0.99879718799E+01  0.51100000000E-03 0.  1.
        -12    1    3    3    0    0 -0.21637218919E+02  0.27243273121E+02 -0.25617995461E+02  0.43204708821E+02  0.00000000000E+00 0.  1.
</event>
<event>
 7    1  0.1756449E-015  0.9000764E+02  0.7816164E-02  0.1186339E+00
        -11   -1    0    0    0    0  0.00000000000E+00  0.00000000000E+00  0.45593999997E+02  0.45594000000E+02  0.51100000000E-03 0. -1.
         11   -1    0    0    0    0 -0.00000000000E+00 -0.00000000000E+00 -0.45593999997E+02  0.45594000000E+02  0.51100000000E-03 0.  1.
    9900012    2    1    2    0    0  0.86552889236E+00 -0.35524899778E+00  0.71965542294E+00  0.90007641562E+02  0.89999901631E+02 0.  0.
        -12    1    1    2    0    0 -0.86552889236E+00  0.35524899778E+00 -0.71965542294E+00  0.11803584378E+01  0.00000000000E+00 0.  1.
         11    1    3    3    0    0  0.66687960854E+01 -0.82382687081E+01 -0.38546071669E+00  0.10606153533E+02  0.51100000000E-03 0. -1.
        -11    1    3    3    0    0 -0.10790127852E+02 -0.19412076116E+01 -0.37596413047E+02  0.39162295902E+02  0.51100000000E-03 0.  1.
         12    1    3    3    0    0  0.49868606589E+01  0.98242273219E+01  0.38701529187E+02  0.40239192128E+02  0.00000000000E+00 0. -1.
</event>
<event>
 7    1  0.1756449E-015  0.9000779E+02  0.7816164E-02  0.1186339E+00
        -11   -1    0    0    0    0  0.00000000000E+00  0.00000000000E+00  0.45593999997E+02  0.45594000000E+02  0.51100000000E-03 0. -1.
         11   -1    0    0    0    0 -0.00000000000E+00 -0.00000000000E+00 -0.45593999997E+02  0.45594000000E+02  0.51100000000E-03 0.  1.
    9900012    2    1    2    0    0 -0.61210819218E+00  0.87080282521E+00  0.50982182008E+00  0.90007791422E+02  0.90000053469E+02 0.  0.
        -12    1    1    2    0    0  0.61210819218E+00 -0.87080282521E+00 -0.50982182008E+00  0.11802085780E+01  0.00000000000E+00 0.  1.
         11    1    3    3    0    0  0.16032831922E+02 -0.68864345541E+01  0.34188736502E+02  0.38384168406E+02  0.51100000000E-03 0. -1.
        -11    1    3    3    0    0  0.93304990230E+01 -0.21780339203E+01 -0.26197356710E+01  0.99330286934E+01  0.51100000000E-03 0.  1.
        -12    1    3    3    0    0 -0.25975439137E+02  0.99352712997E+01 -0.31059179011E+02  0.41690594323E+02  0.00000000000E+00 0.  1.
</event>
<event>
 7    1  0.1756449E-015  0.9000773E+02  0.7816164E-02  0.1186339E+00
        -11   -1    0    0    0    0  0.00000000000E+00  0.00000000000E+00  0.45593999997E+02  0.45594000000E+02  0.51100000000E-03 0. -1.
         11   -1    0    0    0    0 -0.00000000000E+00 -0.00000000000E+00 -0.45593999997E+02  0.45594000000E+02  0.51100000000E-03 0.  1.
    9900012    2    1    2    0    0  0.62896101045E+00  0.82007438085E-01  0.99534846661E+00  0.90007730648E+02  0.89999991893E+02 0.  0.
        -12    1    1    2    0    0 -0.62896101045E+00 -0.82007438085E-01 -0.99534846661E+00  0.11802693517E+01  0.00000000000E+00 0.  1.
         11    1    3    3    0    0 -0.20890675991E+01 -0.35654957624E+00  0.78682775965E+01  0.81486884608E+01  0.51100000000E-03 0. -1.
        -11    1    3    3    0    0  0.25480882362E+02 -0.31546684138E+02  0.49650874353E+01  0.40854874122E+02  0.51100000000E-03 0.  1.
         12    1    3    3    0    0 -0.22762853752E+02  0.31985241152E+02 -0.11838016565E+02  0.41004168065E+02  0.00000000000E+00 0. -1.
</event>
<event>
 7    1  0.1756449E-015  0.9000766E+02  0.7816164E-02  0.1186339E+00
        -11   -1    0    0    0    0  0.00000000000E+00  0.00000000000E+00  0.45593999997E+02  0.45594000000E+02  0.51100000000E-03 0. -1.
         11   -1    0    0    0    0 -0.00000000000E+00 -0.00000000000E+00 -0.45593999997E+02  0.45594000000E+02  0.51100000000E-03 0.  1.
    9900012    2    1    2    0    0 -0.41015016370E+00 -0.81710316661E+00  0.74654440689E+00  0.90007657129E+02  0.89999917403E+02 0.  0.
        -12    1    1    2    0    0  0.41015016370E+00  0.81710316661E+00 -0.74654440689E+00  0.11803428710E+01  0.00000000000E+00 0.  1.
         11    1    3    3    0    0  0.12952908912E+02 -0.32669774947E+02  0.20924857215E+02  0.40901609921E+02  0.51100000000E-03 0. -1.
        -11    1    3    3    0    0  0.75230470929E+00 -0.19647536369E+01 -0.11174794961E+02  0.11371115245E+02  0.51100000000E-03 0.  1.
        -12    1    3    3    0    0 -0.14115363785E+02  0.33817425417E+02 -0.90035178473E+01  0.37734931963E+02  0.00000000000E+00 0.  1.
</event>
<event>
 7    1  0.1756449E-015  0.9000687E+02  0.7816164E-02  0.1186341E+00
        -11   -1    0    0    0    0  0.00000000000E+00  0.00000000000E+00  0.45593999997E+02  0.45594000000E+02  0.51100000000E-03 0.  1.
         11   -1    0    0    0    0 -0.00000000000E+00 -0.00000000000E+00 -0.45593999997E+02  0.45594000000E+02  0.51100000000E-03 0. -1.
    9900012    2    1    2    0    0  0.77150397679E+00  0.33069208395E+00 -0.83095813675E+00  0.90006870428E+02  0.89999120313E+02 0.  0.
        -12    1    1    2    0    0 -0.77150397679E+00 -0.33069208395E+00  0.83095813675E+00  0.11811295719E+01  0.00000000000E+00 0.  1.
         11    1    3    3    0    0 -0.41241052242E+01 -0.14791321699E+02 -0.22486195496E+02  0.27229036517E+02  0.51100000000E-03 0. -1.
        -11    1    3    3    0    0 -0.15720188872E+02  0.14111017603E+02 -0.11250997974E+02  0.23933869550E+02  0.51100000000E-03 0.  1.
        -12    1    3    3    0    0  0.20615798073E+02  0.10109961801E+01  0.32906235334E+02  0.38843964361E+02  0.00000000000E+00 0.  1.
</event>
<event>
 7    1  0.1756449E-015  0.9000775E+02  0.7816164E-02  0.1186339E+00
        -11   -1    0    0    0    0  0.00000000000E+00  0.00000000000E+00  0.45593999997E+02  0.45594000000E+02  0.51100000000E-03 0.  1.
         11   -1    0    0    0    0 -0.00000000000E+00 -0.00000000000E+00 -0.45593999997E+02  0.45594000000E+02  0.51100000000E-03 0. -1.
    9900012    2    1    2    0    0 -0.34579143398E-01  0.50765541373E+00  0.10649296495E+01  0.90007752189E+02  0.90000013718E+02 0.  0.
        -12    1    1    2    0    0  0.34579143398E-01 -0.50765541373E+00 -0.10649296495E+01  0.11802478107E+01  0.00000000000E+00 0.  1.
         11    1    3    3    0    0  0.82957590409E+01 -0.68222083808E+01 -0.69098069706E+01  0.12771357715E+02  0.51100000000E-03 0. -1.
        -11    1    3    3    0    0 -0.34395590450E+01 -0.11380049512E+02  0.38947818092E+02  0.40721844601E+02  0.51100000000E-03 0.  1.
         12    1    3    3    0    0 -0.48907791393E+01  0.18709913307E+02 -0.30973081472E+02  0.36514549873E+02  0.00000000000E+00 0. -1.
</event>
<event>
 7    1  0.1756449E-015  0.9000768E+02  0.7816164E-02  0.1186339E+00
        -11   -1    0    0    0    0  0.00000000000E+00  0.00000000000E+00  0.45593999997E+02  0.45594000000E+02  0.51100000000E-03 0.  1.
         11   -1    0    0    0    0 -0.00000000000E+00 -0.00000000000E+00 -0.45593999997E+02  0.45594000000E+02  0.51100000000E-03 0. -1.
    9900012    2    1    2    0    0  0.62954436159E+00  0.62509519875E+00 -0.77851609500E+00  0.90007679103E+02  0.89999939667E+02 0.  0.
        -12    1    1    2    0    0 -0.62954436159E+00 -0.62509519875E+00  0.77851609500E+00  0.11803208974E+01  0.00000000000E+00 0.  1.
         11    1    3    3    0    0  0.24529885807E+01 -0.87439430678E+01 -0.71987116402E+00  0.91099894678E+01  0.51100000000E-03 0. -1.
        -11    1    3    3    0    0 -0.88348984768E+01 -0.24231224942E+02  0.26889254647E+02  0.37259088945E+02  0.51100000000E-03 0.  1.
         12    1    3    3    0    0  0.70114542577E+01  0.33600263209E+02 -0.26947899578E+02  0.43638600690E+02  0.00000000000E+00 0. -1.
</event>
<event>
 7    1  0.1756449E-015  0.9000772E+02  0.7816164E-02  0.1186339E+00
        -11   -1    0    0    0    0  0.00000000000E+00  0.00000000000E+00  0.45593999997E+02  0.45594000000E+02  0.51100000000E-03 0.  1.
         11   -1    0    0    0    0 -0.00000000000E+00 -0.00000000000E+00 -0.45593999997E+02  0.45594000000E+02  0.51100000000E-03 0. -1.
    9900012    2    1    2    0    0  0.80975378087E-02 -0.11193295518E+01 -0.37430703102E+00  0.90007716149E+02  0.89999977202E+02 0.  0.
        -12    1    1    2    0    0 -0.80975378087E-02  0.11193295518E+01  0.37430703102E+00  0.11802838511E+01  0.00000000000E+00 0.  1.
         11    1    3    3    0    0  0.28622557776E+02  0.27204326630E+02 -0.82768420231E+01  0.40346403992E+02  0.51100000000E-03 0. -1.
        -11    1    3    3    0    0 -0.69670576690E+01  0.44817067331E+01  0.61516741906E+01  0.10318366315E+02  0.51100000000E-03 0.  1.
        -12    1    3    3    0    0 -0.21647402569E+02 -0.32805362914E+02  0.17508608015E+01  0.39342945841E+02  0.00000000000E+00 0.  1.
</event>
<event>
 7    1  0.1756449E-015  0.9000767E+02  0.7816164E-02  0.1186339E+00
        -11   -1    0    0    0    0  0.00000000000E+00  0.00000000000E+00  0.45593999997E+02  0.45594000000E+02  0.51100000000E-03 0.  1.
         11   -1    0    0    0    0 -0.00000000000E+00 -0.00000000000E+00 -0.45593999997E+02  0.45594000000E+02  0.51100000000E-03 0. -1.
    9900012    2    1    2    0    0  0.75112419017E-01  0.37044540982E-01 -0.11773539423E+01  0.90007671029E+02  0.89999931487E+02 0.  0.
        -12    1    1    2    0    0 -0.75112419017E-01 -0.37044540982E-01  0.11773539423E+01  0.11803289707E+01  0.00000000000E+00 0.  1.
         11    1    3    3    0    0  0.18131816570E+02 -0.35275086241E+02 -0.29158944736E+01  0.39769296226E+02  0.51100000000E-03 0. -1.
        -11    1    3    3    0    0 -0.59173900594E+00 -0.14935154615E+01 -0.81577555924E+01  0.83144284260E+01  0.51100000000E-03 0.  1.
        -12    1    3    3    0    0 -0.17464965145E+02  0.36805646244E+02  0.98962961237E+01  0.41923946378E+02  0.00000000000E+00 0.  1.
</event>
<event>
 7    1  0.1756449E-015  0.9000772E+02  0.7816164E-02  0.1186339E+00
        -11   -1    0    0    0    0  0.00000000000E+00  0.00000000000E+00  0.45593999997E+02  0.45594000000E+02  0.51100000000E-03 0.  1.
         11   -1    0    0    0    0 -0.00000000000E+00 -0.00000000000E+00 -0.45593999997E+02  0.45594000000E+02  0.51100000000E-03 0. -1.
    9900012    2    1    2    0    0 -0.47019392845E+00  0.67806446126E+00 -0.84392077562E+00  0.90007722058E+02  0.89999983190E+02 0.  0.
        -12    1    1    2    0    0  0.47019392845E+00 -0.67806446126E+00  0.84392077562E+00  0.11802779416E+01  0.00000000000E+00 0.  1.
         11    1    3    3    0    0  0.58513777821E+01 -0.61142084709E+01 -0.23223483470E+02  0.24717450352E+02  0.51100000000E-03 0. -1.
        -11    1    3    3    0    0 -0.46279359388E+01 -0.26855817059E+02  0.63552450006E+01  0.27982884773E+02  0.51100000000E-03 0.  1.
        -12    1    3    3    0    0 -0.16936357717E+01  0.33648089991E+02  0.16024317694E+02  0.37307386933E+02  0.00000000000E+00 0.  1.
</event>
<event>
 7    1  0.2571590E-015  0.9000775E+02  0.7816164E-02  0.1186339E+00
        -11   -1    0    0    0    0  0.00000000000E+00  0.00000000000E+00  0.45593999997E+02  0.45594000000E+02  0.51100000000E-03 0. -1.
         11   -1    0    0    0    0 -0.00000000000E+00 -0.00000000000E+00 -0.45593999997E+02  0.45594000000E+02  0.51100000000E-03 0.  1.
    9900012    2    1    2    0    0  0.63422389809E+00  0.69207194220E+00  0.71539720024E+00  0.90007747196E+02  0.90000008659E+02 0.  0.
        -12    1    1    2    0    0 -0.63422389809E+00 -0.69207194220E+00 -0.71539720024E+00  0.11802528035E+01  0.00000000000E+00 0.  1.
         11    1    3    3    0    0  0.48885387867E+01  0.79415569293E+01 -0.40204748445E+01  0.10155311722E+02  0.51100000000E-03 0. -1.
        -11    1    3    3    0    0  0.45340350461E+01  0.60555150389E+01 -0.35644172679E+02  0.36438081487E+02  0.51100000000E-03 0.  1.
         12    1    3    3    0    0 -0.87883499348E+01 -0.13305000026E+02  0.40380044724E+02  0.43414353988E+02  0.00000000000E+00 0. -1.
</event>
<event>
 7    1  0.1756449E-015  0.9000773E+02  0.7816164E-02  0.1186339E+00
        -11   -1    0    0    0    0  0.00000000000E+00  0.00000000000E+00  0.45593999997E+02  0.45594000000E+02  0.51100000000E-03 0. -1.
         11   -1    0    0    0    0 -0.00000000000E+00 -0.00000000000E+00 -0.45593999997E+02  0.45594000000E+02  0.51100000000E-03 0.  1.
    9900012    2    1    2    0    0  0.88391096916E+00 -0.48586763901E+00  0.61292969487E+00  0.90007725127E+02  0.89999986299E+02 0.  0.
        -12    1    1    2    0    0 -0.88391096916E+00  0.48586763901E+00 -0.61292969487E+00  0.11802748726E+01  0.00000000000E+00 0.  1.
         11    1    3    3    0    0 -0.19848746799E+01 -0.17147544624E+02  0.23331309185E+02  0.29022887566E+02  0.51100000000E-03 0. -1.
        -11    1    3    3    0    0  0.27171699843E+02  0.88767668854E+01 -0.30136349828E+01  0.28743351558E+02  0.51100000000E-03 0.  1.
        -12    1    3    3    0    0 -0.24302914194E+02  0.77849100999E+01 -0.19704744507E+02  0.32241486003E+02  0.00000000000E+00 0.  1.
</event>
<event>
 7    1  0.1756449E-015  0.9000764E+02  0.7816164E-02  0.1186339E+00
        -11   -1    0    0    0    0  0.00000000000E+00  0.00000000000E+00  0.45593999997E+02  0.45594000000E+02  0.51100000000E-03 0.  1.
         11   -1    0    0    0    0 -0.00000000000E+00 -0.00000000000E+00 -0.45593999997E+02  0.45594000000E+02  0.51100000000E-03 0. -1.
    9900012    2    1    2    0    0 -0.59805467854E+00 -0.14846391649E+00 -0.10067460191E+01  0.90007640529E+02  0.89999900584E+02 0.  0.
        -12    1    1    2    0    0  0.59805467854E+00  0.14846391649E+00  0.10067460191E+01  0.11803594707E+01  0.00000000000E+00 0.  1.
         11    1    3    3    0    0 -0.66802714228E+01  0.44130054712E+01  0.41668970912E+01  0.90257229739E+01  0.51100000000E-03 0. -1.
        -11    1    3    3    0    0  0.29604903686E+02  0.26044271084E+02  0.79254947707E+01  0.40218998573E+02  0.51100000000E-03 0.  1.
         12    1    3    3    0    0 -0.23522686942E+02 -0.30605740472E+02 -0.13099137881E+02  0.40762918983E+02  0.00000000000E+00 0. -1.
</event>
<event>
 7    1  0.1756449E-015  0.9000758E+02  0.7816164E-02  0.1186339E+00
        -11   -1    0    0    0    0  0.00000000000E+00  0.00000000000E+00  0.45593999997E+02  0.45594000000E+02  0.51100000000E-03 0. -1.
         11   -1    0    0    0    0 -0.00000000000E+00 -0.00000000000E+00 -0.45593999997E+02  0.45594000000E+02  0.51100000000E-03 0.  1.
    9900012    2    1    2    0    0 -0.39677583884E-01  0.11784182326E+01 -0.56025149897E-01  0.90007583692E+02  0.89999842997E+02 0.  0.
        -12    1    1    2    0    0  0.39677583884E-01 -0.11784182326E+01  0.56025149897E-01  0.11804163075E+01  0.00000000000E+00 0.  1.
         11    1    3    3    0    0  0.29957976939E+01 -0.18692787223E+02  0.31122507737E+02  0.36428087873E+02  0.51100000000E-03 0. -1.
        -11    1    3    3    0    0  0.62826751592E+01  0.14332760614E+00  0.71235026277E+01  0.94993073383E+01  0.51100000000E-03 0.  1.
        -12    1    3    3    0    0 -0.93181504371E+01  0.19727877849E+02 -0.38302035515E+02  0.44080188481E+02  0.00000000000E+00 0.  1.
</event>
<event>
 7    1  0.1756449E-015  0.9000829E+02  0.7816164E-02  0.1186338E+00
        -11   -1    0    0    0    0  0.00000000000E+00  0.00000000000E+00  0.45593999997E+02  0.45594000000E+02  0.51100000000E-03 0.  1.
         11   -1    0    0    0    0 -0.00000000000E+00 -0.00000000000E+00 -0.45593999997E+02  0.45594000000E+02  0.51100000000E-03 0. -1.
    9900012    2    1    2    0    0  0.19528892276E+00 -0.48996453127E+00 -0.10552277755E+01  0.90008292976E+02  0.90000561641E+02 0.  0.
        -12    1    1    2    0    0 -0.19528892276E+00  0.48996453127E+00  0.10552277755E+01  0.11797070244E+01  0.00000000000E+00 0.  1.
         11    1    3    3    0    0 -0.32271778331E+00 -0.16723792038E+02 -0.52312198260E+01  0.17525838868E+02  0.51100000000E-03 0. -1.
        -11    1    3    3    0    0  0.34068732390E+02  0.16532608780E+02  0.80283976459E+01  0.38709958005E+02  0.51100000000E-03 0.  1.
         12    1    3    3    0    0 -0.33550725683E+02 -0.29878127283E+00 -0.38524055954E+01  0.33772496103E+02  0.00000000000E+00 0. -1.
</event>
<event>
 7    1  0.1756449E-015  0.9000774E+02  0.7816164E-02  0.1186339E+00
        -11   -1    0    0    0    0  0.00000000000E+00  0.00000000000E+00  0.45593999997E+02  0.45594000000E+02  0.51100000000E-03 0.  1.
         11   -1    0    0    0    0 -0.00000000000E+00 -0.00000000000E+00 -0.45593999997E+02  0.45594000000E+02  0.51100000000E-03 0. -1.
    9900012    2    1    2    0    0 -0.36438327605E-02  0.41977895934E+00 -0.11030774544E+01  0.90007742603E+02  0.90000004006E+02 0.  0.
        -12    1    1    2    0    0  0.36438327605E-02 -0.41977895934E+00  0.11030774544E+01  0.11802573968E+01  0.00000000000E+00 0.  1.
         11    1    3    3    0    0  0.36707479993E+02  0.11071635171E+02 -0.21247863134E+02  0.43834824977E+02  0.51100000000E-03 0. -1.
        -11    1    3    3    0    0 -0.88096196604E+01  0.15032117145E+01 -0.11754338447E+01  0.90139164076E+01  0.51100000000E-03 0.  1.
        -12    1    3    3    0    0 -0.27901504165E+02 -0.12155067927E+02  0.21320219524E+02  0.37159001218E+02  0.00000000000E+00 0.  1.
</event>
<event>
 7    1  0.1756449E-015  0.9000771E+02  0.7816164E-02  0.1186339E+00
        -11   -1    0    0    0    0  0.00000000000E+00  0.00000000000E+00  0.45593999997E+02  0.45594000000E+02  0.51100000000E-03 0.  1.
         11   -1    0    0    0    0 -0.00000000000E+00 -0.00000000000E+00 -0.45593999997E+02  0.45594000000E+02  0.51100000000E-03 0. -1.
    9900012    2    1    2    0    0 -0.32630001184E+00  0.10184415109E+01  0.49939151733E+00  0.90007709063E+02  0.89999970022E+02 0.  0.
        -12    1    1    2    0    0  0.32630001184E+00 -0.10184415109E+01 -0.49939151733E+00  0.11802909372E+01  0.00000000000E+00 0.  1.
         11    1    3    3    0    0  0.10401498489E+02 -0.39024766913E+02 -0.15045409795E+02  0.43098584195E+02  0.51100000000E-03 0. -1.
        -11    1    3    3    0    0  0.58216441871E+00  0.15717782811E+02 -0.34090484481E+00  0.15732254392E+02  0.51100000000E-03 0.  1.
        -12    1    3    3    0    0 -0.11309962920E+02  0.24325425614E+02  0.15885706157E+02  0.31176870475E+02  0.00000000000E+00 0.  1.
</event>
<event>
 7    1  0.1756449E-015  0.9000770E+02  0.7816164E-02  0.1186339E+00
        -11   -1    0    0    0    0  0.00000000000E+00  0.00000000000E+00  0.45593999997E+02  0.45594000000E+02  0.51100000000E-03 0. -1.
         11   -1    0    0    0    0 -0.00000000000E+00 -0.00000000000E+00 -0.45593999997E+02  0.45594000000E+02  0.51100000000E-03 0.  1.
    9900012    2    1    2    0    0  0.59155124465E+00 -0.49058781692E+00  0.89582674125E+00  0.90007697144E+02  0.89999957946E+02 0.  0.
        -12    1    1    2    0    0 -0.59155124465E+00  0.49058781692E+00 -0.89582674125E+00  0.11803028558E+01  0.00000000000E+00 0.  1.
         11    1    3    3    0    0 -0.24028940017E+02  0.27455213252E+02  0.66069880024E+01  0.37078713351E+02  0.51100000000E-03 0. -1.
        -11    1    3    3    0    0 -0.94024507803E+01 -0.28455445328E+01  0.17999971430E+01  0.99871514627E+01  0.51100000000E-03 0.  1.
        -12    1    3    3    0    0  0.34022942042E+02 -0.25100256536E+02 -0.75111584042E+01  0.42941832331E+02  0.00000000000E+00 0.  1.
</event>
<event>
 7    1  0.1756449E-015  0.9000762E+02  0.7816164E-02  0.1186339E+00
        -11   -1    0    0    0    0  0.00000000000E+00  0.00000000000E+00  0.45593999997E+02  0.45594000000E+02  0.51100000000E-03 0.  1.
         11   -1    0    0    0    0 -0.00000000000E+00 -0.00000000000E+00 -0.45593999997E+02  0.45594000000E+02  0.51100000000E-03 0. -1.
    9900012    2    1    2    0    0  0.61123597942E+00 -0.44562020246E-01 -0.10088112924E+01  0.90007620646E+02  0.89999880438E+02 0.  0.
        -12    1    1    2    0    0 -0.61123597942E+00  0.44562020246E-01  0.10088112924E+01  0.11803793543E+01  0.00000000000E+00 0.  1.
         11    1    3    3    0    0 -0.87394840687E+01  0.16505965445E+01 -0.24943603504E+01  0.92371469923E+01  0.51100000000E-03 0. -1.
        -11    1    3    3    0    0 -0.93223877787E+01 -0.43987752447E+01  0.38159697616E+02  0.39527441860E+02  0.51100000000E-03 0.  1.
         12    1    3    3    0    0  0.18673107827E+02  0.27036166799E+01 -0.36674148558E+02  0.41243031794E+02  0.00000000000E+00 0. -1.
</event>
<event>
 7    1  0.1756449E-015  0.9000789E+02  0.7816164E-02  0.1186339E+00
        -11   -1    0    0    0    0  0.00000000000E+00  0.00000000000E+00  0.45593999997E+02  0.45594000000E+02  0.51100000000E-03 0. -1.
         11   -1    0    0    0    0 -0.00000000000E+00 -0.00000000000E+00 -0.45593999997E+02  0.45594000000E+02  0.51100000000E-03 0.  1.
    9900012    2    1    2    0    0 -0.14608379443E+00 -0.85562017819E+00  0.79952295348E+00  0.90007888430E+02  0.90000151757E+02 0.  0.
        -12    1    1    2    0    0  0.14608379443E+00  0.85562017819E+00 -0.79952295348E+00  0.11801115699E+01  0.00000000000E+00 0.  1.
         11    1    3    3    0    0  0.27112114365E+02 -0.15826115522E+02  0.13026951183E+02  0.33988735417E+02  0.51100000000E-03 0. -1.
        -11    1    3    3    0    0 -0.21040901834E-01 -0.91855707402E+01  0.98290878849E+01  0.13453108245E+02  0.51100000000E-03 0.  1.
        -12    1    3    3    0    0 -0.27237157258E+02  0.24156066084E+02 -0.22056516115E+02  0.42566044768E+02  0.00000000000E+00 0.  1.
</event>
<event>
 7    1  0.1756449E-015  0.9000773E+02  0.7816164E-02  0.1186339E+00
        -11   -1    0    0    0    0  0.00000000000E+00  0.00000000000E+00  0.45593999997E+02  0.45594000000E+02  0.51100000000E-03 0. -1.
         11   -1    0    0    0    0 -0.00000000000E+00 -0.00000000000E+00 -0.45593999997E+02  0.45594000000E+02  0.51100000000E-03 0.  1.
    9900012    2    1    2    0    0 -0.24242768057E-01 -0.48677461866E+00  0.10749378096E+01  0.90007733701E+02  0.89999994986E+02 0.  0.
        -12    1    1    2    0    0  0.24242768057E-01  0.48677461866E+00 -0.10749378096E+01  0.11802662986E+01  0.00000000000E+00 0.  1.
         11    1    3    3    0    0 -0.44567802044E+01  0.42217415777E+01 -0.48567024668E+01  0.78277423854E+01  0.51100000000E-03 0. -1.
        -11    1    3    3    0    0  0.39547544471E+01  0.28085098185E+02 -0.24470315071E+02  0.37459433295E+02  0.51100000000E-03 0.  1.
         12    1    3    3    0    0  0.47778298927E+00 -0.32793614382E+02  0.30401955348E+02  0.44720558021E+02  0.00000000000E+00 0. -1.
</event>
<event>
 7    1  0.1756449E-015  0.9000781E+02  0.7816164E-02  0.1186339E+00
        -11   -1    0    0    0    0  0.00000000000E+00  0.00000000000E+00  0.45593999997E+02  0.45594000000E+02  0.51100000000E-03 0.  1.
         11   -1    0    0    0    0 -0.00000000000E+00 -0.00000000000E+00 -0.45593999997E+02  0.45594000000E+02  0.51100000000E-03 0. -1.
    9900012    2    1    2    0    0  0.60924803393E+00  0.99953121289E+00 -0.15036449012E+00  0.90007807095E+02  0.90000069349E+02 0.  0.
        -12    1    1    2    0    0 -0.60924803393E+00 -0.99953121289E+00  0.15036449012E+00  0.11801929047E+01  0.00000000000E+00 0.  1.
         11    1    3    3    0    0  0.21369888277E+02 -0.32400192951E+02  0.88229516681E+00  0.38822970949E+02  0.51100000000E-03 0. -1.
        -11    1    3    3    0    0 -0.54615393226E+01 -0.46245686815E+01 -0.67059183861E+01  0.98073640151E+01  0.51100000000E-03 0.  1.
        -12    1    3    3    0    0 -0.15299100921E+02  0.38024292846E+02  0.56732587292E+01  0.41377472132E+02  0.00000000000E+00 0.  1.
</event>
<event>
 7    1  0.1756449E-015  0.9000771E+02  0.7816164E-02  0.1186339E+00
        -11   -1    0    0    0    0  0.00000000000E+00  0.00000000000E+00  0.45593999997E+02  0.45594000000E+02  0.51100000000E-03 0. -1.
         11   -1    0    0    0    0 -0.00000000000E+00 -0.00000000000E+00 -0.45593999997E+02  0.45594000000E+02  0.51100000000E-03 0.  1.
    9900012    2    1    2    0    0  0.80764746873E+00 -0.81750865279E+00 -0.26919443822E+00  0.90007711698E+02  0.89999972692E+02 0.  0.
        -12    1    1    2    0    0 -0.80764746873E+00  0.81750865279E+00  0.26919443822E+00  0.11802883024E+01  0.00000000000E+00 0.  1.
         11    1    3    3    0    0 -0.24344989204E+02 -0.23579645917E+02  0.21484892532E+02  0.40128279408E+02  0.51100000000E-03 0. -1.
        -11    1    3    3    0    0 -0.18026733798E+01 -0.55131058874E+01 -0.23172523618E+01  0.62460889050E+01  0.51100000000E-03 0.  1.
        -12    1    3    3    0    0  0.26955310052E+02  0.28275243152E+02 -0.19436834608E+02  0.43633343384E+02  0.00000000000E+00 0.  1.
</event>
<event>
 7    1  0.1756449E-015  0.9000758E+02  0.7816164E-02  0.1186339E+00
        -11   -1    0    0    0    0  0.00000000000E+00  0.00000000000E+00  0.45593999997E+02  0.45594000000E+02  0.51100000000E-03 0. -1.
         11   -1    0    0    0    0 -0.00000000000E+00 -0.00000000000E+00 -0.45593999997E+02  0.45594000000E+02  0.51100000000E-03 0.  1.
    9900012    2    1    2    0    0  0.34452160062E+00 -0.10312230591E+01  0.45964818022E+00  0.90007579490E+02  0.89999838739E+02 0.  0.
        -12    1    1    2    0    0 -0.34452160062E+00  0.10312230591E+01 -0.45964818022E+00  0.11804205100E+01  0.00000000000E+00 0.  1.
         11    1    3    3    0    0 -0.22179479430E+01 -0.31078225739E+02  0.23607512555E+02  0.39090792490E+02  0.51100000000E-03 0. -1.
        -11    1    3    3    0    0 -0.60115305284E+01  0.16587000813E+01  0.64829726413E+01  0.89954832990E+01  0.51100000000E-03 0.  1.
        -12    1    3    3    0    0  0.85740000720E+01  0.28388302599E+02 -0.29630837017E+02  0.41921303701E+02  0.00000000000E+00 0.  1.
</event>
<event>
 7    1  0.1756449E-015  0.9000722E+02  0.7816164E-02  0.1186340E+00
        -11   -1    0    0    0    0  0.00000000000E+00  0.00000000000E+00  0.45593999997E+02  0.45594000000E+02  0.51100000000E-03 0.  1.
         11   -1    0    0    0    0 -0.00000000000E+00 -0.00000000000E+00 -0.45593999997E+02  0.45594000000E+02  0.51100000000E-03 0. -1.
    9900012    2    1    2    0    0  0.49159283186E+00 -0.18999643658E-02 -0.10735786928E+01  0.90007221303E+02  0.89999475822E+02 0.  0.
        -12    1    1    2    0    0 -0.49159283186E+00  0.18999643658E-02  0.10735786928E+01  0.11807786972E+01  0.00000000000E+00 0.  1.
         11    1    3    3    0    0 -0.95502611313E+01 -0.10441696010E+01 -0.27658475540E+01  0.99973841971E+01  0.51100000000E-03 0. -1.
        -11    1    3    3    0    0 -0.15579997410E+02 -0.22094534014E+02  0.26219777547E+02  0.37661405809E+02  0.51100000000E-03 0.  1.
         12    1    3    3    0    0  0.25621851373E+02  0.23136803651E+02 -0.24527508686E+02  0.42348431297E+02  0.00000000000E+00 0. -1.
</event>
<event>
 7    1  0.1756449E-015  0.9000770E+02  0.7816164E-02  0.1186339E+00
        -11   -1    0    0    0    0  0.00000000000E+00  0.00000000000E+00  0.45593999997E+02  0.45594000000E+02  0.51100000000E-03 0.  1.
         11   -1    0    0    0    0 -0.00000000000E+00 -0.00000000000E+00 -0.45593999997E+02  0.45594000000E+02  0.51100000000E-03 0. -1.
    9900012    2    1    2    0    0  0.81257754358E+00 -0.12814904652E-01 -0.85595191145E+00  0.90007703359E+02  0.89999964243E+02 0.  0.
        -12    1    1    2    0    0 -0.81257754358E+00  0.12814904652E-01  0.85595191145E+00  0.11802966410E+01  0.00000000000E+00 0.  1.
         11    1    3    3    0    0 -0.18514576007E+02 -0.28605360641E+02  0.15706491449E+02  0.37519995416E+02  0.51100000000E-03 0. -1.
        -11    1    3    3    0    0 -0.70962229750E+01  0.30009572651E+01 -0.13540354708E+02  0.15578938696E+02  0.51100000000E-03 0.  1.
        -12    1    3    3    0    0  0.26423376525E+02  0.25591588472E+02 -0.30220886521E+01  0.36908769247E+02  0.00000000000E+00 0.  1.
</event>
<event>
 7    1  0.1756449E-015  0.9000765E+02  0.7816164E-02  0.1186339E+00
        -11   -1    0    0    0    0  0.00000000000E+00  0.00000000000E+00  0.45593999997E+02  0.45594000000E+02  0.51100000000E-03 0. -1.
         11   -1    0    0    0    0 -0.00000000000E+00 -0.00000000000E+00 -0.45593999997E+02  0.45594000000E+02  0.51100000000E-03 0.  1.
    9900012    2    1    2    0    0  0.80903400420E+00 -0.74192774861E+00 -0.43386875880E+00  0.90007646280E+02  0.89999906411E+02 0.  0.
        -12    1    1    2    0    0 -0.80903400420E+00  0.74192774861E+00  0.43386875880E+00  0.11803537199E+01  0.00000000000E+00 0.  1.
         11    1    3    3    0    0  0.38157527557E+01  0.97547042267E+01 -0.88458226855E+00  0.10511741516E+02  0.51100000000E-03 0. -1.
        -11    1    3    3    0    0 -0.59169307861E+01 -0.93617541935E+01 -0.38683300614E+02  0.40237423603E+02  0.51100000000E-03 0.  1.
         12    1    3    3    0    0  0.29102120346E+01 -0.11348777818E+01  0.39134014124E+02  0.39258481162E+02  0.00000000000E+00 0. -1.
</event>
<event>
 7    1  0.1756449E-015  0.9000766E+02  0.7816164E-02  0.1186339E+00
        -11   -1    0    0    0    0  0.00000000000E+00  0.00000000000E+00  0.45593999997E+02  0.45594000000E+02  0.51100000000E-03 0. -1.
         11   -1    0    0    0    0 -0.00000000000E+00 -0.00000000000E+00 -0.45593999997E+02  0.45594000000E+02  0.51100000000E-03 0.  1.
    9900012    2    1    2    0    0  0.71167518211E+00  0.89242637919E+00  0.30049257057E+00  0.90007660137E+02  0.89999920451E+02 0.  0.
        -12    1    1    2    0    0 -0.71167518211E+00 -0.89242637919E+00 -0.30049257057E+00  0.11803398630E+01  0.00000000000E+00 0.  1.
         11    1    3    3    0    0 -0.45354233821E+01 -0.94972744198E+01 -0.20230876099E+00  0.10526595639E+02  0.51100000000E-03 0. -1.
        -11    1    3    3    0    0  0.31854130651E+02  0.16978019464E+02 -0.23478935844E+02  0.43060413526E+02  0.51100000000E-03 0.  1.
         12    1    3    3    0    0 -0.26607032086E+02 -0.65883186646E+01  0.23981737175E+02  0.36420650972E+02  0.00000000000E+00 0. -1.
</event>
<event>
 7    1  0.1756449E-015  0.9000774E+02  0.7816164E-02  0.1186339E+00
        -11   -1    0    0    0    0  0.00000000000E+00  0.00000000000E+00  0.45593999997E+02  0.45594000000E+02  0.51100000000E-03 0.  1.
         11   -1    0    0    0    0 -0.00000000000E+00 -0.00000000000E+00 -0.45593999997E+02  0.45594000000E+02  0.51100000000E-03 0. -1.
    9900012    2    1    2    0    0 -0.10158028556E+01  0.24556986974E+00  0.54849460795E+00  0.90007743105E+02  0.90000004514E+02 0.  0.
        -12    1    1    2    0    0  0.10158028556E+01 -0.24556986974E+00 -0.54849460795E+00  0.11802568946E+01  0.00000000000E+00 0.  1.
         11    1    3    3    0    0 -0.14322160554E+02 -0.14098108396E+02  0.32057904578E+02  0.37836360679E+02  0.51100000000E-03 0. -1.
        -11    1    3    3    0    0  0.55448954196E+01  0.96287298446E+01  0.66480355402E+01  0.12948153553E+02  0.51100000000E-03 0.  1.
        -12    1    3    3    0    0  0.77614622785E+01  0.47149484207E+01 -0.38157445510E+02  0.39223228873E+02  0.00000000000E+00 0.  1.
</event>
<event>
 7    1  0.1756449E-015  0.9000779E+02  0.7816164E-02  0.1186339E+00
        -11   -1    0    0    0    0  0.00000000000E+00  0.00000000000E+00  0.45593999997E+02  0.45594000000E+02  0.51100000000E-03 0.  1.
         11   -1    0    0    0    0 -0.00000000000E+00 -0.00000000000E+00 -0.45593999997E+02  0.45594000000E+02  0.51100000000E-03 0. -1.
    9900012    2    1    2    0    0  0.57243197236E-02 -0.11585705158E+01 -0.22491331625E+00  0.90007786287E+02  0.90000048266E+02 0.  0.
        -12    1    1    2    0    0 -0.57243197236E-02  0.11585705158E+01  0.22491331625E+00  0.11802137128E+01  0.00000000000E+00 0.  1.
         11    1    3    3    0    0 -0.32731451836E+02  0.12902294552E+02 -0.11218927527E+02  0.36928058156E+02  0.51100000000E-03 0. -1.
        -11    1    3    3    0    0 -0.20511502740E+01  0.85368973284E+01  0.73249978265E+01  0.11434221743E+02  0.51100000000E-03 0.  1.
        -12    1    3    3    0    0  0.34788326430E+02 -0.22597762397E+02  0.36690163847E+01  0.41645506389E+02  0.00000000000E+00 0.  1.
</event>
<event>
 7    1  0.1756449E-015  0.9000773E+02  0.7816164E-02  0.1186339E+00
        -11   -1    0    0    0    0  0.00000000000E+00  0.00000000000E+00  0.45593999997E+02  0.45594000000E+02  0.51100000000E-03 0. -1.
         11   -1    0    0    0    0 -0.00000000000E+00 -0.00000000000E+00 -0.45593999997E+02  0.45594000000E+02  0.51100000000E-03 0.  1.
    9900012    2    1    2    0    0  0.15254404239E+00  0.97188629191E+00 -0.65207600633E+00  0.90007730638E+02  0.89999991882E+02 0.  0.
        -12    1    1    2    0    0 -0.15254404239E+00 -0.97188629191E+00  0.65207600633E+00  0.11802693622E+01  0.00000000000E+00 0.  1.
         11    1    3    3    0    0 -0.28969179442E+01  0.59840859759E+01  0.85497626306E+01  0.10830505983E+02  0.51100000000E-03 0. -1.
        -11    1    3    3    0    0 -0.30305811720E+02 -0.83151209502E+01 -0.26816391176E+02  0.41312253586E+02  0.51100000000E-03 0.  1.
         12    1    3    3    0    0  0.33355273706E+02  0.33029212662E+01  0.17614552539E+02  0.37864971069E+02  0.00000000000E+00 0. -1.
</event>
<event>
 7    1  0.1756449E-015  0.9000779E+02  0.7816164E-02  0.1186339E+00
        -11   -1    0    0    0    0  0.00000000000E+00  0.00000000000E+00  0.45593999997E+02  0.45594000000E+02  0.51100000000E-03 0.  1.
         11   -1    0    0    0    0 -0.00000000000E+00 -0.00000000000E+00 -0.45593999997E+02  0.45594000000E+02  0.51100000000E-03 0. -1.
    9900012    2    1    2    0    0 -0.45787001399E+00 -0.97821012354E+00 -0.47576361371E+00  0.90007791963E+02  0.90000054016E+02 0.  0.
        -12    1    1    2    0    0  0.45787001399E+00  0.97821012354E+00  0.47576361371E+00  0.11802080374E+01  0.00000000000E+00 0.  1.
         11    1    3    3    0    0  0.21538831766E+01 -0.61892555160E+01  0.84817054042E+01  0.10718461802E+02  0.51100000000E-03 0. -1.
        -11    1    3    3    0    0  0.13383097543E+02  0.26600792734E+02  0.23010480155E+02  0.37632322159E+02  0.51100000000E-03 0.  1.
         12    1    3    3    0    0 -0.15994850733E+02 -0.21389747341E+02 -0.31967949173E+02  0.41657008001E+02  0.00000000000E+00 0. -1.
</event>
<event>
 7    1  0.1756449E-015  0.9000779E+02  0.7816164E-02  0.1186339E+00
        -11   -1    0    0    0    0  0.00000000000E+00  0.00000000000E+00  0.45593999997E+02  0.45594000000E+02  0.51100000000E-03 0. -1.
         11   -1    0    0    0    0 -0.00000000000E+00 -0.00000000000E+00 -0.45593999997E+02  0.45594000000E+02  0.51100000000E-03 0.  1.
    9900012    2    1    2    0    0 -0.76361294910E+00  0.57068208104E+00 -0.69578911174E+00  0.90007785925E+02  0.90000047900E+02 0.  0.
        -12    1    1    2    0    0  0.76361294910E+00 -0.57068208104E+00  0.69578911174E+00  0.11802140745E+01  0.00000000000E+00 0.  1.
         11    1    3    3    0    0 -0.25847422557E+02  0.26900297392E+02  0.83395576142E+01  0.38226476088E+02  0.51100000000E-03 0. -1.
        -11    1    3    3    0    0  0.36150327172E+01  0.72904849335E+01  0.49333174814E+01  0.95161575095E+01  0.51100000000E-03 0.  1.
        -12    1    3    3    0    0  0.21468776891E+02 -0.33620100244E+02 -0.13968664207E+02  0.42265152328E+02  0.00000000000E+00 0.  1.
</event>
<event>
 7    1  0.1756449E-015  0.9000769E+02  0.7816164E-02  0.1186339E+00
        -11   -1    0    0    0    0  0.00000000000E+00  0.00000000000E+00  0.45593999997E+02  0.45594000000E+02  0.51100000000E-03 0. -1.
         11   -1    0    0    0    0 -0.00000000000E+00 -0.00000000000E+00 -0.45593999997E+02  0.45594000000E+02  0.51100000000E-03 0.  1.
    9900012    2    1    2    0    0 -0.11714169825E+01  0.13181959501E+00  0.59388470587E-01  0.90007694470E+02  0.89999955237E+02 0.  0.
        -12    1    1    2    0    0  0.11714169825E+01 -0.13181959501E+00 -0.59388470587E-01  0.11803055295E+01  0.00000000000E+00 0.  1.
         11    1    3    3    0    0  0.67489076724E+01 -0.23945967809E+01 -0.46190793410E+01  0.85216044694E+01  0.51100000000E-03 0. -1.
        -11    1    3    3    0    0  0.11095090639E+02  0.36814640852E+02 -0.98181435221E+01  0.39683935790E+02  0.51100000000E-03 0.  1.
         12    1    3    3    0    0 -0.19015415293E+02 -0.34288224476E+02  0.14496611334E+02  0.41802154211E+02  0.00000000000E+00 0. -1.
</event>
<event>
 7    1  0.1756449E-015  0.9000774E+02  0.7816164E-02  0.1186339E+00
        -11   -1    0    0    0    0  0.00000000000E+00  0.00000000000E+00  0.45593999997E+02  0.45594000000E+02  0.51100000000E-03 0.  1.
         11   -1    0    0    0    0 -0.00000000000E+00 -0.00000000000E+00 -0.45593999997E+02  0.45594000000E+02  0.51100000000E-03 0. -1.
    9900012    2    1    2    0    0  0.10479256933E+01  0.29562924223E+00 -0.45549856170E+00  0.90007735688E+02  0.89999996999E+02 0.  0.
        -12    1    1    2    0    0 -0.10479256933E+01 -0.29562924223E+00  0.45549856170E+00  0.11802643125E+01  0.00000000000E+00 0.  1.
         11    1    3    3    0    0 -0.20676430167E+02 -0.24723213739E+02 -0.22501085875E+02  0.39307135839E+02  0.51100000000E-03 0. -1.
        -11    1    3    3    0    0  0.52079267530E+01 -0.67958972669E+01  0.93362206034E+01  0.12667743925E+02  0.51100000000E-03 0.  1.
        -12    1    3    3    0    0  0.16516429108E+02  0.31814740249E+02  0.12709366709E+02  0.38032855924E+02  0.00000000000E+00 0.  1.
</event>
<event>
 7    1  0.1756449E-015  0.9000774E+02  0.7816164E-02  0.1186339E+00
        -11   -1    0    0    0    0  0.00000000000E+00  0.00000000000E+00  0.45593999997E+02  0.45594000000E+02  0.51100000000E-03 0. -1.
         11   -1    0    0    0    0 -0.00000000000E+00 -0.00000000000E+00 -0.45593999997E+02  0.45594000000E+02  0.51100000000E-03 0.  1.
    9900012    2    1    2    0    0  0.13991761504E+00  0.11348887656E+01  0.29232795940E+00  0.90007743636E+02  0.90000005052E+02 0.  0.
        -12    1    1    2    0    0 -0.13991761504E+00 -0.11348887656E+01 -0.29232795940E+00  0.11802563642E+01  0.00000000000E+00 0.  1.
         11    1    3    3    0    0  0.27550922642E+01 -0.70242621466E+01 -0.58161598750E+01  0.95267259876E+01  0.51100000000E-03 0. -1.
        -11    1    3    3    0    0 -0.26876308073E+01  0.17085011397E+01 -0.36876946104E+02  0.37014206593E+02  0.51100000000E-03 0.  1.
         12    1    3    3    0    0  0.72456158097E-01  0.64506497726E+01  0.42985433939E+02  0.43466811055E+02  0.00000000000E+00 0. -1.
</event>
<event>
 7    1  0.1756449E-015  0.9000772E+02  0.7816164E-02  0.1186339E+00
        -11   -1    0    0    0    0  0.00000000000E+00  0.00000000000E+00  0.45593999997E+02  0.45594000000E+02  0.51100000000E-03 0.  1.
         11   -1    0    0    0    0 -0.00000000000E+00 -0.00000000000E+00 -0.45593999997E+02  0.45594000000E+02  0.51100000000E-03 0. -1.
    9900012    2    1    2    0    0 -0.88379765731E+00  0.40691375590E+00 -0.66812515241E+00  0.90007716846E+02  0.89999977909E+02 0.  0.
        -12    1    1    2    0    0  0.88379765731E+00 -0.40691375590E+00  0.66812515241E+00  0.11802831538E+01  0.00000000000E+00 0.  1.
         11    1    3    3    0    0  0.91203275329E+01  0.33141247621E+02 -0.17563133638E+02  0.38600341082E+02  0.51100000000E-03 0. -1.
        -11    1    3    3    0    0 -0.76546881925E+01  0.59059712838E+01  0.51438730611E+01  0.10951446409E+02  0.51100000000E-03 0.  1.
        -12    1    3    3    0    0 -0.23494369977E+01 -0.38640305149E+02  0.11751135424E+02  0.40455929355E+02  0.00000000000E+00 0.  1.
</event>
<event>
 7    1  0.1756449E-015  0.9000774E+02  0.7816164E-02  0.1186339E+00
        -11   -1    0    0    0    0  0.00000000000E+00  0.00000000000E+00  0.45593999997E+02  0.45594000000E+02  0.51100000000E-03 0. -1.
         11   -1    0    0    0    0 -0.00000000000E+00 -0.00000000000E+00 -0.45593999997E+02  0.45594000000E+02  0.51100000000E-03 0.  1.
    9900012    2    1    2    0    0 -0.10442333634E+01 -0.20849420858E+00  0.50903929027E+00  0.90007739795E+02  0.90000001160E+02 0.  0.
        -12    1    1    2    0    0  0.10442333634E+01  0.20849420858E+00 -0.50903929027E+00  0.11802602049E+01  0.00000000000E+00 0.  1.
         11    1    3    3    0    0  0.12082291870E+02 -0.18404277471E+02  0.30688855734E+02  0.37769102089E+02  0.51100000000E-03 0. -1.
        -11    1    3    3    0    0  0.90163267713E+01  0.20846650337E+01  0.25160726209E+01  0.95901302621E+01  0.51100000000E-03 0.  1.
        -12    1    3    3    0    0 -0.22142852004E+02  0.16111118229E+02 -0.32695889065E+02  0.42648507444E+02  0.00000000000E+00 0.  1.
</event>
<event>
 7    1  0.1756449E-015  0.9000778E+02  0.7816164E-02  0.1186339E+00
        -11   -1    0    0    0    0  0.00000000000E+00  0.00000000000E+00  0.45593999997E+02  0.45594000000E+02  0.51100000000E-03 0.  1.
         11   -1    0    0    0    0 -0.00000000000E+00 -0.00000000000E+00 -0.45593999997E+02  0.45594000000E+02  0.51100000000E-03 0. -1.
    9900012    2    1    2    0    0  0.37645923604E+00  0.11036258230E+01 -0.18222173315E+00  0.90007781260E+02  0.90000043173E+02 0.  0.
        -12    1    1    2    0    0 -0.37645923604E+00 -0.11036258230E+01  0.18222173315E+00  0.11802187397E+01  0.00000000000E+00 0.  1.
         11    1    3    3    0    0 -0.29526305556E+02  0.24003594495E+02  0.83672737413E+00  0.38061468461E+02  0.51100000000E-03 0. -1.
        -11    1    3    3    0    0 -0.69729029539E+01 -0.27546446818E+01 -0.60401894474E+01  0.96277376236E+01  0.51100000000E-03 0.  1.
        -12    1    3    3    0    0  0.36875667746E+02 -0.20145323990E+02  0.50212403402E+01  0.42318575176E+02  0.00000000000E+00 0.  1.
</event>
<event>
 7    1  0.1756449E-015  0.9000767E+02  0.7816164E-02  0.1186339E+00
        -11   -1    0    0    0    0  0.00000000000E+00  0.00000000000E+00  0.45593999997E+02  0.45594000000E+02  0.51100000000E-03 0.  1.
         11   -1    0    0    0    0 -0.00000000000E+00 -0.00000000000E+00 -0.45593999997E+02  0.45594000000E+02  0.51100000000E-03 0. -1.
    9900012    2    1    2    0    0  0.10772255962E+01 -0.31020309098E+00 -0.36950297730E+00  0.90007672337E+02  0.89999932811E+02 0.  0.
        -12    1    1    2    0    0 -0.10772255962E+01  0.31020309098E+00  0.36950297730E+00  0.11803276634E+01  0.00000000000E+00 0.  1.
         11    1    3    3    0    0 -0.31954862285E+02 -0.30428308076E+02 -0.16079185782E+01  0.44154054835E+02  0.51100000000E-03 0. -1.
        -11    1    3    3    0    0 -0.54307415634E+00  0.18998997715E+01 -0.43940966041E-01  0.19764816596E+01  0.51100000000E-03 0.  1.
        -12    1    3    3    0    0  0.33575162037E+02  0.28218205213E+02  0.12823565670E+01  0.43877135842E+02  0.00000000000E+00 0.  1.
</event>
<event>
 7    1  0.1916762E-015  0.9000762E+02  0.7816164E-02  0.1186339E+00
        -11   -1    0    0    0    0  0.00000000000E+00  0.00000000000E+00  0.45593999997E+02  0.45594000000E+02  0.51100000000E-03 0. -1.
         11   -1    0    0    0    0 -0.00000000000E+00 -0.00000000000E+00 -0.45593999997E+02  0.45594000000E+02  0.51100000000E-03 0.  1.
    9900012    2    1    2    0    0 -0.94288365607E+00  0.56448085182E+00  0.43083524189E+00  0.90007624116E+02  0.89999883955E+02 0.  0.
        -12    1    1    2    0    0  0.94288365607E+00 -0.56448085182E+00 -0.43083524189E+00  0.11803758836E+01  0.00000000000E+00 0.  1.
         11    1    3    3    0    0  0.77668497518E+01  0.67470283644E+00 -0.53657804974E+01  0.94641840426E+01  0.51100000000E-03 0. -1.
        -11    1    3    3    0    0 -0.35361611032E+01 -0.16399728066E+02 -0.33624118775E+02  0.37577079180E+02  0.51100000000E-03 0.  1.
         12    1    3    3    0    0 -0.51735723047E+01  0.16289506082E+02  0.39420734515E+02  0.42966360894E+02  0.00000000000E+00 0. -1.
</event>
<event>
 7    1  0.1756449E-015  0.9000775E+02  0.7816164E-02  0.1186339E+00
        -11   -1    0    0    0    0  0.00000000000E+00  0.00000000000E+00  0.45593999997E+02  0.45594000000E+02  0.51100000000E-03 0.  1.
         11   -1    0    0    0    0 -0.00000000000E+00 -0.00000000000E+00 -0.45593999997E+02  0.45594000000E+02  0.51100000000E-03 0. -1.
    9900012    2    1    2    0    0 -0.10464084987E+01 -0.20383092067E+00 -0.50641983047E+00  0.90007754756E+02  0.90000016319E+02 0.  0.
        -12    1    1    2    0    0  0.10464084987E+01  0.20383092067E+00  0.50641983047E+00  0.11802452436E+01  0.00000000000E+00 0.  1.
         11    1    3    3    0    0 -0.29938848512E+02 -0.22316722041E+02 -0.88040013745E+01  0.38365103588E+02  0.51100000000E-03 0. -1.
        -11    1    3    3    0    0  0.15980704732E+01 -0.92118968416E+01  0.26125999256E+01  0.97076542630E+01  0.51100000000E-03 0.  1.
        -12    1    3    3    0    0  0.27294369540E+02  0.31324787962E+02  0.56849816184E+01  0.41934996905E+02  0.00000000000E+00 0.  1.
</event>
<event>
 7    1  0.1756449E-015  0.9000776E+02  0.7816164E-02  0.1186339E+00
        -11   -1    0    0    0    0  0.00000000000E+00  0.00000000000E+00  0.45593999997E+02  0.45594000000E+02  0.51100000000E-03 0. -1.
         11   -1    0    0    0    0 -0.00000000000E+00 -0.00000000000E+00 -0.45593999997E+02  0.45594000000E+02  0.51100000000E-03 0.  1.
    9900012    2    1    2    0    0  0.20017357835E+00 -0.55034032644E+00  0.10247024812E+01  0.90007763112E+02  0.90000024785E+02 0.  0.
        -12    1    1    2    0    0 -0.20017357835E+00  0.55034032644E+00 -0.10247024812E+01  0.11802368878E+01  0.00000000000E+00 0.  1.
         11    1    3    3    0    0 -0.28208222566E+01  0.48122946511E+01  0.70174550661E+01  0.89643680133E+01  0.51100000000E-03 0. -1.
        -11    1    3    3    0    0  0.32703186110E+02  0.19945778530E+02 -0.14781012710E+02  0.41058626376E+02  0.51100000000E-03 0.  1.
         12    1    3    3    0    0 -0.29682190275E+02 -0.25308413508E+02  0.87882601252E+01  0.39984768723E+02  0.00000000000E+00 0. -1.
</event>
<event>
 7    1  0.1756449E-015  0.9000781E+02  0.7816164E-02  0.1186339E+00
        -11   -1    0    0    0    0  0.00000000000E+00  0.00000000000E+00  0.45593999997E+02  0.45594000000E+02  0.51100000000E-03 0. -1.
         11   -1    0    0    0    0 -0.00000000000E+00 -0.00000000000E+00 -0.45593999997E+02  0.45594000000E+02  0.51100000000E-03 0.  1.
    9900012    2    1    2    0    0  0.60082549484E+00  0.89149974920E+00  0.48690581218E+00  0.90007813427E+02  0.90000075764E+02 0.  0.
        -12    1    1    2    0    0 -0.60082549484E+00 -0.89149974920E+00 -0.48690581218E+00  0.11801865734E+01  0.00000000000E+00 0.  1.
         11    1    3    3    0    0 -0.17526425085E+02  0.10159660817E+02  0.36755133310E+02  0.41968251203E+02  0.51100000000E-03 0. -1.
        -11    1    3    3    0    0  0.17472265927E+01 -0.67142053200E+01  0.12246949505E+01  0.70450856509E+01  0.51100000000E-03 0.  1.
        -12    1    3    3    0    0  0.16380023987E+02 -0.25539557482E+01 -0.37492922448E+02  0.40994476573E+02  0.00000000000E+00 0.  1.
</event>
<event>
 7    1  0.1756449E-015  0.9000692E+02  0.7816164E-02  0.1186341E+00
        -11   -1    0    0    0    0  0.00000000000E+00  0.00000000000E+00  0.45593999997E+02  0.45594000000E+02  0.51100000000E-03 0. -1.
         11   -1    0    0    0    0 -0.00000000000E+00 -0.00000000000E+00 -0.45593999997E+02  0.45594000000E+02  0.51100000000E-03 0.  1.
    9900012    2    1    2    0    0  0.10656395521E+01  0.26726210301E+00  0.43352560170E+00  0.90006915272E+02  0.89999165750E+02 0.  0.
        -12    1    1    2    0    0 -0.10656395521E+01 -0.26726210301E+00 -0.43352560170E+00  0.11810847277E+01  0.00000000000E+00 0.  1.
         11    1    3    3    0    0 -0.26462694855E+01 -0.10961601240E+02 -0.44979597985E+01  0.12140473078E+02  0.51100000000E-03 0. -1.
        -11    1    3    3    0    0  0.37661573444E+02 -0.74650109455E+01 -0.22098585821E+01  0.38457820764E+02  0.51100000000E-03 0.  1.
         12    1    3    3    0    0 -0.33949664406E+02  0.18693874289E+02  0.71413439823E+01  0.39408621431E+02  0.00000000000E+00 0. -1.
</event>
<event>
 7    1  0.1756449E-015  0.9000773E+02  0.7816164E-02  0.1186339E+00
        -11   -1    0    0    0    0  0.00000000000E+00  0.00000000000E+00  0.45593999997E+02  0.45594000000E+02  0.51100000000E-03 0.  1.
         11   -1    0    0    0    0 -0.00000000000E+00 -0.00000000000E+00 -0.45593999997E+02  0.45594000000E+02  0.51100000000E-03 0. -1.
    9900012    2    1    2    0    0  0.40003537817E+00  0.10151063016E+01 -0.45007783312E+00  0.90007729199E+02  0.89999990425E+02 0.  0.
        -12    1    1    2    0    0 -0.40003537817E+00 -0.10151063016E+01  0.45007783312E+00  0.11802708008E+01  0.00000000000E+00 0.  1.
         11    1    3    3    0    0 -0.20647846771E+02  0.99386554113E+01 -0.28784312819E+02  0.36791943580E+02  0.51100000000E-03 0. -1.
        -11    1    3    3    0    0 -0.22481025173E+01 -0.10445203011E+02 -0.55716947182E+01  0.12049896812E+02  0.51100000000E-03 0.  1.
        -12    1    3    3    0    0  0.23295984666E+02  0.15216539017E+01  0.33905929705E+02  0.41165888807E+02  0.00000000000E+00 0.  1.
</event>
<event>
 7    1  0.1756449E-015  0.9000772E+02  0.7816164E-02  0.1186339E+00
        -11   -1    0    0    0    0  0.00000000000E+00  0.00000000000E+00  0.45593999997E+02  0.45594000000E+02  0.51100000000E-03 0. -1.
         11   -1    0    0    0    0 -0.00000000000E+00 -0.00000000000E+00 -0.45593999997E+02  0.45594000000E+02  0.51100000000E-03 0.  1.
    9900012    2    1    2    0    0 -0.42277973965E+00 -0.11018425634E+01  0.16110000108E-01  0.90007720679E+02  0.89999981792E+02 0.  0.
        -12    1    1    2    0    0  0.42277973965E+00  0.11018425634E+01 -0.16110000108E-01  0.11802793207E+01  0.00000000000E+00 0.  1.
         11    1    3    3    0    0  0.53757610142E+01 -0.46463053965E+01  0.63202684181E+01  0.95096137386E+01  0.51100000000E-03 0. -1.
        -11    1    3    3    0    0 -0.10175428487E+02 -0.25895047257E+02 -0.31122105865E+02  0.41745398441E+02  0.51100000000E-03 0.  1.
         12    1    3    3    0    0  0.43768877327E+01  0.29439510090E+02  0.24817947446E+02  0.38752708499E+02  0.00000000000E+00 0. -1.
</event>
<event>
 7    1  0.1756449E-015  0.9000771E+02  0.7816164E-02  0.1186339E+00
        -11   -1    0    0    0    0  0.00000000000E+00  0.00000000000E+00  0.45593999997E+02  0.45594000000E+02  0.51100000000E-03 0.  1.
         11   -1    0    0    0    0 -0.00000000000E+00 -0.00000000000E+00 -0.45593999997E+02  0.45594000000E+02  0.51100000000E-03 0. -1.
    9900012    2    1    2    0    0 -0.86358408979E+00 -0.34515931786E+00 -0.72675959705E+00  0.90007706839E+02  0.89999967769E+02 0.  0.
        -12    1    1    2    0    0  0.86358408979E+00  0.34515931786E+00  0.72675959705E+00  0.11802931614E+01  0.00000000000E+00 0.  1.
         11    1    3    3    0    0  0.34987435987E+02 -0.18265501168E+02 -0.33820925859E+01  0.39612974647E+02  0.51100000000E-03 0. -1.
        -11    1    3    3    0    0  0.15739348189E+01  0.13642607895E+01 -0.78687034708E+01  0.81397157744E+01  0.51100000000E-03 0.  1.
        -12    1    3    3    0    0 -0.37424954896E+02  0.16556081060E+02  0.10524036460E+02  0.42255016417E+02  0.00000000000E+00 0.  1.
</event>
<event>
 7    1  0.1756449E-015  0.9000760E+02  0.7816164E-02  0.1186339E+00
        -11   -1    0    0    0    0  0.00000000000E+00  0.00000000000E+00  0.45593999997E+02  0.45594000000E+02  0.51100000000E-03 0.  1.
         11   -1    0    0    0    0 -0.00000000000E+00 -0.00000000000E+00 -0.45593999997E+02  0.45594000000E+02  0.51100000000E-03 0. -1.
    9900012    2    1    2    0    0 -0.35593750365E+00 -0.10668130785E+01 -0.35854863807E+00  0.90007602280E+02  0.89999861830E+02 0.  0.
        -12    1    1    2    0    0  0.35593750365E+00  0.10668130785E+01  0.35854863807E+00  0.11803977197E+01  0.00000000000E+00 0.  1.
         11    1    3    3    0    0 -0.43358114983E+02 -0.52579384973E+00  0.72762925910E+01  0.43967567913E+02  0.51100000000E-03 0. -1.
        -11    1    3    3    0    0  0.61231403752E+01 -0.45032050761E+01 -0.44610884069E+01  0.88132294903E+01  0.51100000000E-03 0.  1.
        -12    1    3    3    0    0  0.36879037104E+02  0.39621858474E+01 -0.31737528221E+01  0.37226804877E+02  0.00000000000E+00 0.  1.
</event>
<event>
 7    1  0.1756449E-015  0.9000789E+02  0.7816164E-02  0.1186339E+00
        -11   -1    0    0    0    0  0.00000000000E+00  0.00000000000E+00  0.45593999997E+02  0.45594000000E+02  0.51100000000E-03 0.  1.
         11   -1    0    0    0    0 -0.00000000000E+00 -0.00000000000E+00 -0.45593999997E+02  0.45594000000E+02  0.51100000000E-03 0. -1.
    9900012    2    1    2    0    0 -0.16350844366E+00 -0.32632521100E+00 -0.11222500785E+01  0.90007886280E+02  0.90000149578E+02 0.  0.
        -12    1    1    2    0    0  0.16350844366E+00  0.32632521100E+00  0.11222500785E+01  0.11801137205E+01  0.00000000000E+00 0.  1.
         11    1    3    3    0    0  0.33922043315E+02 -0.92928344874E+01 -0.67032259083E+01  0.35804958222E+02  0.51100000000E-03 0. -1.
        -11    1    3    3    0    0  0.38682258004E+01  0.95993233188E+01 -0.88260304101E+01  0.13601801060E+02  0.51100000000E-03 0.  1.
        -12    1    3    3    0    0 -0.37953777559E+02 -0.63281404239E+00  0.14407006240E+02  0.40601126997E+02  0.00000000000E+00 0.  1.
</event>
<event>
 7    1  0.1756449E-015  0.9000785E+02  0.7816164E-02  0.1186339E+00
        -11   -1    0    0    0    0  0.00000000000E+00  0.00000000000E+00  0.45593999997E+02  0.45594000000E+02  0.51100000000E-03 0. -1.
         11   -1    0    0    0    0 -0.00000000000E+00 -0.00000000000E+00 -0.45593999997E+02  0.45594000000E+02  0.51100000000E-03 0.  1.
    9900012    2    1    2    0    0 -0.16747471412E+00 -0.11052269944E+01  0.37840603696E+00  0.90007845087E+02  0.90000107842E+02 0.  0.
        -12    1    1    2    0    0  0.16747471412E+00  0.11052269944E+01 -0.37840603696E+00  0.11801549126E+01  0.00000000000E+00 0.  1.
         11    1    3    3    0    0 -0.42170896343E+00 -0.13836099679E+01  0.56877155122E+01  0.58687582163E+01  0.51100000000E-03 0. -1.
        -11    1    3    3    0    0  0.16055031971E+02  0.38512004000E+02  0.33980582391E+01  0.41862695848E+02  0.51100000000E-03 0.  1.
         12    1    3    3    0    0 -0.15800797721E+02 -0.38233621026E+02 -0.87073677143E+01  0.42276391023E+02  0.00000000000E+00 0. -1.
</event>
<event>
 7    1  0.1756449E-015  0.9000785E+02  0.7816164E-02  0.1186339E+00
        -11   -1    0    0    0    0  0.00000000000E+00  0.00000000000E+00  0.45593999997E+02  0.45594000000E+02  0.51100000000E-03 0.  1.
         11   -1    0    0    0    0 -0.00000000000E+00 -0.00000000000E+00 -0.45593999997E+02  0.45594000000E+02  0.51100000000E-03 0. -1.
    9900012    2    1    2    0    0  0.99652221119E+00 -0.62913699953E+00  0.62371955560E-01  0.90007847407E+02  0.90000110193E+02 0.  0.
        -12    1    1    2    0    0 -0.99652221119E+00  0.62913699953E+00 -0.62371955560E-01  0.11801525928E+01  0.00000000000E+00 0.  1.
         11    1    3    3    0    0  0.32502972768E+01  0.19362005241E+01 -0.95967947619E+01  0.10315608311E+02  0.51100000000E-03 0. -1.
        -11    1    3    3    0    0  0.13608281907E+02 -0.30282043172E+02  0.27502108432E+02  0.43110943432E+02  0.51100000000E-03 0.  1.
         12    1    3    3    0    0 -0.15862056973E+02  0.27716705649E+02 -0.17842941715E+02  0.36581295664E+02  0.00000000000E+00 0. -1.
</event>
<event>
 7    1  0.1756449E-015  0.9000786E+02  0.7816164E-02  0.1186339E+00
        -11   -1    0    0    0    0  0.00000000000E+00  0.00000000000E+00  0.45593999997E+02  0.45594000000E+02  0.51100000000E-03 0.  1.
         11   -1    0    0    0    0 -0.00000000000E+00 -0.00000000000E+00 -0.45593999997E+02  0.45594000000E+02  0.51100000000E-03 0. -1.
    9900012    2    1    2    0    0  0.65564312944E+00 -0.50234083026E-02 -0.98124318315E+00  0.90007859613E+02  0.90000122560E+02 0.  0.
        -12    1    1    2    0    0 -0.65564312944E+00  0.50234083026E-02  0.98124318315E+00  0.11801403867E+01  0.00000000000E+00 0.  1.
         11    1    3    3    0    0  0.33087122957E+01 -0.17746744161E+01 -0.81876895918E+01  0.90075139440E+01  0.51100000000E-03 0. -1.
        -11    1    3    3    0    0 -0.28600742121E+02  0.13766008818E+02 -0.23162175384E+02  0.39293661288E+02  0.51100000000E-03 0.  1.
         12    1    3    3    0    0  0.25947672955E+02 -0.11996357810E+02  0.30368621793E+02  0.41706684381E+02  0.00000000000E+00 0. -1.
</event>
<event>
 7    1  0.1756449E-015  0.9000771E+02  0.7816164E-02  0.1186339E+00
        -11   -1    0    0    0    0  0.00000000000E+00  0.00000000000E+00  0.45593999997E+02  0.45594000000E+02  0.51100000000E-03 0.  1.
         11   -1    0    0    0    0 -0.00000000000E+00 -0.00000000000E+00 -0.45593999997E+02  0.45594000000E+02  0.51100000000E-03 0. -1.
    9900012    2    1    2    0    0  0.10819155889E+01 -0.41416180549E+00 -0.22587570261E+00  0.90007707165E+02  0.89999968100E+02 0.  0.
        -12    1    1    2    0    0 -0.10819155889E+01  0.41416180549E+00  0.22587570261E+00  0.11802928347E+01  0.00000000000E+00 0.  1.
         11    1    3    3    0    0 -0.18527193731E+02  0.66751183880E+01  0.29428565204E+01  0.19911667881E+02  0.51100000000E-03 0. -1.
        -11    1    3    3    0    0  0.39131714918E+00  0.26193067284E+02  0.11955162978E+02  0.28795065983E+02  0.51100000000E-03 0.  1.
         12    1    3    3    0    0  0.19217792171E+02 -0.33282347478E+02 -0.15123895201E+02  0.41300973301E+02  0.00000000000E+00 0. -1.
</event>
<event>
 7    1  0.1756449E-015  0.9000776E+02  0.7816164E-02  0.1186339E+00
        -11   -1    0    0    0    0  0.00000000000E+00  0.00000000000E+00  0.45593999997E+02  0.45594000000E+02  0.51100000000E-03 0.  1.
         11   -1    0    0    0    0 -0.00000000000E+00 -0.00000000000E+00 -0.45593999997E+02  0.45594000000E+02  0.51100000000E-03 0. -1.
    9900012    2    1    2    0    0 -0.22305743815E+00  0.10234274711E+01  0.54388174454E+00  0.90007760295E+02  0.90000021931E+02 0.  0.
        -12    1    1    2    0    0  0.22305743815E+00 -0.10234274711E+01 -0.54388174454E+00  0.11802397051E+01  0.00000000000E+00 0.  1.
         11    1    3    3    0    0 -0.12015476860E+02 -0.12859263618E+02  0.10044135065E+00  0.17599500950E+02  0.51100000000E-03 0. -1.
        -11    1    3    3    0    0  0.29802671824E+01  0.20530430491E+02  0.32470688923E+02  0.38532145126E+02  0.51100000000E-03 0.  1.
         12    1    3    3    0    0  0.88121522396E+01 -0.66477394015E+01 -0.32027248529E+02  0.33876114219E+02  0.00000000000E+00 0. -1.
</event>
<event>
 7    1  0.1756449E-015  0.9000795E+02  0.7816164E-02  0.1186339E+00
        -11   -1    0    0    0    0  0.00000000000E+00  0.00000000000E+00  0.45593999997E+02  0.45594000000E+02  0.51100000000E-03 0. -1.
         11   -1    0    0    0    0 -0.00000000000E+00 -0.00000000000E+00 -0.45593999997E+02  0.45594000000E+02  0.51100000000E-03 0.  1.
    9900012    2    1    2    0    0 -0.13590474327E+00 -0.89590750849E+00  0.75590186273E+00  0.90007954243E+02  0.90000218439E+02 0.  0.
        -12    1    1    2    0    0  0.13590474327E+00  0.89590750849E+00 -0.75590186273E+00  0.11800457572E+01  0.00000000000E+00 0.  1.
         11    1    3    3    0    0  0.28832906516E+02  0.25580285080E+02  0.17391865151E+02  0.42286693612E+02  0.51100000000E-03 0. -1.
        -11    1    3    3    0    0 -0.92257977452E+01 -0.40349774900E+01  0.45851258640E+01  0.11064346652E+02  0.51100000000E-03 0.  1.
        -12    1    3    3    0    0 -0.19743013514E+02 -0.22441215098E+02 -0.21221089152E+02  0.36656913979E+02  0.00000000000E+00 0.  1.
</event>
<event>
 7    1  0.1756449E-015  0.9000775E+02  0.7816164E-02  0.1186339E+00
        -11   -1    0    0    0    0  0.00000000000E+00  0.00000000000E+00  0.45593999997E+02  0.45594000000E+02  0.51100000000E-03 0.  1.
         11   -1    0    0    0    0 -0.00000000000E+00 -0.00000000000E+00 -0.45593999997E+02  0.45594000000E+02  0.51100000000E-03 0. -1.
    9900012    2    1    2    0    0 -0.58205810484E+00 -0.98675106038E+00 -0.28377445641E+00  0.90007746962E+02  0.90000008421E+02 0.  0.
        -12    1    1    2    0    0  0.58205810484E+00  0.98675106038E+00  0.28377445641E+00  0.11802530384E+01  0.00000000000E+00 0.  1.
         11    1    3    3    0    0  0.17490567041E+02  0.24536919182E+02 -0.25486177892E+02  0.39465498885E+02  0.51100000000E-03 0. -1.
        -11    1    3    3    0    0  0.55715883707E+01  0.12365533447E+01 -0.15609157674E+01  0.59167659614E+01  0.51100000000E-03 0.  1.
        -12    1    3    3    0    0 -0.23644213517E+02 -0.26760223588E+02  0.26763319203E+02  0.44625482116E+02  0.00000000000E+00 0.  1.
</event>
<event>
 7    1  0.1756449E-015  0.9000776E+02  0.7816164E-02  0.1186339E+00
        -11   -1    0    0    0    0  0.00000000000E+00  0.00000000000E+00  0.45593999997E+02  0.45594000000E+02  0.51100000000E-03 0.  1.
         11   -1    0    0    0    0 -0.00000000000E+00 -0.00000000000E+00 -0.45593999997E+02  0.45594000000E+02  0.51100000000E-03 0. -1.
    9900012    2    1    2    0    0  0.10686595170E+01 -0.33628158884E+00 -0.37127021883E+00  0.90007762716E+02  0.90000024384E+02 0.  0.
        -12    1    1    2    0    0 -0.10686595170E+01  0.33628158884E+00  0.37127021883E+00  0.11802372836E+01  0.00000000000E+00 0.  1.
         11    1    3    3    0    0 -0.29982486271E+02 -0.18538007409E+02 -0.37089543547E+01  0.35445218921E+02  0.51100000000E-03 0. -1.
        -11    1    3    3    0    0  0.73123669476E+01 -0.12789607484E+02 -0.29392695482E+01  0.15022785218E+02  0.51100000000E-03 0.  1.
        -12    1    3    3    0    0  0.23738778841E+02  0.30991333304E+02  0.62769536840E+01  0.39539758577E+02  0.00000000000E+00 0.  1.
</event>
<event>
 7    1  0.1756449E-015  0.9000770E+02  0.7816164E-02  0.1186339E+00
        -11   -1    0    0    0    0  0.00000000000E+00  0.00000000000E+00  0.45593999997E+02  0.45594000000E+02  0.51100000000E-03 0.  1.
         11   -1    0    0    0    0 -0.00000000000E+00 -0.00000000000E+00 -0.45593999997E+02  0.45594000000E+02  0.51100000000E-03 0. -1.
    9900012    2    1    2    0    0  0.10468554860E+01  0.19083308124E+00  0.51067132017E+00  0.90007699669E+02  0.89999960505E+02 0.  0.
        -12    1    1    2    0    0 -0.10468554860E+01 -0.19083308124E+00 -0.51067132017E+00  0.11803003307E+01  0.00000000000E+00 0.  1.
         11    1    3    3    0    0 -0.34417785188E+01 -0.74722341140E+01  0.46383945277E+01  0.94443012490E+01  0.51100000000E-03 0. -1.
        -11    1    3    3    0    0  0.77717357686E+01  0.22938796644E+02  0.32622152573E+02  0.40629953324E+02  0.51100000000E-03 0.  1.
         12    1    3    3    0    0 -0.32831017638E+01 -0.15275729449E+02 -0.36749875781E+02  0.39933445096E+02  0.00000000000E+00 0. -1.
</event>
<event>
 7    1  0.1756449E-015  0.9000762E+02  0.7816164E-02  0.1186339E+00
        -11   -1    0    0    0    0  0.00000000000E+00  0.00000000000E+00  0.45593999997E+02  0.45594000000E+02  0.51100000000E-03 0.  1.
         11   -1    0    0    0    0 -0.00000000000E+00 -0.00000000000E+00 -0.45593999997E+02  0.45594000000E+02  0.51100000000E-03 0. -1.
    9900012    2    1    2    0    0  0.83634637110E-01 -0.41895080451E+00 -0.11003515445E+01  0.90007623767E+02  0.89999883601E+02 0.  0.
        -12    1    1    2    0    0 -0.83634637110E-01  0.41895080451E+00  0.11003515445E+01  0.11803762326E+01  0.00000000000E+00 0.  1.
         11    1    3    3    0    0 -0.49750451136E+01  0.16654620756E+01  0.82195268360E+01  0.97511773379E+01  0.51100000000E-03 0. -1.
        -11    1    3    3    0    0  0.50884068185E+01  0.10729928117E+02  0.33509308803E+02  0.35551329343E+02  0.51100000000E-03 0.  1.
         12    1    3    3    0    0 -0.29727067865E-01 -0.12814340997E+02 -0.42829187184E+02  0.44705117086E+02  0.00000000000E+00 0. -1.
</event>
<event>
 7    1  0.1756449E-015  0.9000753E+02  0.7816164E-02  0.1186339E+00
        -11   -1    0    0    0    0  0.00000000000E+00  0.00000000000E+00  0.45593999997E+02  0.45594000000E+02  0.51100000000E-03 0. -1.
         11   -1    0    0    0    0 -0.00000000000E+00 -0.00000000000E+00 -0.45593999997E+02  0.45594000000E+02  0.51100000000E-03 0.  1.
    9900012    2    1    2    0    0  0.61505153334E+00  0.41126042425E+00  0.91983256949E+00  0.90007527433E+02  0.89999785995E+02 0.  0.
        -12    1    1    2    0    0 -0.61505153334E+00 -0.41126042425E+00 -0.91983256949E+00  0.11804725669E+01  0.00000000000E+00 0.  1.
         11    1    3    3    0    0 -0.25733383327E+01  0.38857266557E+00 -0.89661381493E+01  0.93362033217E+01  0.51100000000E-03 0. -1.
        -11    1    3    3    0    0 -0.27187926405E+02  0.21686594801E+02  0.22343147738E+02  0.41336521229E+02  0.51100000000E-03 0.  1.
         12    1    3    3    0    0  0.30376316271E+02 -0.21663907042E+02 -0.12457177019E+02  0.39334802882E+02  0.00000000000E+00 0. -1.
</event>
<event>
 7    1  0.1756449E-015  0.9000768E+02  0.7816164E-02  0.1186339E+00
        -11   -1    0    0    0    0  0.00000000000E+00  0.00000000000E+00  0.45593999997E+02  0.45594000000E+02  0.51100000000E-03 0. -1.
         11   -1    0    0    0    0 -0.00000000000E+00 -0.00000000000E+00 -0.45593999997E+02  0.45594000000E+02  0.51100000000E-03 0.  1.
    9900012    2    1    2    0    0  0.40019358482E+00 -0.31123608823E+00  0.10658970775E+01  0.90007678269E+02  0.89999938822E+02 0.  0.
        -12    1    1    2    0    0 -0.40019358482E+00  0.31123608823E+00 -0.10658970775E+01  0.11803217307E+01  0.00000000000E+00 0.  1.
         11    1    3    3    0    0  0.16400704813E+01  0.14803136389E+01 -0.10801123785E+02  0.11024764620E+02  0.51100000000E-03 0. -1.
        -11    1    3    3    0    0  0.31246542510E+02  0.61218537796E+01 -0.15835938577E+02  0.35561221344E+02  0.51100000000E-03 0.  1.
         12    1    3    3    0    0 -0.32486419407E+02 -0.79134035067E+01  0.27702959440E+02  0.43421692305E+02  0.00000000000E+00 0. -1.
</event>
<event>
 7    1  0.1756449E-015  0.9000769E+02  0.7816164E-02  0.1186339E+00
        -11   -1    0    0    0    0  0.00000000000E+00  0.00000000000E+00  0.45593999997E+02  0.45594000000E+02  0.51100000000E-03 0. -1.
         11   -1    0    0    0    0 -0.00000000000E+00 -0.00000000000E+00 -0.45593999997E+02  0.45594000000E+02  0.51100000000E-03 0.  1.
    9900012    2    1    2    0    0  0.10253284150E+01 -0.40223159099E+00 -0.42431013707E+00  0.90007691691E+02  0.89999952422E+02 0.  0.
        -12    1    1    2    0    0 -0.10253284150E+01  0.40223159099E+00  0.42431013707E+00  0.11803083088E+01  0.00000000000E+00 0.  1.
         11    1    3    3    0    0  0.65487418061E+01  0.44891914107E+01 -0.66512469360E+01  0.10357506690E+02  0.51100000000E-03 0. -1.
        -11    1    3    3    0    0  0.54465809634E+01  0.35921818325E+02 -0.27822665093E+01  0.36438760725E+02  0.51100000000E-03 0.  1.
         12    1    3    3    0    0 -0.10969994354E+02 -0.40813241327E+02  0.90092033082E+01  0.43211424276E+02  0.00000000000E+00 0. -1.
</event>
<event>
 7    1  0.1756449E-015  0.9000765E+02  0.7816164E-02  0.1186339E+00
        -11   -1    0    0    0    0  0.00000000000E+00  0.00000000000E+00  0.45593999997E+02  0.45594000000E+02  0.51100000000E-03 0.  1.
         11   -1    0    0    0    0 -0.00000000000E+00 -0.00000000000E+00 -0.45593999997E+02  0.45594000000E+02  0.51100000000E-03 0. -1.
    9900012    2    1    2    0    0 -0.11115098410E+01 -0.14347462353E+00 -0.37039427775E+00  0.90007647927E+02  0.89999908080E+02 0.  0.
        -12    1    1    2    0    0  0.11115098410E+01  0.14347462353E+00  0.37039427775E+00  0.11803520726E+01  0.00000000000E+00 0.  1.
         11    1    3    3    0    0  0.54582934071E+00  0.25403651287E+02 -0.22005183404E+02  0.33613561627E+02  0.51100000000E-03 0. -1.
        -11    1    3    3    0    0  0.11790590032E+02  0.48399121659E+01  0.19239404461E+02  0.23078072870E+02  0.51100000000E-03 0.  1.
         12    1    3    3    0    0 -0.13447929214E+02 -0.30387038076E+02  0.23953846645E+01  0.33316013430E+02  0.00000000000E+00 0. -1.
</event>
<event>
 7    1  0.1756449E-015  0.9000814E+02  0.7816164E-02  0.1186338E+00
        -11   -1    0    0    0    0  0.00000000000E+00  0.00000000000E+00  0.45593999997E+02  0.45594000000E+02  0.51100000000E-03 0. -1.
         11   -1    0    0    0    0 -0.00000000000E+00 -0.00000000000E+00 -0.45593999997E+02  0.45594000000E+02  0.51100000000E-03 0.  1.
    9900012    2    1    2    0    0  0.44192394722E+00 -0.10575037624E+01 -0.28011344008E+00  0.90008137923E+02  0.90000404542E+02 0.  0.
        -12    1    1    2    0    0 -0.44192394722E+00  0.10575037624E+01  0.28011344008E+00  0.11798620775E+01  0.00000000000E+00 0.  1.
         11    1    3    3    0    0  0.12740385789E+02 -0.71596821421E+01  0.78472462146E+00  0.14635377393E+02  0.51100000000E-03 0. -1.
        -11    1    3    3    0    0  0.11293409812E+02  0.24602353827E+01 -0.33306983033E+02  0.35255481593E+02  0.51100000000E-03 0.  1.
         12    1    3    3    0    0 -0.23591871654E+02  0.36419429970E+01  0.32242144972E+02  0.40117278937E+02  0.00000000000E+00 0. -1.
</event>
<event>
 7    1  0.1756449E-015  0.9000773E+02  0.7816164E-02  0.1186339E+00
        -11   -1    0    0    0    0  0.00000000000E+00  0.00000000000E+00  0.45593999997E+02  0.45594000000E+02  0.51100000000E-03 0.  1.
         11   -1    0    0    0    0 -0.00000000000E+00 -0.00000000000E+00 -0.45593999997E+02  0.45594000000E+02  0.51100000000E-03 0. -1.
    9900012    2    1    2    0    0 -0.11421284499E+01 -0.18851915130E-01 -0.29702015916E+00  0.90007731486E+02  0.89999992741E+02 0.  0.
        -12    1    1    2    0    0  0.11421284499E+01  0.18851915130E-01  0.29702015916E+00  0.11802685142E+01  0.00000000000E+00 0.  1.
         11    1    3    3    0    0  0.34509795078E+01  0.73894667862E+01  0.27948405632E+01  0.86211723671E+01  0.51100000000E-03 0. -1.
        -11    1    3    3    0    0  0.21617266590E+02  0.11930269129E+02  0.27319684945E+02  0.36823942240E+02  0.51100000000E-03 0.  1.
         12    1    3    3    0    0 -0.26210374547E+02 -0.19338587831E+02 -0.30411545668E+02  0.44562616879E+02  0.00000000000E+00 0. -1.
</event>
<event>
 7    1  0.1756449E-015  0.9000766E+02  0.7816164E-02  0.1186339E+00
        -11   -1    0    0    0    0  0.00000000000E+00  0.00000000000E+00  0.45593999997E+02  0.45594000000E+02  0.51100000000E-03 0.  1.
         11   -1    0    0    0    0 -0.00000000000E+00 -0.00000000000E+00 -0.45593999997E+02  0.45594000000E+02  0.51100000000E-03 0. -1.
    9900012    2    1    2    0    0  0.68529710141E+00 -0.88247610854E+00  0.38052858288E+00  0.90007661827E+02  0.89999922163E+02 0.  0.
        -12    1    1    2    0    0 -0.68529710141E+00  0.88247610854E+00 -0.38052858288E+00  0.11803381726E+01  0.00000000000E+00 0.  1.
         11    1    3    3    0    0  0.56364152655E+01 -0.40947343639E+02  0.57023469080E+01  0.41724943244E+02  0.51100000000E-03 0. -1.
        -11    1    3    3    0    0 -0.26470117919E+01  0.11557708489E+01 -0.86926744982E+01  0.91599709538E+01  0.51100000000E-03 0.  1.
        -12    1    3    3    0    0 -0.23041063722E+01  0.38909096682E+02  0.33708561730E+01  0.39122747630E+02  0.00000000000E+00 0.  1.
</event>
<event>
 7    1  0.1756449E-015  0.9000807E+02  0.7816164E-02  0.1186338E+00
        -11   -1    0    0    0    0  0.00000000000E+00  0.00000000000E+00  0.45593999997E+02  0.45594000000E+02  0.51100000000E-03 0. -1.
         11   -1    0    0    0    0 -0.00000000000E+00 -0.00000000000E+00 -0.45593999997E+02  0.45594000000E+02  0.51100000000E-03 0.  1.
    9900012    2    1    2    0    0 -0.38047585663E+00 -0.58927037556E+00  0.94881013235E+00  0.90008066900E+02  0.90000332583E+02 0.  0.
        -12    1    1    2    0    0  0.38047585663E+00  0.58927037556E+00 -0.94881013235E+00  0.11799330999E+01  0.00000000000E+00 0.  1.
         11    1    3    3    0    0  0.37944215343E+01 -0.99835338934E+01 -0.28384251116E+01  0.11051028964E+02  0.51100000000E-03 0. -1.
        -11    1    3    3    0    0  0.31745274380E+02  0.20668229222E+02  0.13262400707E+02  0.40135139434E+02  0.51100000000E-03 0.  1.
         12    1    3    3    0    0 -0.35920171771E+02 -0.11273965704E+02 -0.94751654632E+01  0.38821898502E+02  0.00000000000E+00 0. -1.
</event>
<event>
 7    1  0.1756449E-015  0.9000789E+02  0.7816164E-02  0.1186339E+00
        -11   -1    0    0    0    0  0.00000000000E+00  0.00000000000E+00  0.45593999997E+02  0.45594000000E+02  0.51100000000E-03 0. -1.
         11   -1    0    0    0    0 -0.00000000000E+00 -0.00000000000E+00 -0.45593999997E+02  0.45594000000E+02  0.51100000000E-03 0.  1.
    9900012    2    1    2    0    0  0.56813776026E+00  0.72672554948E+00  0.73603472730E+00  0.90007890828E+02  0.90000154186E+02 0.  0.
        -12    1    1    2    0    0 -0.56813776026E+00 -0.72672554948E+00 -0.73603472730E+00  0.11801091724E+01  0.00000000000E+00 0.  1.
         11    1    3    3    0    0  0.24687823031E+02  0.11733234968E+02  0.27162556497E+02  0.38535203185E+02  0.51100000000E-03 0. -1.
        -11    1    3    3    0    0  0.88757119178E+01  0.42299880312E+00 -0.81623922011E+01  0.12065729847E+02  0.51100000000E-03 0.  1.
        -12    1    3    3    0    0 -0.32995397189E+02 -0.11429508221E+02 -0.18264129568E+02  0.39406957796E+02  0.00000000000E+00 0.  1.
</event>
<event>
 7    1  0.1756449E-015  0.9000688E+02  0.7816164E-02  0.1186341E+00
        -11   -1    0    0    0    0  0.00000000000E+00  0.00000000000E+00  0.45593999997E+02  0.45594000000E+02  0.51100000000E-03 0.  1.
         11   -1    0    0    0    0 -0.00000000000E+00 -0.00000000000E+00 -0.45593999997E+02  0.45594000000E+02  0.51100000000E-03 0. -1.
    9900012    2    1    2    0    0 -0.84276936232E+00  0.66898443718E+00 -0.48707745492E+00  0.90006879844E+02  0.89999129854E+02 0.  0.
        -12    1    1    2    0    0  0.84276936232E+00 -0.66898443718E+00  0.48707745492E+00  0.11811201558E+01  0.00000000000E+00 0.  1.
         11    1    3    3    0    0 -0.26415060716E+02  0.19078122574E+02 -0.28444212113E+02  0.43252784841E+02  0.51100000000E-03 0. -1.
        -11    1    3    3    0    0  0.36546289509E+01 -0.52079054580E+01 -0.26230154074E+01  0.68817731812E+01  0.51100000000E-03 0.  1.
        -12    1    3    3    0    0  0.21917662403E+02 -0.13201232678E+02  0.30580150065E+02  0.39872321822E+02  0.00000000000E+00 0.  1.
</event>
<event>
 7    1  0.1756449E-015  0.9000740E+02  0.7816164E-02  0.1186340E+00
        -11   -1    0    0    0    0  0.00000000000E+00  0.00000000000E+00  0.45593999997E+02  0.45594000000E+02  0.51100000000E-03 0.  1.
         11   -1    0    0    0    0 -0.00000000000E+00 -0.00000000000E+00 -0.45593999997E+02  0.45594000000E+02  0.51100000000E-03 0. -1.
    9900012    2    1    2    0    0  0.15403427700E+00 -0.19199213872E+00 -0.11546576207E+01  0.90007397713E+02  0.89999654562E+02 0.  0.
        -12    1    1    2    0    0 -0.15403427700E+00  0.19199213872E+00  0.11546576207E+01  0.11806022874E+01  0.00000000000E+00 0.  1.
         11    1    3    3    0    0 -0.54268538704E+01 -0.80768903258E+01  0.26323153996E+01  0.10080475430E+02  0.51100000000E-03 0. -1.
        -11    1    3    3    0    0  0.26518808130E+02  0.27211849551E+01  0.29818307035E+02  0.39997293245E+02  0.51100000000E-03 0.  1.
         12    1    3    3    0    0 -0.20937919983E+02  0.51637132320E+01 -0.33605280055E+02  0.39929629038E+02  0.00000000000E+00 0. -1.
</event>
<event>
 7    1  0.1756449E-015  0.9000731E+02  0.7816164E-02  0.1186340E+00
        -11   -1    0    0    0    0  0.00000000000E+00  0.00000000000E+00  0.45593999997E+02  0.45594000000E+02  0.51100000000E-03 0.  1.
         11   -1    0    0    0    0 -0.00000000000E+00 -0.00000000000E+00 -0.45593999997E+02  0.45594000000E+02  0.51100000000E-03 0. -1.
    9900012    2    1    2    0    0  0.38977223024E-01 -0.97443395520E+00 -0.66557837539E+00  0.90007307267E+02  0.89999562921E+02 0.  0.
        -12    1    1    2    0    0 -0.38977223024E-01  0.97443395520E+00  0.66557837539E+00  0.11806927334E+01  0.00000000000E+00 0.  1.
         11    1    3    3    0    0 -0.35693611263E+02  0.35824181416E+00 -0.20227096007E+01  0.35752672300E+02  0.51100000000E-03 0. -1.
        -11    1    3    3    0    0 -0.59469039177E+01 -0.83153472067E+01  0.58127421083E+01  0.11760044067E+02  0.51100000000E-03 0.  1.
        -12    1    3    3    0    0  0.41679492404E+02  0.69826714374E+01 -0.44556108829E+01  0.42494590900E+02  0.00000000000E+00 0.  1.
</event>
<event>
 7    1  0.1756449E-015  0.9000781E+02  0.7816164E-02  0.1186339E+00
        -11   -1    0    0    0    0  0.00000000000E+00  0.00000000000E+00  0.45593999997E+02  0.45594000000E+02  0.51100000000E-03 0.  1.
         11   -1    0    0    0    0 -0.00000000000E+00 -0.00000000000E+00 -0.45593999997E+02  0.45594000000E+02  0.51100000000E-03 0. -1.
    9900012    2    1    2    0    0 -0.16449209703E+00 -0.10314354681E+01  0.54948839770E+00  0.90007807527E+02  0.90000069786E+02 0.  0.
        -12    1    1    2    0    0  0.16449209703E+00  0.10314354681E+01 -0.54948839770E+00  0.11801924733E+01  0.00000000000E+00 0.  1.
         11    1    3    3    0    0 -0.52644832062E+01 -0.11036635520E+02  0.96580331558E+01  0.15582031695E+02  0.51100000000E-03 0. -1.
        -11    1    3    3    0    0 -0.15925298003E+02 -0.14516317257E+02  0.21129806405E+02  0.30179584194E+02  0.51100000000E-03 0.  1.
         12    1    3    3    0    0  0.21025289112E+02  0.24521517309E+02 -0.30238351163E+02  0.44246191638E+02  0.00000000000E+00 0. -1.
</event>
<event>
 7    1  0.1756449E-015  0.9000772E+02  0.7816164E-02  0.1186339E+00
        -11   -1    0    0    0    0  0.00000000000E+00  0.00000000000E+00  0.45593999997E+02  0.45594000000E+02  0.51100000000E-03 0.  1.
         11   -1    0    0    0    0 -0.00000000000E+00 -0.00000000000E+00 -0.45593999997E+02  0.45594000000E+02  0.51100000000E-03 0. -1.
    9900012    2    1    2    0    0 -0.22323178700E+00  0.25639165713E-01 -0.11586921765E+01  0.90007721492E+02  0.89999982615E+02 0.  0.
        -12    1    1    2    0    0  0.22323178700E+00 -0.25639165713E-01  0.11586921765E+01  0.11802785084E+01  0.00000000000E+00 0.  1.
         11    1    3    3    0    0  0.31984889236E+01  0.75659847260E+01 -0.62350363453E+01  0.10312620169E+02  0.51100000000E-03 0. -1.
        -11    1    3    3    0    0  0.26419731896E+02  0.22574268565E+02  0.11945667974E+02  0.36746412319E+02  0.51100000000E-03 0.  1.
         12    1    3    3    0    0 -0.29841452607E+02 -0.30114614125E+02 -0.68693238049E+01  0.42948689003E+02  0.00000000000E+00 0. -1.
</event>
<event>
 7    1  0.1756449E-015  0.9000773E+02  0.7816164E-02  0.1186339E+00
        -11   -1    0    0    0    0  0.00000000000E+00  0.00000000000E+00  0.45593999997E+02  0.45594000000E+02  0.51100000000E-03 0. -1.
         11   -1    0    0    0    0 -0.00000000000E+00 -0.00000000000E+00 -0.45593999997E+02  0.45594000000E+02  0.51100000000E-03 0.  1.
    9900012    2    1    2    0    0  0.73924231380E+00 -0.81308172376E+00  0.43065040044E+00  0.90007728482E+02  0.89999989698E+02 0.  0.
        -12    1    1    2    0    0 -0.73924231380E+00  0.81308172376E+00 -0.43065040044E+00  0.11802715177E+01  0.00000000000E+00 0.  1.
         11    1    3    3    0    0  0.15911992208E+01  0.85269481560E+01  0.53239872625E+00  0.86904665283E+01  0.51100000000E-03 0. -1.
        -11    1    3    3    0    0 -0.32298101482E+02  0.22425692730E+00  0.24268088975E+02  0.40399972689E+02  0.51100000000E-03 0.  1.
         12    1    3    3    0    0  0.31446144575E+02 -0.95642868070E+01 -0.24369837300E+02  0.40917289265E+02  0.00000000000E+00 0. -1.
</event>
<event>
 7    1  0.1756449E-015  0.9000794E+02  0.7816164E-02  0.1186339E+00
        -11   -1    0    0    0    0  0.00000000000E+00  0.00000000000E+00  0.45593999997E+02  0.45594000000E+02  0.51100000000E-03 0. -1.
         11   -1    0    0    0    0 -0.00000000000E+00 -0.00000000000E+00 -0.45593999997E+02  0.45594000000E+02  0.51100000000E-03 0.  1.
    9900012    2    1    2    0    0 -0.10281587392E+01  0.15975085661E+00 -0.55669828096E+00  0.90007939110E+02  0.90000203106E+02 0.  0.
        -12    1    1    2    0    0  0.10281587392E+01 -0.15975085661E+00  0.55669828096E+00  0.11800608905E+01  0.00000000000E+00 0.  1.
         11    1    3    3    0    0 -0.30048403549E+02  0.22578456344E+02  0.57895726633E+01  0.38029099366E+02  0.51100000000E-03 0. -1.
        -11    1    3    3    0    0  0.34019860528E+01  0.91007914349E+01  0.32467038227E+01  0.10243973829E+02  0.51100000000E-03 0.  1.
        -12    1    3    3    0    0  0.25618258757E+02 -0.31519496922E+02 -0.95929747670E+01  0.41734865914E+02  0.00000000000E+00 0.  1.
</event>
<event>
 7    1  0.1756449E-015  0.9000784E+02  0.7816164E-02  0.1186339E+00
        -11   -1    0    0    0    0  0.00000000000E+00  0.00000000000E+00  0.45593999997E+02  0.45594000000E+02  0.51100000000E-03 0. -1.
         11   -1    0    0    0    0 -0.00000000000E+00 -0.00000000000E+00 -0.45593999997E+02  0.45594000000E+02  0.51100000000E-03 0.  1.
    9900012    2    1    2    0    0  0.66663112002E+00  0.67576714895E+00  0.70123347960E+00  0.90007836163E+02  0.90000098800E+02 0.  0.
        -12    1    1    2    0    0 -0.66663112002E+00 -0.67576714895E+00 -0.70123347960E+00  0.11801638372E+01  0.00000000000E+00 0.  1.
         11    1    3    3    0    0 -0.60665011447E+01 -0.49838217878E+01 -0.36987805757E+01  0.86788186845E+01  0.51100000000E-03 0. -1.
        -11    1    3    3    0    0  0.41088227038E+02  0.60042122837E+00 -0.12164045068E+02  0.42855185210E+02  0.51100000000E-03 0.  1.
         12    1    3    3    0    0 -0.34355094773E+02  0.50591677083E+01  0.16564059123E+02  0.38473832268E+02  0.00000000000E+00 0. -1.
</event>
<event>
 7    1  0.1756449E-015  0.9000788E+02  0.7816164E-02  0.1186339E+00
        -11   -1    0    0    0    0  0.00000000000E+00  0.00000000000E+00  0.45593999997E+02  0.45594000000E+02  0.51100000000E-03 0.  1.
         11   -1    0    0    0    0 -0.00000000000E+00 -0.00000000000E+00 -0.45593999997E+02  0.45594000000E+02  0.51100000000E-03 0. -1.
    9900012    2    1    2    0    0 -0.34134737985E+00  0.90517488085E+00  0.67588567282E+00  0.90007880921E+02  0.90000144149E+02 0.  0.
        -12    1    1    2    0    0  0.34134737985E+00 -0.90517488085E+00 -0.67588567282E+00  0.11801190793E+01  0.00000000000E+00 0.  1.
         11    1    3    3    0    0  0.26480306915E+02 -0.11253119448E+02 -0.22086039112E+02  0.36271648371E+02  0.51100000000E-03 0. -1.
        -11    1    3    3    0    0  0.36628524935E+01  0.34375671046E+01 -0.80727531259E+01  0.95080334076E+01  0.51100000000E-03 0.  1.
        -12    1    3    3    0    0 -0.30484506788E+02  0.87207272244E+01  0.30834677911E+02  0.44228199142E+02  0.00000000000E+00 0.  1.
</event>
<event>
 7    1  0.1756449E-015  0.9000746E+02  0.7816164E-02  0.1186340E+00
        -11   -1    0    0    0    0  0.00000000000E+00  0.00000000000E+00  0.45593999997E+02  0.45594000000E+02  0.51100000000E-03 0.  1.
         11   -1    0    0    0    0 -0.00000000000E+00 -0.00000000000E+00 -0.45593999997E+02  0.45594000000E+02  0.51100000000E-03 0. -1.
    9900012    2    1    2    0    0  0.10401873668E+01  0.31414980555E+00 -0.46151669621E+00  0.90007458802E+02  0.89999716458E+02 0.  0.
        -12    1    1    2    0    0 -0.10401873668E+01 -0.31414980555E+00  0.46151669621E+00  0.11805411976E+01  0.00000000000E+00 0.  1.
         11    1    3    3    0    0 -0.60807262744E+01  0.72847557680E+01 -0.14200032618E+02  0.17078753621E+02  0.51100000000E-03 0. -1.
        -11    1    3    3    0    0 -0.22729788911E+02  0.19772958737E+02 -0.12159691073E+01  0.30151148938E+02  0.51100000000E-03 0.  1.
        -12    1    3    3    0    0  0.29850702552E+02 -0.26743564700E+02  0.14954485029E+02  0.42777556244E+02  0.00000000000E+00 0.  1.
</event>
<event>
 7    1  0.1756449E-015  0.9000784E+02  0.7816164E-02  0.1186339E+00
        -11   -1    0    0    0    0  0.00000000000E+00  0.00000000000E+00  0.45593999997E+02  0.45594000000E+02  0.51100000000E-03 0.  1.
         11   -1    0    0    0    0 -0.00000000000E+00 -0.00000000000E+00 -0.45593999997E+02  0.45594000000E+02  0.51100000000E-03 0. -1.
    9900012    2    1    2    0    0 -0.25822180665E+00 -0.78605252856E+00 -0.84155279674E+00  0.90007843998E+02  0.90000106739E+02 0.  0.
        -12    1    1    2    0    0  0.25822180665E+00  0.78605252856E+00  0.84155279674E+00  0.11801560019E+01  0.00000000000E+00 0.  1.
         11    1    3    3    0    0 -0.34432247660E+00 -0.10606082616E+02 -0.20579877574E+01  0.10809387600E+02  0.51100000000E-03 0. -1.
        -11    1    3    3    0    0 -0.26648056796E+02 -0.20823009465E+02  0.13953770491E+02  0.36584482576E+02  0.51100000000E-03 0.  1.
         12    1    3    3    0    0  0.26734157466E+02  0.30643039553E+02 -0.12737335531E+02  0.42613973822E+02  0.00000000000E+00 0. -1.
</event>
<event>
 7    1  0.1756449E-015  0.9000773E+02  0.7816164E-02  0.1186339E+00
        -11   -1    0    0    0    0  0.00000000000E+00  0.00000000000E+00  0.45593999997E+02  0.45594000000E+02  0.51100000000E-03 0.  1.
         11   -1    0    0    0    0 -0.00000000000E+00 -0.00000000000E+00 -0.45593999997E+02  0.45594000000E+02  0.51100000000E-03 0. -1.
    9900012    2    1    2    0    0 -0.80278373647E+00  0.25187580908E+00 -0.82772928393E+00  0.90007729303E+02  0.89999990530E+02 0.  0.
        -12    1    1    2    0    0  0.80278373647E+00 -0.25187580908E+00  0.82772928393E+00  0.11802706970E+01  0.00000000000E+00 0.  1.
         11    1    3    3    0    0  0.24696413147E+02 -0.58296017674E+01 -0.30636935973E+02  0.39780886430E+02  0.51100000000E-03 0. -1.
        -11    1    3    3    0    0 -0.60307126205E+01 -0.62345978588E+01 -0.38083930990E+01  0.94733079455E+01  0.51100000000E-03 0.  1.
        -12    1    3    3    0    0 -0.19468484263E+02  0.12316075435E+02  0.33617599788E+02  0.40753534928E+02  0.00000000000E+00 0.  1.
</event>
<event>
 7    1  0.1756449E-015  0.9000770E+02  0.7816164E-02  0.1186339E+00
        -11   -1    0    0    0    0  0.00000000000E+00  0.00000000000E+00  0.45593999997E+02  0.45594000000E+02  0.51100000000E-03 0.  1.
         11   -1    0    0    0    0 -0.00000000000E+00 -0.00000000000E+00 -0.45593999997E+02  0.45594000000E+02  0.51100000000E-03 0. -1.
    9900012    2    1    2    0    0 -0.70118515563E+00 -0.94941675222E+00  0.80399464621E-02  0.90007696042E+02  0.89999956830E+02 0.  0.
        -12    1    1    2    0    0  0.70118515563E+00  0.94941675222E+00 -0.80399464621E-02  0.11803039577E+01  0.00000000000E+00 0.  1.
         11    1    3    3    0    0 -0.60514333284E+01 -0.74465100064E+01  0.71324394934E+00  0.96218020036E+01  0.51100000000E-03 0. -1.
        -11    1    3    3    0    0 -0.27931074459E+02 -0.18476021820E+02 -0.14579271057E+02  0.36524833299E+02  0.51100000000E-03 0.  1.
         12    1    3    3    0    0  0.33281322631E+02  0.24973115074E+02  0.13874067054E+02  0.43861060740E+02  0.00000000000E+00 0. -1.
</event>
<event>
 7    1  0.1756449E-015  0.9000779E+02  0.7816164E-02  0.1186339E+00
        -11   -1    0    0    0    0  0.00000000000E+00  0.00000000000E+00  0.45593999997E+02  0.45594000000E+02  0.51100000000E-03 0. -1.
         11   -1    0    0    0    0 -0.00000000000E+00 -0.00000000000E+00 -0.45593999997E+02  0.45594000000E+02  0.51100000000E-03 0.  1.
    9900012    2    1    2    0    0  0.11789966379E+01  0.53374349264E-01 -0.35125957347E-02  0.90007790598E+02  0.90000052634E+02 0.  0.
        -12    1    1    2    0    0 -0.11789966379E+01 -0.53374349264E-01  0.35125957347E-02  0.11802094017E+01  0.00000000000E+00 0.  1.
         11    1    3    3    0    0 -0.56495952875E+00  0.10051540751E+02 -0.79328776236E+01  0.12817300745E+02  0.51100000000E-03 0. -1.
        -11    1    3    3    0    0 -0.57567198165E+01 -0.81484806042E+01 -0.33547860094E+02  0.34999949663E+02  0.51100000000E-03 0.  1.
         12    1    3    3    0    0  0.75006759832E+01 -0.18496857973E+01  0.41477225122E+02  0.42190540191E+02  0.00000000000E+00 0. -1.
</event>
<event>
 7    1  0.1756449E-015  0.9000757E+02  0.7816164E-02  0.1186339E+00
        -11   -1    0    0    0    0  0.00000000000E+00  0.00000000000E+00  0.45593999997E+02  0.45594000000E+02  0.51100000000E-03 0. -1.
         11   -1    0    0    0    0 -0.00000000000E+00 -0.00000000000E+00 -0.45593999997E+02  0.45594000000E+02  0.51100000000E-03 0.  1.
    9900012    2    1    2    0    0  0.99943382187E+00 -0.44538576074E+00  0.44293154614E+00  0.90007565845E+02  0.89999824914E+02 0.  0.
        -12    1    1    2    0    0 -0.99943382187E+00  0.44538576074E+00 -0.44293154614E+00  0.11804341552E+01  0.00000000000E+00 0.  1.
         11    1    3    3    0    0 -0.13003111483E+02  0.39848292932E+02  0.15684135001E+01  0.41945527521E+02  0.51100000000E-03 0. -1.
        -11    1    3    3    0    0  0.55384530908E+01 -0.39696943087E+01 -0.75996312028E+01  0.10207219515E+02  0.51100000000E-03 0.  1.
        -12    1    3    3    0    0  0.84640922138E+01 -0.36323984384E+02  0.64741492488E+01  0.37854818809E+02  0.00000000000E+00 0.  1.
</event>
<event>
 7    1  0.1756449E-015  0.9000775E+02  0.7816164E-02  0.1186339E+00
        -11   -1    0    0    0    0  0.00000000000E+00  0.00000000000E+00  0.45593999997E+02  0.45594000000E+02  0.51100000000E-03 0.  1.
         11   -1    0    0    0    0 -0.00000000000E+00 -0.00000000000E+00 -0.45593999997E+02  0.45594000000E+02  0.51100000000E-03 0. -1.
    9900012    2    1    2    0    0 -0.97716484122E+00 -0.28038358592E+00 -0.59960677946E+00  0.90007748174E+02  0.90000009650E+02 0.  0.
        -12    1    1    2    0    0  0.97716484122E+00  0.28038358592E+00  0.59960677946E+00  0.11802518257E+01  0.00000000000E+00 0.  1.
         11    1    3    3    0    0  0.37176270070E+02 -0.37472164050E+01 -0.23596508377E+02  0.44191762750E+02  0.51100000000E-03 0. -1.
        -11    1    3    3    0    0 -0.63623222554E+01  0.37566190995E+01  0.17985386078E+01  0.76043456605E+01  0.51100000000E-03 0.  1.
        -12    1    3    3    0    0 -0.31791112656E+02 -0.28978628043E+00  0.21198362990E+02  0.38211639764E+02  0.00000000000E+00 0.  1.
</event>
<event>
 7    1  0.1756449E-015  0.9000801E+02  0.7816164E-02  0.1186339E+00
        -11   -1    0    0    0    0  0.00000000000E+00  0.00000000000E+00  0.45593999997E+02  0.45594000000E+02  0.51100000000E-03 0. -1.
         11   -1    0    0    0    0 -0.00000000000E+00 -0.00000000000E+00 -0.45593999997E+02  0.45594000000E+02  0.51100000000E-03 0.  1.
    9900012    2    1    2    0    0  0.79266678456E+00  0.87397808947E+00 -0.14992522097E-01  0.90008007158E+02  0.90000272052E+02 0.  0.
        -12    1    1    2    0    0 -0.79266678456E+00 -0.87397808947E+00  0.14992522097E-01  0.11799928423E+01  0.00000000000E+00 0.  1.
         11    1    3    3    0    0  0.13106721216E+02  0.34140945104E+02 -0.14949337073E-01  0.36570349976E+02  0.51100000000E-03 0. -1.
        -11    1    3    3    0    0  0.22720743568E+01  0.63151281775E+01  0.80621432538E+01  0.10490058145E+02  0.51100000000E-03 0.  1.
        -12    1    3    3    0    0 -0.14586128789E+02 -0.39582095192E+02 -0.80621864388E+01  0.42947599036E+02  0.00000000000E+00 0.  1.
</event>
<event>
 7    1  0.1756449E-015  0.9000772E+02  0.7816164E-02  0.1186339E+00
        -11   -1    0    0    0    0  0.00000000000E+00  0.00000000000E+00  0.45593999997E+02  0.45594000000E+02  0.51100000000E-03 0.  1.
         11   -1    0    0    0    0 -0.00000000000E+00 -0.00000000000E+00 -0.45593999997E+02  0.45594000000E+02  0.51100000000E-03 0. -1.
    9900012    2    1    2    0    0 -0.74410037536E+00 -0.88979509587E+00  0.21826345609E+00  0.90007720534E+02  0.89999981645E+02 0.  0.
        -12    1    1    2    0    0  0.74410037536E+00  0.88979509587E+00 -0.21826345609E+00  0.11802794658E+01  0.00000000000E+00 0.  1.
         11    1    3    3    0    0  0.54156134218E+01  0.32818736024E+01 -0.53444164760E+01  0.82862748450E+01  0.51100000000E-03 0. -1.
        -11    1    3    3    0    0 -0.33215612413E+02  0.99593890429E+01  0.27395932337E+02  0.44192798587E+02  0.51100000000E-03 0.  1.
         12    1    3    3    0    0  0.27055898615E+02 -0.14131057741E+02 -0.21833252405E+02  0.37528647103E+02  0.00000000000E+00 0. -1.
</event>
<event>
 7    1  0.1756449E-015  0.9000788E+02  0.7816164E-02  0.1186339E+00
        -11   -1    0    0    0    0  0.00000000000E+00  0.00000000000E+00  0.45593999997E+02  0.45594000000E+02  0.51100000000E-03 0. -1.
         11   -1    0    0    0    0 -0.00000000000E+00 -0.00000000000E+00 -0.45593999997E+02  0.45594000000E+02  0.51100000000E-03 0.  1.
    9900012    2    1    2    0    0  0.70546535813E+00 -0.94182034841E+00 -0.89246217759E-01  0.90007884824E+02  0.90000148104E+02 0.  0.
        -12    1    1    2    0    0 -0.70546535813E+00  0.94182034841E+00  0.89246217759E-01  0.11801151756E+01  0.00000000000E+00 0.  1.
         11    1    3    3    0    0 -0.32830926987E+01  0.17145156333E+01  0.66979658177E+01  0.76538230892E+01  0.51100000000E-03 0. -1.
        -11    1    3    3    0    0  0.91669876365E+01  0.29384412905E+02 -0.29582828886E+02  0.42692167306E+02  0.51100000000E-03 0.  1.
         12    1    3    3    0    0 -0.51784295797E+01 -0.32040748887E+02  0.22795616850E+02  0.39661894430E+02  0.00000000000E+00 0. -1.
</event>
<event>
 7    1  0.1756449E-015  0.9000768E+02  0.7816164E-02  0.1186339E+00
        -11   -1    0    0    0    0  0.00000000000E+00  0.00000000000E+00  0.45593999997E+02  0.45594000000E+02  0.51100000000E-03 0.  1.
         11   -1    0    0    0    0 -0.00000000000E+00 -0.00000000000E+00 -0.45593999997E+02  0.45594000000E+02  0.51100000000E-03 0. -1.
    9900012    2    1    2    0    0  0.11022787584E+01  0.82019462703E-01 -0.41402400864E+00  0.90007677361E+02  0.89999937902E+02 0.  0.
        -12    1    1    2    0    0 -0.11022787584E+01 -0.82019462703E-01  0.41402400864E+00  0.11803226394E+01  0.00000000000E+00 0.  1.
         11    1    3    3    0    0  0.24816074800E+01  0.30369570823E+02  0.33045028630E+01  0.30649452640E+02  0.51100000000E-03 0. -1.
        -11    1    3    3    0    0 -0.13076329503E+01  0.14288175000E+01  0.19786708143E+02  0.19881278701E+02  0.51100000000E-03 0.  1.
        -12    1    3    3    0    0 -0.71695771340E-01 -0.31716368861E+02 -0.23505235015E+02  0.39476946020E+02  0.00000000000E+00 0.  1.
</event>
<event>
 7    1  0.1756449E-015  0.9000773E+02  0.7816164E-02  0.1186339E+00
        -11   -1    0    0    0    0  0.00000000000E+00  0.00000000000E+00  0.45593999997E+02  0.45594000000E+02  0.51100000000E-03 0.  1.
         11   -1    0    0    0    0 -0.00000000000E+00 -0.00000000000E+00 -0.45593999997E+02  0.45594000000E+02  0.51100000000E-03 0. -1.
    9900012    2    1    2    0    0  0.82036427556E+00  0.12775341040E+00  0.83887650969E+00  0.90007732116E+02  0.89999993380E+02 0.  0.
        -12    1    1    2    0    0 -0.82036427556E+00 -0.12775341040E+00 -0.83887650969E+00  0.11802678836E+01  0.00000000000E+00 0.  1.
         11    1    3    3    0    0  0.33876469256E+01 -0.49813532163E+01 -0.15270301751E+02  0.16415606823E+02  0.51100000000E-03 0. -1.
        -11    1    3    3    0    0 -0.16872843018E+02 -0.20047499789E+02 -0.15733385649E+02  0.30563614046E+02  0.51100000000E-03 0.  1.
         12    1    3    3    0    0  0.14305560368E+02  0.25156606416E+02  0.31842563910E+02  0.43028511247E+02  0.00000000000E+00 0. -1.
</event>
<event>
 7    1  0.1756449E-015  0.9000894E+02  0.7816164E-02  0.1186337E+00
        -11   -1    0    0    0    0  0.00000000000E+00  0.00000000000E+00  0.45593999997E+02  0.45594000000E+02  0.51100000000E-03 0. -1.
         11   -1    0    0    0    0 -0.00000000000E+00 -0.00000000000E+00 -0.45593999997E+02  0.45594000000E+02  0.51100000000E-03 0.  1.
    9900012    2    1    2    0    0  0.14171188257E+00  0.11634796772E+01  0.12812682141E+00  0.90008939484E+02  0.90001216677E+02 0.  0.
        -12    1    1    2    0    0 -0.14171188257E+00 -0.11634796772E+01 -0.12812682141E+00  0.11790605155E+01  0.00000000000E+00 0.  1.
         11    1    3    3    0    0 -0.26869389281E+02 -0.19989554072E+02  0.25937770229E+02  0.42359346986E+02  0.51100000000E-03 0. -1.
        -11    1    3    3    0    0  0.15026146705E+01 -0.14205193052E+01 -0.97939326261E+01  0.10009837286E+02  0.51100000000E-03 0.  1.
        -12    1    3    3    0    0  0.25508486493E+02  0.22573553054E+02 -0.16015710782E+02  0.37639755213E+02  0.00000000000E+00 0.  1.
</event>
<event>
 7    1  0.1756449E-015  0.9000789E+02  0.7816164E-02  0.1186339E+00
        -11   -1    0    0    0    0  0.00000000000E+00  0.00000000000E+00  0.45593999997E+02  0.45594000000E+02  0.51100000000E-03 0.  1.
         11   -1    0    0    0    0 -0.00000000000E+00 -0.00000000000E+00 -0.45593999997E+02  0.45594000000E+02  0.51100000000E-03 0. -1.
    9900012    2    1    2    0    0 -0.29867163150E+00  0.11345325329E+01 -0.12759858782E+00  0.90007893983E+02  0.90000157383E+02 0.  0.
        -12    1    1    2    0    0  0.29867163150E+00 -0.11345325329E+01  0.12759858782E+00  0.11801060170E+01  0.00000000000E+00 0.  1.
         11    1    3    3    0    0 -0.13629212854E+02  0.40145986628E+02  0.14194283187E+01  0.42420165751E+02  0.51100000000E-03 0. -1.
        -11    1    3    3    0    0  0.92297265694E+01 -0.15042063540E+01 -0.30233986599E+01  0.98280938650E+01  0.51100000000E-03 0.  1.
        -12    1    3    3    0    0  0.41008146532E+01 -0.37507247741E+02  0.14763717534E+01  0.37759634367E+02  0.00000000000E+00 0.  1.
</event>
<event>
 7    1  0.1756449E-015  0.9000779E+02  0.7816164E-02  0.1186339E+00
        -11   -1    0    0    0    0  0.00000000000E+00  0.00000000000E+00  0.45593999997E+02  0.45594000000E+02  0.51100000000E-03 0. -1.
         11   -1    0    0    0    0 -0.00000000000E+00 -0.00000000000E+00 -0.45593999997E+02  0.45594000000E+02  0.51100000000E-03 0.  1.
    9900012    2    1    2    0    0  0.54408378341E+00  0.43537218534E-01  0.10464133053E+01  0.90007786689E+02  0.90000048674E+02 0.  0.
        -12    1    1    2    0    0 -0.54408378341E+00 -0.43537218534E-01 -0.10464133053E+01  0.11802133105E+01  0.00000000000E+00 0.  1.
         11    1    3    3    0    0 -0.54050611550E+01  0.48644007902E+00 -0.93158691777E+01  0.10781313873E+02  0.51100000000E-03 0. -1.
        -11    1    3    3    0    0 -0.12885048307E+02 -0.19968171563E+02 -0.25107959377E+02  0.34571114674E+02  0.51100000000E-03 0.  1.
         12    1    3    3    0    0  0.18834193246E+02  0.19525268703E+02  0.35470241860E+02  0.44655358142E+02  0.00000000000E+00 0. -1.
</event>
<event>
 7    1  0.1756449E-015  0.9000786E+02  0.7816164E-02  0.1186339E+00
        -11   -1    0    0    0    0  0.00000000000E+00  0.00000000000E+00  0.45593999997E+02  0.45594000000E+02  0.51100000000E-03 0. -1.
         11   -1    0    0    0    0 -0.00000000000E+00 -0.00000000000E+00 -0.45593999997E+02  0.45594000000E+02  0.51100000000E-03 0.  1.
    9900012    2    1    2    0    0 -0.82378235562E+00 -0.10967194809E+00  0.83790973482E+00  0.90007856776E+02  0.90000119685E+02 0.  0.
        -12    1    1    2    0    0  0.82378235562E+00  0.10967194809E+00 -0.83790973482E+00  0.11801432241E+01  0.00000000000E+00 0.  1.
         11    1    3    3    0    0  0.52469755304E+01 -0.93242296855E+01  0.80219010468E+00  0.10729190122E+02  0.51100000000E-03 0. -1.
        -11    1    3    3    0    0 -0.22473376136E+02 -0.13942692347E+02  0.28641754596E+02  0.38984630452E+02  0.51100000000E-03 0.  1.
         12    1    3    3    0    0  0.16402618250E+02  0.23157250085E+02 -0.28606034966E+02  0.40294036202E+02  0.00000000000E+00 0. -1.
</event>
<event>
 7    1  0.1756449E-015  0.9000773E+02  0.7816164E-02  0.1186339E+00
        -11   -1    0    0    0    0  0.00000000000E+00  0.00000000000E+00  0.45593999997E+02  0.45594000000E+02  0.51100000000E-03 0.  1.
         11   -1    0    0    0    0 -0.00000000000E+00 -0.00000000000E+00 -0.45593999997E+02  0.45594000000E+02  0.51100000000E-03 0. -1.
    9900012    2    1    2    0    0 -0.54599389396E+00  0.14190075913E+00 -0.10367164626E+01  0.90007734699E+02  0.89999995997E+02 0.  0.
        -12    1    1    2    0    0  0.54599389396E+00 -0.14190075913E+00  0.10367164626E+01  0.11802653014E+01  0.00000000000E+00 0.  1.
         11    1    3    3    0    0  0.21549246129E+02  0.33754097720E+02 -0.71804152041E+01  0.40684978609E+02  0.51100000000E-03 0. -1.
        -11    1    3    3    0    0 -0.37738526062E+01 -0.44251368953E+01 -0.97659693874E+01  0.11366527982E+02  0.51100000000E-03 0.  1.
        -12    1    3    3    0    0 -0.18321387417E+02 -0.29187060066E+02  0.15909668129E+02  0.37956228107E+02  0.00000000000E+00 0.  1.
</event>
<event>
 7    1  0.1756449E-015  0.9000781E+02  0.7816164E-02  0.1186339E+00
        -11   -1    0    0    0    0  0.00000000000E+00  0.00000000000E+00  0.45593999997E+02  0.45594000000E+02  0.51100000000E-03 0.  1.
         11   -1    0    0    0    0 -0.00000000000E+00 -0.00000000000E+00 -0.45593999997E+02  0.45594000000E+02  0.51100000000E-03 0. -1.
    9900012    2    1    2    0    0  0.11026282236E+01  0.34873977385E+00  0.23547806157E+00  0.90007805801E+02  0.90000068038E+02 0.  0.
        -12    1    1    2    0    0 -0.11026282236E+01 -0.34873977385E+00 -0.23547806157E+00  0.11801941988E+01  0.00000000000E+00 0.  1.
         11    1    3    3    0    0 -0.25697649489E+02  0.25502040948E+02 -0.11689095843E+02  0.38044161756E+02  0.51100000000E-03 0. -1.
        -11    1    3    3    0    0 -0.82022590633E+00  0.76460627925E+01  0.21256968283E+01  0.79783227581E+01  0.51100000000E-03 0.  1.
        -12    1    3    3    0    0  0.27620503619E+02 -0.32799363967E+02  0.97988770759E+01  0.43985321288E+02  0.00000000000E+00 0.  1.
</event>
<event>
 7    1  0.1756449E-015  0.9000774E+02  0.7816164E-02  0.1186339E+00
        -11   -1    0    0    0    0  0.00000000000E+00  0.00000000000E+00  0.45593999997E+02  0.45594000000E+02  0.51100000000E-03 0.  1.
         11   -1    0    0    0    0 -0.00000000000E+00 -0.00000000000E+00 -0.45593999997E+02  0.45594000000E+02  0.51100000000E-03 0. -1.
    9900012    2    1    2    0    0 -0.21891914744E+00  0.21949722274E-01 -0.11595675625E+01  0.90007743962E+02  0.90000005382E+02 0.  0.
        -12    1    1    2    0    0  0.21891914744E+00 -0.21949722274E-01  0.11595675625E+01  0.11802560381E+01  0.00000000000E+00 0.  1.
         11    1    3    3    0    0 -0.16208434868E+02  0.59841307227E+00 -0.31869789807E+02  0.35759683467E+02  0.51100000000E-03 0. -1.
        -11    1    3    3    0    0 -0.95549248354E+01  0.91034861566E-01 -0.46455107073E+01  0.10624765689E+02  0.51100000000E-03 0.  1.
        -12    1    3    3    0    0  0.25544440556E+02 -0.66749821157E+00  0.35355732952E+02  0.43623294806E+02  0.00000000000E+00 0.  1.
</event>
<event>
 7    1  0.1756449E-015  0.9000775E+02  0.7816164E-02  0.1186339E+00
        -11   -1    0    0    0    0  0.00000000000E+00  0.00000000000E+00  0.45593999997E+02  0.45594000000E+02  0.51100000000E-03 0. -1.
         11   -1    0    0    0    0 -0.00000000000E+00 -0.00000000000E+00 -0.45593999997E+02  0.45594000000E+02  0.51100000000E-03 0.  1.
    9900012    2    1    2    0    0  0.43010188244E+00  0.13120026410E+00 -0.10912344337E+01  0.90007748447E+02  0.90000009927E+02 0.  0.
        -12    1    1    2    0    0 -0.43010188244E+00 -0.13120026410E+00  0.10912344337E+01  0.11802515528E+01  0.00000000000E+00 0.  1.
         11    1    3    3    0    0 -0.14298604105E+02 -0.32367844932E+01 -0.12899499650E+02  0.19527517628E+02  0.51100000000E-03 0. -1.
        -11    1    3    3    0    0  0.10803556931E+02 -0.15051414576E+02 -0.23822165307E+02  0.30178758809E+02  0.51100000000E-03 0.  1.
         12    1    3    3    0    0  0.39251490566E+01  0.18419399334E+02  0.35630430523E+02  0.40301472010E+02  0.00000000000E+00 0. -1.
</event>
<event>
 7    1  0.1756449E-015  0.9000825E+02  0.7816164E-02  0.1186338E+00
        -11   -1    0    0    0    0  0.00000000000E+00  0.00000000000E+00  0.45593999997E+02  0.45594000000E+02  0.51100000000E-03 0.  1.
         11   -1    0    0    0    0 -0.00000000000E+00 -0.00000000000E+00 -0.45593999997E+02  0.45594000000E+02  0.51100000000E-03 0. -1.
    9900012    2    1    2    0    0 -0.64459722735E+00  0.98397341818E+00  0.90033841600E-01  0.90008247752E+02  0.90000515821E+02 0.  0.
        -12    1    1    2    0    0  0.64459722735E+00 -0.98397341818E+00 -0.90033841600E-01  0.11797522476E+01  0.00000000000E+00 0.  1.
         11    1    3    3    0    0  0.45955412057E+00 -0.77933333543E+01  0.37457134018E+01  0.86589609025E+01  0.51100000000E-03 0. -1.
        -11    1    3    3    0    0 -0.14873318824E+02  0.68520690176E+01  0.35879954179E+02  0.39440303939E+02  0.51100000000E-03 0.  1.
         12    1    3    3    0    0  0.13769167476E+02  0.19252377549E+01 -0.39535633739E+02  0.41908982910E+02  0.00000000000E+00 0. -1.
</event>
<event>
 7    1  0.4440658E-015  0.9000774E+02  0.7816164E-02  0.1186339E+00
        -11   -1    0    0    0    0  0.00000000000E+00  0.00000000000E+00  0.45593999997E+02  0.45594000000E+02  0.51100000000E-03 0. -1.
         11   -1    0    0    0    0 -0.00000000000E+00 -0.00000000000E+00 -0.45593999997E+02  0.45594000000E+02  0.51100000000E-03 0.  1.
    9900012    2    1    2    0    0 -0.38890411723E+00 -0.61686066284E+00  0.92803255037E+00  0.90007742442E+02  0.90000003842E+02 0.  0.
        -12    1    1    2    0    0  0.38890411723E+00  0.61686066284E+00 -0.92803255037E+00  0.11802575585E+01  0.00000000000E+00 0.  1.
         11    1    3    3    0    0 -0.66328423433E+01  0.48451066130E+01 -0.50980435265E+01  0.96674559064E+01  0.51100000000E-03 0. -1.
        -11    1    3    3    0    0 -0.12942748542E+02 -0.27192782255E+02 -0.24070476823E+02  0.38553210001E+02  0.51100000000E-03 0.  1.
         12    1    3    3    0    0  0.19186686768E+02  0.21730814979E+02  0.30096552900E+02  0.41787076534E+02  0.00000000000E+00 0. -1.
</event>
<event>
 7    1  0.1756449E-015  0.9000865E+02  0.7816164E-02  0.1186337E+00
        -11   -1    0    0    0    0  0.00000000000E+00  0.00000000000E+00  0.45593999997E+02  0.45594000000E+02  0.51100000000E-03 0.  1.
         11   -1    0    0    0    0 -0.00000000000E+00 -0.00000000000E+00 -0.45593999997E+02  0.45594000000E+02  0.51100000000E-03 0. -1.
    9900012    2    1    2    0    0 -0.29150975950E-01  0.29177362245E+00 -0.11423192936E+01  0.90008646366E+02  0.90000919693E+02 0.  0.
        -12    1    1    2    0    0  0.29150975950E-01 -0.29177362245E+00  0.11423192936E+01  0.11793536342E+01  0.00000000000E+00 0.  1.
         11    1    3    3    0    0  0.25752104636E+02 -0.31348147074E+02  0.87281068343E+00  0.40578800092E+02  0.51100000000E-03 0. -1.
        -11    1    3    3    0    0 -0.10590513081E+02 -0.26254275163E+01  0.36864957276E+01  0.11517034686E+02  0.51100000000E-03 0.  1.
        -12    1    3    3    0    0 -0.15190742531E+02  0.34265348213E+02 -0.57016257046E+01  0.37912811587E+02  0.00000000000E+00 0.  1.
</event>
<event>
 7    1  0.2142731E-015  0.9000772E+02  0.7816164E-02  0.1186339E+00
        -11   -1    0    0    0    0  0.00000000000E+00  0.00000000000E+00  0.45593999997E+02  0.45594000000E+02  0.51100000000E-03 0. -1.
         11   -1    0    0    0    0 -0.00000000000E+00 -0.00000000000E+00 -0.45593999997E+02  0.45594000000E+02  0.51100000000E-03 0.  1.
    9900012    2    1    2    0    0 -0.83802569133E+00  0.10090472631E+00  0.82498523827E+00  0.90007716362E+02  0.89999977418E+02 0.  0.
        -12    1    1    2    0    0  0.83802569133E+00 -0.10090472631E+00 -0.82498523827E+00  0.11802836381E+01  0.00000000000E+00 0.  1.
         11    1    3    3    0    0 -0.69744392786E+01  0.61776439479E+01 -0.13665602565E+01  0.94166647596E+01  0.51100000000E-03 0. -1.
        -11    1    3    3    0    0 -0.35491426565E+02 -0.39994664020E+01 -0.10136173315E+02  0.37126528263E+02  0.51100000000E-03 0.  1.
         12    1    3    3    0    0  0.41627840152E+02 -0.20772728196E+01  0.12327718810E+02  0.43464523340E+02  0.00000000000E+00 0. -1.
</event>
<event>
 7    1  0.1756449E-015  0.9000775E+02  0.7816164E-02  0.1186339E+00
        -11   -1    0    0    0    0  0.00000000000E+00  0.00000000000E+00  0.45593999997E+02  0.45594000000E+02  0.51100000000E-03 0. -1.
         11   -1    0    0    0    0 -0.00000000000E+00 -0.00000000000E+00 -0.45593999997E+02  0.45594000000E+02  0.51100000000E-03 0.  1.
    9900012    2    1    2    0    0 -0.98217398652E-01 -0.10847805810E+01  0.45452269155E+00  0.90007751533E+02  0.90000013053E+02 0.  0.
        -12    1    1    2    0    0  0.98217398652E-01  0.10847805810E+01 -0.45452269155E+00  0.11802484668E+01  0.00000000000E+00 0.  1.
         11    1    3    3    0    0 -0.10471937696E+02  0.73245532040E+01 -0.51002618228E+01  0.13759477813E+02  0.51100000000E-03 0. -1.
        -11    1    3    3    0    0 -0.24023771719E+02 -0.39488387281E+00 -0.21118596327E+02  0.31988945778E+02  0.51100000000E-03 0.  1.
         12    1    3    3    0    0  0.34397492017E+02 -0.80144499122E+01  0.26673380841E+02  0.44259327943E+02  0.00000000000E+00 0. -1.
</event>
<event>
 7    1  0.1756449E-015  0.9000775E+02  0.7816164E-02  0.1186339E+00
        -11   -1    0    0    0    0  0.00000000000E+00  0.00000000000E+00  0.45593999997E+02  0.45594000000E+02  0.51100000000E-03 0.  1.
         11   -1    0    0    0    0 -0.00000000000E+00 -0.00000000000E+00 -0.45593999997E+02  0.45594000000E+02  0.51100000000E-03 0. -1.
    9900012    2    1    2    0    0  0.10062848825E+01  0.56402174534E+00 -0.24949901662E+00  0.90007754452E+02  0.90000016011E+02 0.  0.
        -12    1    1    2    0    0 -0.10062848825E+01 -0.56402174534E+00  0.24949901662E+00  0.11802455478E+01  0.00000000000E+00 0.  1.
         11    1    3    3    0    0  0.18111883085E+02 -0.31033050363E+02 -0.13242876717E+02  0.38294442256E+02  0.51100000000E-03 0. -1.
        -11    1    3    3    0    0  0.58376653477E+01 -0.21634437716E+01  0.86595350763E+01  0.10665194497E+02  0.51100000000E-03 0.  1.
        -12    1    3    3    0    0 -0.22943263550E+02  0.33760515879E+02  0.43338426241E+01  0.41048117699E+02  0.00000000000E+00 0.  1.
</event>
<event>
 7    1  0.1756449E-015  0.9000784E+02  0.7816164E-02  0.1186339E+00
        -11   -1    0    0    0    0  0.00000000000E+00  0.00000000000E+00  0.45593999997E+02  0.45594000000E+02  0.51100000000E-03 0.  1.
         11   -1    0    0    0    0 -0.00000000000E+00 -0.00000000000E+00 -0.45593999997E+02  0.45594000000E+02  0.51100000000E-03 0. -1.
    9900012    2    1    2    0    0 -0.81807460951E+00 -0.63831124948E+00  0.56222571457E+00  0.90007836845E+02  0.90000099491E+02 0.  0.
        -12    1    1    2    0    0  0.81807460951E+00  0.63831124948E+00 -0.56222571457E+00  0.11801631548E+01  0.00000000000E+00 0.  1.
         11    1    3    3    0    0  0.23711128029E+01 -0.40849614241E+01  0.75858409988E+01  0.89361104335E+01  0.51100000000E-03 0. -1.
        -11    1    3    3    0    0  0.26721067029E+01  0.14077905735E+02  0.34740141442E+02  0.37579316276E+02  0.51100000000E-03 0.  1.
         12    1    3    3    0    0 -0.58612941152E+01 -0.10631255560E+02 -0.41763756726E+02  0.43492410135E+02  0.00000000000E+00 0. -1.
</event>
<event>
 7    1  0.1756449E-015  0.9000755E+02  0.7816164E-02  0.1186339E+00
        -11   -1    0    0    0    0  0.00000000000E+00  0.00000000000E+00  0.45593999997E+02  0.45594000000E+02  0.51100000000E-03 0.  1.
         11   -1    0    0    0    0 -0.00000000000E+00 -0.00000000000E+00 -0.45593999997E+02  0.45594000000E+02  0.51100000000E-03 0. -1.
    9900012    2    1    2    0    0 -0.47554727506E+00 -0.10343522903E+01  0.31215060478E+00  0.90007547599E+02  0.89999806427E+02 0.  0.
        -12    1    1    2    0    0  0.47554727506E+00  0.10343522903E+01 -0.31215060478E+00  0.11804524011E+01  0.00000000000E+00 0.  1.
         11    1    3    3    0    0 -0.19737768319E+02  0.22887158513E+02 -0.28160961108E+02  0.41309094081E+02  0.51100000000E-03 0. -1.
        -11    1    3    3    0    0 -0.25169746256E+00 -0.85422253105E+01 -0.25819514649E+01  0.89274542002E+01  0.51100000000E-03 0.  1.
        -12    1    3    3    0    0  0.19513918507E+02 -0.15379285492E+02  0.31055063178E+02  0.39770999318E+02  0.00000000000E+00 0.  1.
</event>
<event>
 7    1  0.1756449E-015  0.9000789E+02  0.7816164E-02  0.1186339E+00
        -11   -1    0    0    0    0  0.00000000000E+00  0.00000000000E+00  0.45593999997E+02  0.45594000000E+02  0.51100000000E-03 0. -1.
         11   -1    0    0    0    0 -0.00000000000E+00 -0.00000000000E+00 -0.45593999997E+02  0.45594000000E+02  0.51100000000E-03 0.  1.
    9900012    2    1    2    0    0 -0.17287377577E+00 -0.10408676189E+01 -0.52855351835E+00  0.90007890020E+02  0.90000153368E+02 0.  0.
        -12    1    1    2    0    0  0.17287377577E+00  0.10408676189E+01  0.52855351835E+00  0.11801099797E+01  0.00000000000E+00 0.  1.
         11    1    3    3    0    0  0.57136224652E+01 -0.67349669639E+01 -0.27927418673E+01  0.92630809711E+01  0.51100000000E-03 0. -1.
        -11    1    3    3    0    0  0.32921001822E+02  0.17320462474E+02 -0.98118539739E+01  0.38471590297E+02  0.51100000000E-03 0.  1.
         12    1    3    3    0    0 -0.38807498063E+02 -0.11626363129E+02  0.12076042323E+02  0.42273218753E+02  0.00000000000E+00 0. -1.
</event>
<event>
 7    1  0.1756449E-015  0.9000782E+02  0.7816164E-02  0.1186339E+00
        -11   -1    0    0    0    0  0.00000000000E+00  0.00000000000E+00  0.45593999997E+02  0.45594000000E+02  0.51100000000E-03 0.  1.
         11   -1    0    0    0    0 -0.00000000000E+00 -0.00000000000E+00 -0.45593999997E+02  0.45594000000E+02  0.51100000000E-03 0. -1.
    9900012    2    1    2    0    0  0.73164593710E+00 -0.35071598741E+00 -0.85703471266E+00  0.90007823751E+02  0.90000086224E+02 0.  0.
        -12    1    1    2    0    0 -0.73164593710E+00  0.35071598741E+00  0.85703471266E+00  0.11801762495E+01  0.00000000000E+00 0.  1.
         11    1    3    3    0    0  0.27721851609E+02  0.25932468584E+02  0.68399236189E+01  0.38571732381E+02  0.51100000000E-03 0. -1.
        -11    1    3    3    0    0 -0.20193444119E+01  0.21102699929E+01  0.94696811185E+01  0.99098865808E+01  0.51100000000E-03 0.  1.
        -12    1    3    3    0    0 -0.24970861260E+02 -0.28393454565E+02 -0.17166639450E+02  0.41526204789E+02  0.00000000000E+00 0.  1.
</event>
<event>
 7    1  0.1756449E-015  0.9000769E+02  0.7816164E-02  0.1186339E+00
        -11   -1    0    0    0    0  0.00000000000E+00  0.00000000000E+00  0.45593999997E+02  0.45594000000E+02  0.51100000000E-03 0.  1.
         11   -1    0    0    0    0 -0.00000000000E+00 -0.00000000000E+00 -0.45593999997E+02  0.45594000000E+02  0.51100000000E-03 0. -1.
    9900012    2    1    2    0    0 -0.96965582444E-01 -0.10742644169E+01 -0.47925063615E+00  0.90007691763E+02  0.89999952494E+02 0.  0.
        -12    1    1    2    0    0  0.96965582444E-01  0.10742644169E+01  0.47925063615E+00  0.11803082368E+01  0.00000000000E+00 0.  1.
         11    1    3    3    0    0  0.63588295697E+01  0.58137421382E-01  0.27201467098E+00  0.63649105020E+01  0.51100000000E-03 0. -1.
        -11    1    3    3    0    0  0.29184976941E+02 -0.17145335649E+02  0.20087563156E+02  0.39360330377E+02  0.51100000000E-03 0.  1.
         12    1    3    3    0    0 -0.35640772093E+02  0.16012933811E+02 -0.20838828464E+02  0.44282450884E+02  0.00000000000E+00 0. -1.
</event>
<event>
 7    1  0.1756449E-015  0.9000777E+02  0.7816164E-02  0.1186339E+00
        -11   -1    0    0    0    0  0.00000000000E+00  0.00000000000E+00  0.45593999997E+02  0.45594000000E+02  0.51100000000E-03 0. -1.
         11   -1    0    0    0    0 -0.00000000000E+00 -0.00000000000E+00 -0.45593999997E+02  0.45594000000E+02  0.51100000000E-03 0.  1.
    9900012    2    1    2    0    0 -0.19293845989E+00 -0.10225856660E+01  0.55681949787E+00  0.90007765004E+02  0.90000026702E+02 0.  0.
        -12    1    1    2    0    0  0.19293845989E+00  0.10225856660E+01 -0.55681949787E+00  0.11802349964E+01  0.00000000000E+00 0.  1.
         11    1    3    3    0    0  0.98946766712E+00  0.35787710864E+00  0.91063708754E+01  0.91669576780E+01  0.51100000000E-03 0. -1.
        -11    1    3    3    0    0  0.39318371531E+01  0.29178633551E+02 -0.30866170727E+02  0.42656447284E+02  0.51100000000E-03 0.  1.
         12    1    3    3    0    0 -0.51142432801E+01 -0.30559096325E+02  0.22316619350E+02  0.38184360041E+02  0.00000000000E+00 0. -1.
</event>
<event>
 7    1  0.1756449E-015  0.9000792E+02  0.7816164E-02  0.1186339E+00
        -11   -1    0    0    0    0  0.00000000000E+00  0.00000000000E+00  0.45593999997E+02  0.45594000000E+02  0.51100000000E-03 0. -1.
         11   -1    0    0    0    0 -0.00000000000E+00 -0.00000000000E+00 -0.45593999997E+02  0.45594000000E+02  0.51100000000E-03 0.  1.
    9900012    2    1    2    0    0 -0.28083821994E+00 -0.82738520414E+00  0.79318421206E+00  0.90007924758E+02  0.90000188565E+02 0.  0.
        -12    1    1    2    0    0  0.28083821994E+00  0.82738520414E+00 -0.79318421206E+00  0.11800752417E+01  0.00000000000E+00 0.  1.
         11    1    3    3    0    0 -0.33212805044E+02 -0.98940483114E+01  0.15226057955E+02  0.37852548818E+02  0.51100000000E-03 0. -1.
        -11    1    3    3    0    0 -0.81147458500E+01  0.23619467638E+01 -0.13721833004E+01  0.85621714533E+01  0.51100000000E-03 0.  1.
        -12    1    3    3    0    0  0.41046712674E+02  0.67047163434E+01 -0.13060690442E+02  0.43593204487E+02  0.00000000000E+00 0.  1.
</event>
<event>
 7    1  0.1756449E-015  0.9000779E+02  0.7816164E-02  0.1186339E+00
        -11   -1    0    0    0    0  0.00000000000E+00  0.00000000000E+00  0.45593999997E+02  0.45594000000E+02  0.51100000000E-03 0. -1.
         11   -1    0    0    0    0 -0.00000000000E+00 -0.00000000000E+00 -0.45593999997E+02  0.45594000000E+02  0.51100000000E-03 0.  1.
    9900012    2    1    2    0    0  0.10180725475E+01 -0.53236322096E+00  0.27022155315E+00  0.90007787308E+02  0.90000049300E+02 0.  0.
        -12    1    1    2    0    0 -0.10180725475E+01  0.53236322096E+00 -0.27022155315E+00  0.11802126922E+01  0.00000000000E+00 0.  1.
         11    1    3    3    0    0  0.59583354336E+01  0.35954004302E+02  0.57185838929E+01  0.36890302092E+02  0.51100000000E-03 0. -1.
        -11    1    3    3    0    0 -0.90797799413E+00  0.74127754499E+01 -0.50797011749E+01  0.90320002323E+01  0.51100000000E-03 0.  1.
        -12    1    3    3    0    0 -0.40322848920E+01 -0.43899142972E+02 -0.36866116481E+00  0.44085484983E+02  0.00000000000E+00 0.  1.
</event>
<event>
 7    1  0.1756449E-015  0.9000773E+02  0.7816164E-02  0.1186339E+00
        -11   -1    0    0    0    0  0.00000000000E+00  0.00000000000E+00  0.45593999997E+02  0.45594000000E+02  0.51100000000E-03 0.  1.
         11   -1    0    0    0    0 -0.00000000000E+00 -0.00000000000E+00 -0.45593999997E+02  0.45594000000E+02  0.51100000000E-03 0. -1.
    9900012    2    1    2    0    0 -0.55587687783E-01 -0.83370073260E+00 -0.83360135141E+00  0.90007729643E+02  0.89999990874E+02 0.  0.
        -12    1    1    2    0    0  0.55587687783E-01  0.83370073260E+00  0.83360135141E+00  0.11802703570E+01  0.00000000000E+00 0.  1.
         11    1    3    3    0    0  0.78148019114E+01 -0.18925208427E+02 -0.39678888147E+02  0.44650294599E+02  0.51100000000E-03 0. -1.
        -11    1    3    3    0    0 -0.46693564257E+01  0.23893991224E+00  0.12732113526E+02  0.13563432339E+02  0.51100000000E-03 0.  1.
        -12    1    3    3    0    0 -0.32010331735E+01  0.17852567782E+02  0.26113173270E+02  0.31794002705E+02  0.00000000000E+00 0.  1.
</event>
<event>
 7    1  0.1756449E-015  0.9000772E+02  0.7816164E-02  0.1186339E+00
        -11   -1    0    0    0    0  0.00000000000E+00  0.00000000000E+00  0.45593999997E+02  0.45594000000E+02  0.51100000000E-03 0.  1.
         11   -1    0    0    0    0 -0.00000000000E+00 -0.00000000000E+00 -0.45593999997E+02  0.45594000000E+02  0.51100000000E-03 0. -1.
    9900012    2    1    2    0    0 -0.43024622794E-01 -0.91121350759E+00 -0.74893424837E+00  0.90007718812E+02  0.89999979900E+02 0.  0.
        -12    1    1    2    0    0  0.43024622794E-01  0.91121350759E+00  0.74893424837E+00  0.11802811881E+01  0.00000000000E+00 0.  1.
         11    1    3    3    0    0 -0.12518651970E+01  0.12573103938E+02 -0.32889368966E+02  0.35232949073E+02  0.51100000000E-03 0. -1.
        -11    1    3    3    0    0 -0.38304706104E+01  0.75227248873E+01 -0.63994029644E+01  0.10593217329E+02  0.51100000000E-03 0.  1.
        -12    1    3    3    0    0  0.50393111846E+01 -0.21007042333E+02  0.38539837682E+02  0.44181552410E+02  0.00000000000E+00 0.  1.
</event>
<event>
 7    1  0.1756449E-015  0.9000762E+02  0.7816164E-02  0.1186339E+00
        -11   -1    0    0    0    0  0.00000000000E+00  0.00000000000E+00  0.45593999997E+02  0.45594000000E+02  0.51100000000E-03 0.  1.
         11   -1    0    0    0    0 -0.00000000000E+00 -0.00000000000E+00 -0.45593999997E+02  0.45594000000E+02  0.51100000000E-03 0. -1.
    9900012    2    1    2    0    0  0.11410143963E+01  0.23278016837E-01 -0.30141712961E+00  0.90007615315E+02  0.89999875037E+02 0.  0.
        -12    1    1    2    0    0 -0.11410143963E+01 -0.23278016837E-01  0.30141712961E+00  0.11803846850E+01  0.00000000000E+00 0.  1.
         11    1    3    3    0    0 -0.28971069090E+00 -0.10143387458E+02 -0.98023728874E+01  0.14108818374E+02  0.51100000000E-03 0. -1.
        -11    1    3    3    0    0  0.36674494009E+02 -0.48395805639E+01  0.50520248134E+01  0.37335813984E+02  0.51100000000E-03 0.  1.
         12    1    3    3    0    0 -0.35243768922E+02  0.15006246039E+02  0.44489309443E+01  0.38562982957E+02  0.00000000000E+00 0. -1.
</event>
<event>
 7    1  0.1756449E-015  0.9000789E+02  0.7816164E-02  0.1186339E+00
        -11   -1    0    0    0    0  0.00000000000E+00  0.00000000000E+00  0.45593999997E+02  0.45594000000E+02  0.51100000000E-03 0.  1.
         11   -1    0    0    0    0 -0.00000000000E+00 -0.00000000000E+00 -0.45593999997E+02  0.45594000000E+02  0.51100000000E-03 0. -1.
    9900012    2    1    2    0    0  0.35985852429E-01 -0.56884295705E+00 -0.10333373106E+01  0.90007888442E+02  0.90000151770E+02 0.  0.
        -12    1    1    2    0    0 -0.35985852429E-01  0.56884295705E+00  0.10333373106E+01  0.11801115578E+01  0.00000000000E+00 0.  1.
         11    1    3    3    0    0  0.33704665262E+01  0.34778010134E+01  0.50531880848E+01  0.69992752893E+01  0.51100000000E-03 0. -1.
        -11    1    3    3    0    0  0.83364239297E+01 -0.14394580345E+02  0.35168177146E+02  0.38903734927E+02  0.51100000000E-03 0.  1.
         12    1    3    3    0    0 -0.11670904603E+02  0.10347936375E+02 -0.41254702542E+02  0.44104878225E+02  0.00000000000E+00 0. -1.
</event>
<event>
 7    1  0.1756449E-015  0.9000780E+02  0.7816164E-02  0.1186339E+00
        -11   -1    0    0    0    0  0.00000000000E+00  0.00000000000E+00  0.45593999997E+02  0.45594000000E+02  0.51100000000E-03 0. -1.
         11   -1    0    0    0    0 -0.00000000000E+00 -0.00000000000E+00 -0.45593999997E+02  0.45594000000E+02  0.51100000000E-03 0.  1.
    9900012    2    1    2    0    0 -0.64662508512E+00 -0.95718719650E+00  0.24196883406E+00  0.90007796523E+02  0.90000058637E+02 0.  0.
        -12    1    1    2    0    0  0.64662508512E+00  0.95718719650E+00 -0.24196883406E+00  0.11802034767E+01  0.00000000000E+00 0.  1.
         11    1    3    3    0    0  0.66585788643E+01 -0.22585195393E+01 -0.10347304796E+02  0.12510167857E+02  0.51100000000E-03 0. -1.
        -11    1    3    3    0    0 -0.38880014002E+02 -0.36731078104E+01 -0.89080491479E+01  0.40056217366E+02  0.51100000000E-03 0.  1.
         12    1    3    3    0    0  0.31574810053E+02  0.49744401532E+01  0.19497322778E+02  0.37441411301E+02  0.00000000000E+00 0. -1.
</event>
<event>
 7    1  0.1756449E-015  0.9000774E+02  0.7816164E-02  0.1186339E+00
        -11   -1    0    0    0    0  0.00000000000E+00  0.00000000000E+00  0.45593999997E+02  0.45594000000E+02  0.51100000000E-03 0. -1.
         11   -1    0    0    0    0 -0.00000000000E+00 -0.00000000000E+00 -0.45593999997E+02  0.45594000000E+02  0.51100000000E-03 0.  1.
    9900012    2    1    2    0    0 -0.88699625781E+00  0.67131099352E-01  0.77572315309E+00  0.90007739285E+02  0.90000000643E+02 0.  0.
        -12    1    1    2    0    0  0.88699625781E+00 -0.67131099352E-01 -0.77572315309E+00  0.11802607153E+01  0.00000000000E+00 0.  1.
         11    1    3    3    0    0  0.38077858996E+01  0.34195997670E+02  0.12322571315E+02  0.36547383684E+02  0.51100000000E-03 0. -1.
        -11    1    3    3    0    0 -0.73058014075E+01  0.73035372200E+01  0.14287279597E+00  0.10331350494E+02  0.51100000000E-03 0.  1.
        -12    1    3    3    0    0  0.26110192501E+01 -0.41432403791E+02 -0.11689720958E+02  0.43129005106E+02  0.00000000000E+00 0.  1.
</event>
<event>
 7    1  0.1756449E-015  0.9000781E+02  0.7816164E-02  0.1186339E+00
        -11   -1    0    0    0    0  0.00000000000E+00  0.00000000000E+00  0.45593999997E+02  0.45594000000E+02  0.51100000000E-03 0. -1.
         11   -1    0    0    0    0 -0.00000000000E+00 -0.00000000000E+00 -0.45593999997E+02  0.45594000000E+02  0.51100000000E-03 0.  1.
    9900012    2    1    2    0    0 -0.65480125432E+00 -0.10534159760E+00  0.97621605400E+00  0.90007805389E+02  0.90000067620E+02 0.  0.
        -12    1    1    2    0    0  0.65480125432E+00  0.10534159760E+00 -0.97621605400E+00  0.11801946106E+01  0.00000000000E+00 0.  1.
         11    1    3    3    0    0 -0.35457328059E+01 -0.21609739918E+00 -0.23611438321E+00  0.35601502047E+01  0.51100000000E-03 0. -1.
        -11    1    3    3    0    0 -0.24461477268E+02 -0.30078022471E+02 -0.16363048241E+02  0.42080882285E+02  0.51100000000E-03 0.  1.
         12    1    3    3    0    0  0.27352408819E+02  0.30188778273E+02  0.17575378678E+02  0.44366772899E+02  0.00000000000E+00 0. -1.
</event>
<event>
 7    1  0.1756449E-015  0.9000776E+02  0.7816164E-02  0.1186339E+00
        -11   -1    0    0    0    0  0.00000000000E+00  0.00000000000E+00  0.45593999997E+02  0.45594000000E+02  0.51100000000E-03 0.  1.
         11   -1    0    0    0    0 -0.00000000000E+00 -0.00000000000E+00 -0.45593999997E+02  0.45594000000E+02  0.51100000000E-03 0. -1.
    9900012    2    1    2    0    0 -0.87614123667E+00  0.17334204534E+00 -0.77155450938E+00  0.90007759646E+02  0.90000021274E+02 0.  0.
        -12    1    1    2    0    0  0.87614123667E+00 -0.17334204534E+00  0.77155450938E+00  0.11802403536E+01  0.00000000000E+00 0.  1.
         11    1    3    3    0    0  0.25863309110E+02 -0.64851765208E+01 -0.27599665227E+02  0.38375901208E+02  0.51100000000E-03 0. -1.
        -11    1    3    3    0    0 -0.63338419026E+01  0.57475985267E+01 -0.77039569340E+01  0.11511011892E+02  0.51100000000E-03 0.  1.
        -12    1    3    3    0    0 -0.20405608444E+02  0.91092003948E+00  0.34532067652E+02  0.40120846546E+02  0.00000000000E+00 0.  1.
</event>
<event>
 7    1  0.1756449E-015  0.9000776E+02  0.7816164E-02  0.1186339E+00
        -11   -1    0    0    0    0  0.00000000000E+00  0.00000000000E+00  0.45593999997E+02  0.45594000000E+02  0.51100000000E-03 0. -1.
         11   -1    0    0    0    0 -0.00000000000E+00 -0.00000000000E+00 -0.45593999997E+02  0.45594000000E+02  0.51100000000E-03 0.  1.
    9900012    2    1    2    0    0  0.85717415202E+00  0.76422982033E+00 -0.27235431578E+00  0.90007757814E+02  0.90000019417E+02 0.  0.
        -12    1    1    2    0    0 -0.85717415202E+00 -0.76422982033E+00  0.27235431578E+00  0.11802421864E+01  0.00000000000E+00 0.  1.
         11    1    3    3    0    0  0.77734342462E+01  0.82417481359E+01 -0.12752525047E+00  0.11330002439E+02  0.51100000000E-03 0. -1.
        -11    1    3    3    0    0 -0.32843931877E+02  0.14135754005E+02 -0.18495899708E+02  0.40257194496E+02  0.51100000000E-03 0.  1.
         12    1    3    3    0    0  0.25927671783E+02 -0.21613272321E+02  0.18351070643E+02  0.38420560879E+02  0.00000000000E+00 0. -1.
</event>
<event>
 7    1  0.1756449E-015  0.9000792E+02  0.7816164E-02  0.1186339E+00
        -11   -1    0    0    0    0  0.00000000000E+00  0.00000000000E+00  0.45593999997E+02  0.45594000000E+02  0.51100000000E-03 0. -1.
         11   -1    0    0    0    0 -0.00000000000E+00 -0.00000000000E+00 -0.45593999997E+02  0.45594000000E+02  0.51100000000E-03 0.  1.
    9900012    2    1    2    0    0  0.10205025866E+01 -0.51813788111E+00 -0.28755674835E+00  0.90007923190E+02  0.90000186976E+02 0.  0.
        -12    1    1    2    0    0 -0.10205025866E+01  0.51813788111E+00  0.28755674835E+00  0.11800768096E+01  0.00000000000E+00 0.  1.
         11    1    3    3    0    0 -0.45540591522E+01 -0.23058421253E+01  0.67224169719E+01  0.84408087808E+01  0.51100000000E-03 0. -1.
        -11    1    3    3    0    0  0.27336619687E+02 -0.95373348959E+01  0.27029364562E+02  0.39608560712E+02  0.51100000000E-03 0.  1.
         12    1    3    3    0    0 -0.21762057948E+02  0.11325039140E+02 -0.34039338283E+02  0.41958553697E+02  0.00000000000E+00 0. -1.
</event>
<event>
 7    1  0.1756449E-015  0.9000773E+02  0.7816164E-02  0.1186339E+00
        -11   -1    0    0    0    0  0.00000000000E+00  0.00000000000E+00  0.45593999997E+02  0.45594000000E+02  0.51100000000E-03 0.  1.
         11   -1    0    0    0    0 -0.00000000000E+00 -0.00000000000E+00 -0.45593999997E+02  0.45594000000E+02  0.51100000000E-03 0. -1.
    9900012    2    1    2    0    0  0.77687336379E+00 -0.67035270257E+00 -0.58321756225E+00  0.90007725585E+02  0.89999986763E+02 0.  0.
        -12    1    1    2    0    0 -0.77687336379E+00  0.67035270257E+00  0.58321756225E+00  0.11802744148E+01  0.00000000000E+00 0.  1.
         11    1    3    3    0    0  0.28617530292E+02  0.24137407475E+01 -0.70014815963E+01  0.29560276204E+02  0.51100000000E-03 0. -1.
        -11    1    3    3    0    0 -0.36994999276E+01  0.12304119127E+02 -0.18479311596E+02  0.22506945696E+02  0.51100000000E-03 0.  1.
        -12    1    3    3    0    0 -0.24141157001E+02 -0.15388212577E+02  0.24897575630E+02  0.37940503686E+02  0.00000000000E+00 0.  1.
</event>
<event>
 7    1  0.1756449E-015  0.9000774E+02  0.7816164E-02  0.1186339E+00
        -11   -1    0    0    0    0  0.00000000000E+00  0.00000000000E+00  0.45593999997E+02  0.45594000000E+02  0.51100000000E-03 0.  1.
         11   -1    0    0    0    0 -0.00000000000E+00 -0.00000000000E+00 -0.45593999997E+02  0.45594000000E+02  0.51100000000E-03 0. -1.
    9900012    2    1    2    0    0  0.34207967042E+00 -0.62736166316E+00 -0.93936710526E+00  0.90007740827E+02  0.90000002206E+02 0.  0.
        -12    1    1    2    0    0 -0.34207967042E+00  0.62736166316E+00  0.93936710526E+00  0.11802591731E+01  0.00000000000E+00 0.  1.
         11    1    3    3    0    0 -0.18534615443E+02 -0.33380091050E+02 -0.28509537588E+01  0.38286947981E+02  0.51100000000E-03 0. -1.
        -11    1    3    3    0    0 -0.80921359788E+01  0.12082389505E+02  0.88740094658E+01  0.17035693268E+02  0.51100000000E-03 0.  1.
        -12    1    3    3    0    0  0.26968831092E+02  0.20670339882E+02 -0.69624228123E+01  0.34685099578E+02  0.00000000000E+00 0.  1.
</event>
<event>
 7    1  0.1756449E-015  0.9000782E+02  0.7816164E-02  0.1186339E+00
        -11   -1    0    0    0    0  0.00000000000E+00  0.00000000000E+00  0.45593999997E+02  0.45594000000E+02  0.51100000000E-03 0.  1.
         11   -1    0    0    0    0 -0.00000000000E+00 -0.00000000000E+00 -0.45593999997E+02  0.45594000000E+02  0.51100000000E-03 0. -1.
    9900012    2    1    2    0    0 -0.58556357973E+00  0.10218809937E+01  0.75466075201E-01  0.90007821793E+02  0.90000084241E+02 0.  0.
        -12    1    1    2    0    0  0.58556357973E+00 -0.10218809937E+01 -0.75466075201E-01  0.11801782068E+01  0.00000000000E+00 0.  1.
         11    1    3    3    0    0 -0.30629025227E+01 -0.83620765979E+01 -0.53382659607E+01  0.10382811788E+02  0.51100000000E-03 0. -1.
        -11    1    3    3    0    0  0.37432361280E+01 -0.92275917384E+01  0.39517410872E+02  0.40752742586E+02  0.51100000000E-03 0.  1.
         12    1    3    3    0    0 -0.12658971850E+01  0.18611549330E+02 -0.34103678836E+02  0.38872267419E+02  0.00000000000E+00 0. -1.
</event>
<event>
 7    1  0.1756449E-015  0.9000767E+02  0.7816164E-02  0.1186339E+00
        -11   -1    0    0    0    0  0.00000000000E+00  0.00000000000E+00  0.45593999997E+02  0.45594000000E+02  0.51100000000E-03 0.  1.
         11   -1    0    0    0    0 -0.00000000000E+00 -0.00000000000E+00 -0.45593999997E+02  0.45594000000E+02  0.51100000000E-03 0. -1.
    9900012    2    1    2    0    0  0.11430151477E+01 -0.29434169894E+00  0.81843642224E-02  0.90007666298E+02  0.89999926693E+02 0.  0.
        -12    1    1    2    0    0 -0.11430151477E+01  0.29434169894E+00 -0.81843642224E-02  0.11803337017E+01  0.00000000000E+00 0.  1.
         11    1    3    3    0    0  0.93646744261E+01 -0.27175223414E+01 -0.17520387607E+01  0.99071537216E+01  0.51100000000E-03 0. -1.
        -11    1    3    3    0    0 -0.35428475952E+01 -0.20777093178E+02  0.34062287313E+02  0.40055945717E+02  0.51100000000E-03 0.  1.
         12    1    3    3    0    0 -0.46788116832E+01  0.23200273821E+02 -0.32302064188E+02  0.40044566859E+02  0.00000000000E+00 0. -1.
</event>
<event>
 7    1  0.1756449E-015  0.9000765E+02  0.7816164E-02  0.1186339E+00
        -11   -1    0    0    0    0  0.00000000000E+00  0.00000000000E+00  0.45593999997E+02  0.45594000000E+02  0.51100000000E-03 0. -1.
         11   -1    0    0    0    0 -0.00000000000E+00 -0.00000000000E+00 -0.45593999997E+02  0.45594000000E+02  0.51100000000E-03 0.  1.
    9900012    2    1    2    0    0 -0.93501647708E+00  0.69068401497E+00  0.20476040281E+00  0.90007649610E+02  0.89999909785E+02 0.  0.
        -12    1    1    2    0    0  0.93501647708E+00 -0.69068401497E+00 -0.20476040281E+00  0.11803503901E+01  0.00000000000E+00 0.  1.
         11    1    3    3    0    0  0.34679736878E+00 -0.15294868635E+01 -0.65417972434E+01  0.67271620997E+01  0.51100000000E-03 0. -1.
        -11    1    3    3    0    0 -0.94587657709E+01 -0.35767476136E+02 -0.13600760376E+02  0.39417778757E+02  0.51100000000E-03 0.  1.
         12    1    3    3    0    0  0.81769519251E+01  0.37987647015E+02  0.20347318022E+02  0.43862708753E+02  0.00000000000E+00 0. -1.
</event>
<event>
 7    1  0.1756449E-015  0.9000727E+02  0.7816164E-02  0.1186340E+00
        -11   -1    0    0    0    0  0.00000000000E+00  0.00000000000E+00  0.45593999997E+02  0.45594000000E+02  0.51100000000E-03 0. -1.
         11   -1    0    0    0    0 -0.00000000000E+00 -0.00000000000E+00 -0.45593999997E+02  0.45594000000E+02  0.51100000000E-03 0.  1.
    9900012    2    1    2    0    0 -0.26770378642E-01  0.51925968828E+00  0.10600842144E+01  0.90007268947E+02  0.89999524096E+02 0.  0.
        -12    1    1    2    0    0  0.26770378642E-01 -0.51925968828E+00 -0.10600842144E+01  0.11807310526E+01  0.00000000000E+00 0.  1.
         11    1    3    3    0    0  0.10080938301E+02  0.10740380314E+02  0.35914130074E+02  0.38817596854E+02  0.51100000000E-03 0. -1.
        -11    1    3    3    0    0 -0.49640206125E+01 -0.71478559964E+01  0.55644881259E+01  0.10329417910E+02  0.51100000000E-03 0.  1.
        -12    1    3    3    0    0 -0.51436880675E+01 -0.30732646289E+01 -0.40418533985E+02  0.40860254183E+02  0.00000000000E+00 0.  1.
</event>
<event>
 7    1  0.1756449E-015  0.9000788E+02  0.7816164E-02  0.1186339E+00
        -11   -1    0    0    0    0  0.00000000000E+00  0.00000000000E+00  0.45593999997E+02  0.45594000000E+02  0.51100000000E-03 0. -1.
         11   -1    0    0    0    0 -0.00000000000E+00 -0.00000000000E+00 -0.45593999997E+02  0.45594000000E+02  0.51100000000E-03 0.  1.
    9900012    2    1    2    0    0 -0.27519419430E+00 -0.32217482177E+00  0.11014349139E+01  0.90007878256E+02  0.90000141449E+02 0.  0.
        -12    1    1    2    0    0  0.27519419430E+00  0.32217482177E+00 -0.11014349139E+01  0.11801217436E+01  0.00000000000E+00 0.  1.
         11    1    3    3    0    0 -0.27245002905E+02  0.83023757522E+01  0.26554211248E+02  0.38940284562E+02  0.51100000000E-03 0. -1.
        -11    1    3    3    0    0 -0.15574312826E+00 -0.12189794389E+02  0.19494265731E+01  0.12345671606E+02  0.51100000000E-03 0.  1.
        -12    1    3    3    0    0  0.27125551839E+02  0.35652438155E+01 -0.27402202908E+02  0.38721922089E+02  0.00000000000E+00 0.  1.
</event>
<event>
 7    1  0.1756449E-015  0.9000778E+02  0.7816164E-02  0.1186339E+00
        -11   -1    0    0    0    0  0.00000000000E+00  0.00000000000E+00  0.45593999997E+02  0.45594000000E+02  0.51100000000E-03 0. -1.
         11   -1    0    0    0    0 -0.00000000000E+00 -0.00000000000E+00 -0.45593999997E+02  0.45594000000E+02  0.51100000000E-03 0.  1.
    9900012    2    1    2    0    0  0.51402925423E+00  0.10409577221E+01 -0.21234841994E+00  0.90007783535E+02  0.90000045477E+02 0.  0.
        -12    1    1    2    0    0 -0.51402925423E+00 -0.10409577221E+01  0.21234841994E+00  0.11802164653E+01  0.00000000000E+00 0.  1.
         11    1    3    3    0    0 -0.12297317056E+02  0.34193342346E+02  0.22469769999E+02  0.42723520825E+02  0.51100000000E-03 0. -1.
        -11    1    3    3    0    0  0.80398773788E+01 -0.76516877535E-01 -0.51240377059E+01  0.95342144811E+01  0.51100000000E-03 0.  1.
        -12    1    3    3    0    0  0.47714689313E+01 -0.33075867747E+02 -0.17558080713E+02  0.37750048229E+02  0.00000000000E+00 0.  1.
</event>
<event>
 7    1  0.1756449E-015  0.9000764E+02  0.7816164E-02  0.1186339E+00
        -11   -1    0    0    0    0  0.00000000000E+00  0.00000000000E+00  0.45593999997E+02  0.45594000000E+02  0.51100000000E-03 0.  1.
         11   -1    0    0    0    0 -0.00000000000E+00 -0.00000000000E+00 -0.45593999997E+02  0.45594000000E+02  0.51100000000E-03 0. -1.
    9900012    2    1    2    0    0  0.54967576426E+00 -0.22672361379E+00 -0.10196533163E+01  0.90007644152E+02  0.89999904255E+02 0.  0.
        -12    1    1    2    0    0 -0.54967576426E+00  0.22672361379E+00  0.10196533163E+01  0.11803558482E+01  0.00000000000E+00 0.  1.
         11    1    3    3    0    0  0.12495342696E+02 -0.23776090964E+01 -0.41633009086E+01  0.13383560394E+02  0.51100000000E-03 0. -1.
        -11    1    3    3    0    0  0.93473608709E+01  0.19634443344E+02  0.30723437705E+02  0.37640591724E+02  0.51100000000E-03 0.  1.
         12    1    3    3    0    0 -0.21293027802E+02 -0.17483557861E+02 -0.27579790113E+02  0.38983492034E+02  0.00000000000E+00 0. -1.
</event>
<event>
 7    1  0.1756449E-015  0.9000781E+02  0.7816164E-02  0.1186339E+00
        -11   -1    0    0    0    0  0.00000000000E+00  0.00000000000E+00  0.45593999997E+02  0.45594000000E+02  0.51100000000E-03 0. -1.
         11   -1    0    0    0    0 -0.00000000000E+00 -0.00000000000E+00 -0.45593999997E+02  0.45594000000E+02  0.51100000000E-03 0.  1.
    9900012    2    1    2    0    0 -0.80011094299E+00  0.17520461990E+00 -0.84969380647E+00  0.90007807751E+02  0.90000070013E+02 0.  0.
        -12    1    1    2    0    0  0.80011094299E+00 -0.17520461990E+00  0.84969380647E+00  0.11801922490E+01  0.00000000000E+00 0.  1.
         11    1    3    3    0    0  0.67235527168E+00 -0.78056140963E+01  0.45191575260E+01  0.90444711309E+01  0.51100000000E-03 0. -1.
        -11    1    3    3    0    0  0.21353681723E+02 -0.27167427573E+02 -0.15459954757E+02  0.37855766343E+02  0.51100000000E-03 0.  1.
         12    1    3    3    0    0 -0.22826147938E+02  0.35148246289E+02  0.10091103424E+02  0.43107570277E+02  0.00000000000E+00 0. -1.
</event>
<event>
 7    1  0.1756449E-015  0.9000776E+02  0.7816164E-02  0.1186339E+00
        -11   -1    0    0    0    0  0.00000000000E+00  0.00000000000E+00  0.45593999997E+02  0.45594000000E+02  0.51100000000E-03 0.  1.
         11   -1    0    0    0    0 -0.00000000000E+00 -0.00000000000E+00 -0.45593999997E+02  0.45594000000E+02  0.51100000000E-03 0. -1.
    9900012    2    1    2    0    0  0.26570017231E+00  0.11306633811E+01  0.20971861244E+00  0.90007755043E+02  0.90000016609E+02 0.  0.
        -12    1    1    2    0    0 -0.26570017231E+00 -0.11306633811E+01 -0.20971861244E+00  0.11802449574E+01  0.00000000000E+00 0.  1.
         11    1    3    3    0    0  0.16532974583E+01 -0.17098199428E+02  0.45794442351E+01  0.17777883055E+02  0.51100000000E-03 0. -1.
        -11    1    3    3    0    0 -0.15098160741E+01 -0.12144855744E+02  0.26335182172E+02  0.29039953270E+02  0.51100000000E-03 0.  1.
         12    1    3    3    0    0  0.12221878817E+00  0.30373718553E+02 -0.30704907795E+02  0.43189918718E+02  0.00000000000E+00 0. -1.
</event>
<event>
 7    1  0.1756449E-015  0.9000845E+02  0.7816164E-02  0.1186338E+00
        -11   -1    0    0    0    0  0.00000000000E+00  0.00000000000E+00  0.45593999997E+02  0.45594000000E+02  0.51100000000E-03 0. -1.
         11   -1    0    0    0    0 -0.00000000000E+00 -0.00000000000E+00 -0.45593999997E+02  0.45594000000E+02  0.51100000000E-03 0.  1.
    9900012    2    1    2    0    0  0.50875154166E-01  0.18352941645E+00  0.11640777952E+01  0.90008445660E+02  0.90000716340E+02 0.  0.
        -12    1    1    2    0    0 -0.50875154166E-01 -0.18352941645E+00 -0.11640777952E+01  0.11795543401E+01  0.00000000000E+00 0.  1.
         11    1    3    3    0    0  0.35232252904E+02  0.21715219287E+02  0.19901720234E+01  0.41434565020E+02  0.51100000000E-03 0. -1.
        -11    1    3    3    0    0 -0.46710761401E+01  0.13662407317E+01 -0.83756929319E+01  0.96869911941E+01  0.51100000000E-03 0.  1.
        -12    1    3    3    0    0 -0.30510301610E+02 -0.22897930602E+02  0.75495987037E+01  0.38886889446E+02  0.00000000000E+00 0.  1.
</event>
<event>
 7    1  0.1756449E-015  0.9000770E+02  0.7816164E-02  0.1186339E+00
        -11   -1    0    0    0    0  0.00000000000E+00  0.00000000000E+00  0.45593999997E+02  0.45594000000E+02  0.51100000000E-03 0. -1.
         11   -1    0    0    0    0 -0.00000000000E+00 -0.00000000000E+00 -0.45593999997E+02  0.45594000000E+02  0.51100000000E-03 0.  1.
    9900012    2    1    2    0    0  0.48106621829E+00 -0.10524572016E+01 -0.23241105854E+00  0.90007700984E+02  0.89999961837E+02 0.  0.
        -12    1    1    2    0    0 -0.48106621829E+00  0.10524572016E+01  0.23241105854E+00  0.11802990162E+01  0.00000000000E+00 0.  1.
         11    1    3    3    0    0 -0.67846398189E+01  0.20684080578E+00  0.76887909138E+01  0.10256296923E+02  0.51100000000E-03 0. -1.
        -11    1    3    3    0    0  0.11002385323E+01 -0.31013166698E+02 -0.29235756227E+02  0.42635155399E+02  0.51100000000E-03 0.  1.
         12    1    3    3    0    0  0.61654675048E+01  0.29753868691E+02  0.21314554255E+02  0.37116248662E+02  0.00000000000E+00 0. -1.
</event>
<event>
 7    1  0.1756449E-015  0.9000777E+02  0.7816164E-02  0.1186339E+00
        -11   -1    0    0    0    0  0.00000000000E+00  0.00000000000E+00  0.45593999997E+02  0.45594000000E+02  0.51100000000E-03 0.  1.
         11   -1    0    0    0    0 -0.00000000000E+00 -0.00000000000E+00 -0.45593999997E+02  0.45594000000E+02  0.51100000000E-03 0. -1.
    9900012    2    1    2    0    0  0.78369828598E+00  0.53473157440E+00  0.70201912816E+00  0.90007766245E+02  0.90000027959E+02 0.  0.
        -12    1    1    2    0    0 -0.78369828598E+00 -0.53473157440E+00 -0.70201912816E+00  0.11802337550E+01  0.00000000000E+00 0.  1.
         11    1    3    3    0    0  0.35849753558E+01  0.38467431793E+02  0.15992691589E+01  0.38667208577E+02  0.51100000000E-03 0. -1.
        -11    1    3    3    0    0  0.60436851866E+01  0.15763875726E+01 -0.80889892741E+01  0.10219729749E+02  0.51100000000E-03 0.  1.
        -12    1    3    3    0    0 -0.88449622564E+01 -0.39509087791E+02  0.71917392433E+01  0.41120827919E+02  0.00000000000E+00 0.  1.
</event>
<event>
 7    1  0.1756449E-015  0.9000752E+02  0.7816164E-02  0.1186339E+00
        -11   -1    0    0    0    0  0.00000000000E+00  0.00000000000E+00  0.45593999997E+02  0.45594000000E+02  0.51100000000E-03 0. -1.
         11   -1    0    0    0    0 -0.00000000000E+00 -0.00000000000E+00 -0.45593999997E+02  0.45594000000E+02  0.51100000000E-03 0.  1.
    9900012    2    1    2    0    0  0.92160426421E+00 -0.51125978588E+00  0.53179050858E+00  0.90007516144E+02  0.89999774557E+02 0.  0.
        -12    1    1    2    0    0 -0.92160426421E+00  0.51125978588E+00 -0.53179050858E+00  0.11804838557E+01  0.00000000000E+00 0.  1.
         11    1    3    3    0    0 -0.77384194650E+01 -0.10501563180E+02  0.38360400898E+01  0.13597101488E+02  0.51100000000E-03 0. -1.
        -11    1    3    3    0    0 -0.17832135586E+02  0.10194446129E+02  0.28428243051E+02  0.35072450651E+02  0.51100000000E-03 0.  1.
         12    1    3    3    0    0  0.26492159315E+02 -0.20414273416E+00 -0.31732492633E+02  0.41337964005E+02  0.00000000000E+00 0. -1.
</event>
<event>
 7    1  0.1758121E-015  0.9000773E+02  0.7816164E-02  0.1186339E+00
        -11   -1    0    0    0    0  0.00000000000E+00  0.00000000000E+00  0.45593999997E+02  0.45594000000E+02  0.51100000000E-03 0.  1.
         11   -1    0    0    0    0 -0.00000000000E+00 -0.00000000000E+00 -0.45593999997E+02  0.45594000000E+02  0.51100000000E-03 0. -1.
    9900012    2    1    2    0    0 -0.10243352920E+01 -0.43841663747E+00  0.38931986352E+00  0.90007728042E+02  0.89999989252E+02 0.  0.
        -12    1    1    2    0    0  0.10243352920E+01  0.43841663747E+00 -0.38931986352E+00  0.11802719579E+01  0.00000000000E+00 0.  1.
         11    1    3    3    0    0 -0.86074053701E+01 -0.32545274843E+01  0.24563883568E+01  0.95243488161E+01  0.51100000000E-03 0. -1.
        -11    1    3    3    0    0 -0.14739310479E+02 -0.32099396734E+02  0.11059925676E+02  0.37012707282E+02  0.51100000000E-03 0.  1.
         12    1    3    3    0    0  0.22322380557E+02  0.34915507581E+02 -0.13126994170E+02  0.43470671944E+02  0.00000000000E+00 0. -1.
</event>
<event>
 7    1  0.1756449E-015  0.9000780E+02  0.7816164E-02  0.1186339E+00
        -11   -1    0    0    0    0  0.00000000000E+00  0.00000000000E+00  0.45593999997E+02  0.45594000000E+02  0.51100000000E-03 0.  1.
         11   -1    0    0    0    0 -0.00000000000E+00 -0.00000000000E+00 -0.45593999997E+02  0.45594000000E+02  0.51100000000E-03 0. -1.
    9900012    2    1    2    0    0  0.67442931859E+00  0.90612836846E+00 -0.34197548454E+00  0.90007800543E+02  0.90000062710E+02 0.  0.
        -12    1    1    2    0    0 -0.67442931859E+00 -0.90612836846E+00  0.34197548454E+00  0.11801994568E+01  0.00000000000E+00 0.  1.
         11    1    3    3    0    0 -0.95983283483E+01 -0.21198708312E+02 -0.29403389538E+02  0.37497632695E+02  0.51100000000E-03 0. -1.
        -11    1    3    3    0    0 -0.37937554420E+01  0.50075791209E+01 -0.74901978819E+01  0.97760673881E+01  0.51100000000E-03 0.  1.
        -12    1    3    3    0    0  0.14066513109E+02  0.17097257559E+02  0.36551611935E+02  0.42734100460E+02  0.00000000000E+00 0.  1.
</event>
<event>
 7    1  0.1756449E-015  0.9000769E+02  0.7816164E-02  0.1186339E+00
        -11   -1    0    0    0    0  0.00000000000E+00  0.00000000000E+00  0.45593999997E+02  0.45594000000E+02  0.51100000000E-03 0.  1.
         11   -1    0    0    0    0 -0.00000000000E+00 -0.00000000000E+00 -0.45593999997E+02  0.45594000000E+02  0.51100000000E-03 0. -1.
    9900012    2    1    2    0    0 -0.58252588090E+00 -0.36472595493E+00  0.95956608623E+00  0.90007691355E+02  0.89999952081E+02 0.  0.
        -12    1    1    2    0    0  0.58252588090E+00  0.36472595493E+00 -0.95956608623E+00  0.11803086452E+01  0.00000000000E+00 0.  1.
         11    1    3    3    0    0  0.16880815597E+02 -0.29842446858E+02 -0.14377428484E+02  0.37178542465E+02  0.51100000000E-03 0. -1.
        -11    1    3    3    0    0 -0.37554460057E+01 -0.88441618455E+01  0.92446301704E+00  0.96528340699E+01  0.51100000000E-03 0.  1.
        -12    1    3    3    0    0 -0.13707895472E+02  0.38321882749E+02  0.14412531553E+02  0.43176314820E+02  0.00000000000E+00 0.  1.
</event>
<event>
 7    1  0.1756449E-015  0.9000772E+02  0.7816164E-02  0.1186339E+00
        -11   -1    0    0    0    0  0.00000000000E+00  0.00000000000E+00  0.45593999997E+02  0.45594000000E+02  0.51100000000E-03 0. -1.
         11   -1    0    0    0    0 -0.00000000000E+00 -0.00000000000E+00 -0.45593999997E+02  0.45594000000E+02  0.51100000000E-03 0.  1.
    9900012    2    1    2    0    0 -0.99435677174E-02  0.15257573852E+00  0.11703350302E+01  0.90007719392E+02  0.89999980488E+02 0.  0.
        -12    1    1    2    0    0  0.99435677174E-02 -0.15257573852E+00 -0.11703350302E+01  0.11802806079E+01  0.00000000000E+00 0.  1.
         11    1    3    3    0    0 -0.31388204994E+02 -0.19443753873E+02  0.10615410617E+02  0.38418301892E+02  0.51100000000E-03 0. -1.
        -11    1    3    3    0    0 -0.22487306045E+01 -0.19933915997E+01  0.75790986579E+01  0.81531059191E+01  0.51100000000E-03 0.  1.
        -12    1    3    3    0    0  0.33626992031E+02  0.21589721212E+02 -0.17024174245E+02  0.43436311581E+02  0.00000000000E+00 0.  1.
</event>
<event>
 7    1  0.1756449E-015  0.9000776E+02  0.7816164E-02  0.1186339E+00
        -11   -1    0    0    0    0  0.00000000000E+00  0.00000000000E+00  0.45593999997E+02  0.45594000000E+02  0.51100000000E-03 0.  1.
         11   -1    0    0    0    0 -0.00000000000E+00 -0.00000000000E+00 -0.45593999997E+02  0.45594000000E+02  0.51100000000E-03 0. -1.
    9900012    2    1    2    0    0 -0.82069645692E+00  0.63117114949E-01 -0.84583231663E+00  0.90007763264E+02  0.90000024939E+02 0.  0.
        -12    1    1    2    0    0  0.82069645692E+00 -0.63117114949E-01  0.84583231663E+00  0.11802367358E+01  0.00000000000E+00 0.  1.
         11    1    3    3    0    0 -0.69473172717E+01  0.76329031780E+01  0.33100237828E+01  0.10838943025E+02  0.51100000000E-03 0. -1.
        -11    1    3    3    0    0  0.25301706355E+01 -0.21427996183E+02  0.32955948588E+02  0.39391056491E+02  0.51100000000E-03 0.  1.
         12    1    3    3    0    0  0.35964501793E+01  0.13858210120E+02 -0.37111804688E+02  0.39777763748E+02  0.00000000000E+00 0. -1.
</event>
<event>
 7    1  0.1756449E-015  0.9000770E+02  0.7816164E-02  0.1186339E+00
        -11   -1    0    0    0    0  0.00000000000E+00  0.00000000000E+00  0.45593999997E+02  0.45594000000E+02  0.51100000000E-03 0.  1.
         11   -1    0    0    0    0 -0.00000000000E+00 -0.00000000000E+00 -0.45593999997E+02  0.45594000000E+02  0.51100000000E-03 0. -1.
    9900012    2    1    2    0    0 -0.56725183929E+00 -0.62795490305E+00 -0.82279913149E+00  0.90007703249E+02  0.89999964132E+02 0.  0.
        -12    1    1    2    0    0  0.56725183929E+00  0.62795490305E+00  0.82279913149E+00  0.11802967509E+01  0.00000000000E+00 0.  1.
         11    1    3    3    0    0  0.17147897632E+02  0.12931027731E+02 -0.15969086254E+02  0.26763288053E+02  0.51100000000E-03 0. -1.
        -11    1    3    3    0    0  0.11314121610E+02 -0.19721308959E+02 -0.95264789627E+01  0.24651433560E+02  0.51100000000E-03 0.  1.
         12    1    3    3    0    0 -0.29029271081E+02  0.61623263250E+01  0.24672766085E+02  0.38592981636E+02  0.00000000000E+00 0. -1.
</event>
<event>
 7    1  0.1756449E-015  0.9000766E+02  0.7816164E-02  0.1186339E+00
        -11   -1    0    0    0    0  0.00000000000E+00  0.00000000000E+00  0.45593999997E+02  0.45594000000E+02  0.51100000000E-03 0.  1.
         11   -1    0    0    0    0 -0.00000000000E+00 -0.00000000000E+00 -0.45593999997E+02  0.45594000000E+02  0.51100000000E-03 0. -1.
    9900012    2    1    2    0    0 -0.25300455129E-01  0.98863996379E+00 -0.64431668379E+00  0.90007663997E+02  0.89999924362E+02 0.  0.
        -12    1    1    2    0    0  0.25300455129E-01 -0.98863996379E+00  0.64431668379E+00  0.11803360030E+01  0.00000000000E+00 0.  1.
         11    1    3    3    0    0 -0.45998108922E+01  0.61410424843E+00 -0.32803647749E+02  0.33130268489E+02  0.51100000000E-03 0. -1.
        -11    1    3    3    0    0  0.16406294662E+01 -0.91967756175E+00 -0.12229302122E+02  0.12373087832E+02  0.51100000000E-03 0.  1.
        -12    1    3    3    0    0  0.29338809709E+01  0.12942132771E+01  0.44388633186E+02  0.44504307676E+02  0.00000000000E+00 0.  1.
</event>
<event>
 7    1  0.1756449E-015  0.9000775E+02  0.7816164E-02  0.1186339E+00
        -11   -1    0    0    0    0  0.00000000000E+00  0.00000000000E+00  0.45593999997E+02  0.45594000000E+02  0.51100000000E-03 0. -1.
         11   -1    0    0    0    0 -0.00000000000E+00 -0.00000000000E+00 -0.45593999997E+02  0.45594000000E+02  0.51100000000E-03 0.  1.
    9900012    2    1    2    0    0  0.28385205854E-01 -0.11253854316E+01 -0.35452681420E+00  0.90007751148E+02  0.90000012664E+02 0.  0.
        -12    1    1    2    0    0 -0.28385205854E-01  0.11253854316E+01  0.35452681420E+00  0.11802488516E+01  0.00000000000E+00 0.  1.
         11    1    3    3    0    0  0.72536727850E+01 -0.50994107163E+01  0.36244794117E+01  0.95789670525E+01  0.51100000000E-03 0. -1.
        -11    1    3    3    0    0 -0.34339882427E+01 -0.33266670659E+02 -0.20806242581E+02  0.39387350540E+02  0.51100000000E-03 0.  1.
         12    1    3    3    0    0 -0.37912993364E+01  0.37240695943E+02  0.16827236355E+02  0.41041433556E+02  0.00000000000E+00 0. -1.
</event>
<event>
 7    1  0.1756449E-015  0.9000768E+02  0.7816164E-02  0.1186339E+00
        -11   -1    0    0    0    0  0.00000000000E+00  0.00000000000E+00  0.45593999997E+02  0.45594000000E+02  0.51100000000E-03 0. -1.
         11   -1    0    0    0    0 -0.00000000000E+00 -0.00000000000E+00 -0.45593999997E+02  0.45594000000E+02  0.51100000000E-03 0.  1.
    9900012    2    1    2    0    0 -0.39289662907E+00  0.82549682551E+00  0.74655944302E+00  0.90007676412E+02  0.89999936941E+02 0.  0.
        -12    1    1    2    0    0  0.39289662907E+00 -0.82549682551E+00 -0.74655944302E+00  0.11803235878E+01  0.00000000000E+00 0.  1.
         11    1    3    3    0    0 -0.46826984142E+01 -0.26078255594E+01  0.28670011341E+01  0.60784960599E+01  0.51100000000E-03 0. -1.
        -11    1    3    3    0    0 -0.96996239489E+01  0.36535459423E+02 -0.21096932733E+02  0.43289757114E+02  0.51100000000E-03 0.  1.
         12    1    3    3    0    0  0.13989425734E+02 -0.33102137038E+02  0.18976491042E+02  0.40639423238E+02  0.00000000000E+00 0. -1.
</event>
<event>
 7    1  0.1756449E-015  0.9000767E+02  0.7816164E-02  0.1186339E+00
        -11   -1    0    0    0    0  0.00000000000E+00  0.00000000000E+00  0.45593999997E+02  0.45594000000E+02  0.51100000000E-03 0. -1.
         11   -1    0    0    0    0 -0.00000000000E+00 -0.00000000000E+00 -0.45593999997E+02  0.45594000000E+02  0.51100000000E-03 0.  1.
    9900012    2    1    2    0    0  0.92021310689E+00 -0.19475257544E+00  0.71306469668E+00  0.90007668695E+02  0.89999929122E+02 0.  0.
        -12    1    1    2    0    0 -0.92021310689E+00  0.19475257544E+00 -0.71306469668E+00  0.11803313049E+01  0.00000000000E+00 0.  1.
         11    1    3    3    0    0  0.11854956093E+02 -0.30856465034E+02  0.21681579281E+02  0.39531661978E+02  0.51100000000E-03 0. -1.
        -11    1    3    3    0    0  0.76053807001E+01 -0.23207895252E+01 -0.51017858909E+01  0.94475446096E+01  0.51100000000E-03 0.  1.
        -12    1    3    3    0    0 -0.18540123687E+02  0.32982501984E+02 -0.15866728694E+02  0.41028462107E+02  0.00000000000E+00 0.  1.
</event>
<event>
 7    1  0.1756449E-015  0.9000776E+02  0.7816164E-02  0.1186339E+00
        -11   -1    0    0    0    0  0.00000000000E+00  0.00000000000E+00  0.45593999997E+02  0.45594000000E+02  0.51100000000E-03 0.  1.
         11   -1    0    0    0    0 -0.00000000000E+00 -0.00000000000E+00 -0.45593999997E+02  0.45594000000E+02  0.51100000000E-03 0. -1.
    9900012    2    1    2    0    0  0.72326640373E+00 -0.72328327631E-01  0.92985223105E+00  0.90007758139E+02  0.90000019747E+02 0.  0.
        -12    1    1    2    0    0 -0.72326640373E+00  0.72328327631E-01 -0.92985223105E+00  0.11802418605E+01  0.00000000000E+00 0.  1.
         11    1    3    3    0    0 -0.50249768530E+01 -0.13264662099E+02  0.32240811161E+01  0.14546351855E+02  0.51100000000E-03 0. -1.
        -11    1    3    3    0    0  0.94053755071E+01 -0.27078507248E+02  0.13955425749E+02  0.31881978472E+02  0.51100000000E-03 0.  1.
         12    1    3    3    0    0 -0.36571322504E+01  0.40270841020E+02 -0.16249654634E+02  0.43579427812E+02  0.00000000000E+00 0. -1.
</event>
<event>
 7    1  0.1756449E-015  0.9000811E+02  0.7816164E-02  0.1186338E+00
        -11   -1    0    0    0    0  0.00000000000E+00  0.00000000000E+00  0.45593999997E+02  0.45594000000E+02  0.51100000000E-03 0. -1.
         11   -1    0    0    0    0 -0.00000000000E+00 -0.00000000000E+00 -0.45593999997E+02  0.45594000000E+02  0.51100000000E-03 0.  1.
    9900012    2    1    2    0    0 -0.63399714410E+00  0.19336242648E+00  0.97611799068E+00  0.90008106895E+02  0.90000373106E+02 0.  0.
        -12    1    1    2    0    0  0.63399714410E+00 -0.19336242648E+00 -0.97611799068E+00  0.11798931047E+01  0.00000000000E+00 0.  1.
         11    1    3    3    0    0  0.23963947443E+01 -0.60442560331E+00  0.88891352916E+01  0.92263082852E+01  0.51100000000E-03 0. -1.
        -11    1    3    3    0    0  0.14204307172E+02 -0.36559948759E+02 -0.49523525688E+01  0.39533757622E+02  0.51100000000E-03 0.  1.
         12    1    3    3    0    0 -0.17234699061E+02  0.37357736789E+02 -0.29606647321E+01  0.41248040988E+02  0.00000000000E+00 0. -1.
</event>
<event>
 7    1  0.1756449E-015  0.9000767E+02  0.7816164E-02  0.1186339E+00
        -11   -1    0    0    0    0  0.00000000000E+00  0.00000000000E+00  0.45593999997E+02  0.45594000000E+02  0.51100000000E-03 0. -1.
         11   -1    0    0    0    0 -0.00000000000E+00 -0.00000000000E+00 -0.45593999997E+02  0.45594000000E+02  0.51100000000E-03 0.  1.
    9900012    2    1    2    0    0 -0.40988687733E-01  0.51362908673E+00  0.10619255420E+01  0.90007669212E+02  0.89999929646E+02 0.  0.
        -12    1    1    2    0    0  0.40988687733E-01 -0.51362908673E+00 -0.10619255420E+01  0.11803307875E+01  0.00000000000E+00 0.  1.
         11    1    3    3    0    0  0.53637270735E+01 -0.51238942610E+01  0.63359436133E+01  0.97554109216E+01  0.51100000000E-03 0. -1.
        -11    1    3    3    0    0  0.30324317416E+02 -0.16253086963E+02 -0.14517824786E+02  0.37342928371E+02  0.51100000000E-03 0.  1.
         12    1    3    3    0    0 -0.35729033177E+02  0.21890610311E+02  0.92438067149E+01  0.42909329919E+02  0.00000000000E+00 0. -1.
</event>
<event>
 7    1  0.1756449E-015  0.9000773E+02  0.7816164E-02  0.1186339E+00
        -11   -1    0    0    0    0  0.00000000000E+00  0.00000000000E+00  0.45593999997E+02  0.45594000000E+02  0.51100000000E-03 0.  1.
         11   -1    0    0    0    0 -0.00000000000E+00 -0.00000000000E+00 -0.45593999997E+02  0.45594000000E+02  0.51100000000E-03 0. -1.
    9900012    2    1    2    0    0 -0.32931209912E+00 -0.60775788418E+00  0.95667783677E+00  0.90007725207E+02  0.89999986379E+02 0.  0.
        -12    1    1    2    0    0  0.32931209912E+00  0.60775788418E+00 -0.95667783677E+00  0.11802747933E+01  0.00000000000E+00 0.  1.
         11    1    3    3    0    0  0.73889090340E+01 -0.50659748447E+01  0.48591513831E+01  0.10191733428E+02  0.51100000000E-03 0. -1.
        -11    1    3    3    0    0 -0.19361543351E+02 -0.28850505256E+02  0.17129639512E+02  0.38738166768E+02  0.51100000000E-03 0.  1.
         12    1    3    3    0    0  0.11643322218E+02  0.33308722217E+02 -0.21032113058E+02  0.41077825011E+02  0.00000000000E+00 0. -1.
</event>
<event>
 7    1  0.1756449E-015  0.9000775E+02  0.7816164E-02  0.1186339E+00
        -11   -1    0    0    0    0  0.00000000000E+00  0.00000000000E+00  0.45593999997E+02  0.45594000000E+02  0.51100000000E-03 0.  1.
         11   -1    0    0    0    0 -0.00000000000E+00 -0.00000000000E+00 -0.45593999997E+02  0.45594000000E+02  0.51100000000E-03 0. -1.
    9900012    2    1    2    0    0  0.54032337086E+00  0.22621653610E+00 -0.10246324416E+01  0.90007747948E+02  0.90000009421E+02 0.  0.
        -12    1    1    2    0    0 -0.54032337086E+00 -0.22621653610E+00  0.10246324416E+01  0.11802520522E+01  0.00000000000E+00 0.  1.
         11    1    3    3    0    0 -0.64439040078E+00 -0.35840643942E+02 -0.17371416422E+02  0.39833818621E+02  0.51100000000E-03 0. -1.
        -11    1    3    3    0    0  0.77005962556E+01 -0.26089372193E+01  0.16925876382E+01  0.83048533570E+01  0.51100000000E-03 0.  1.
        -12    1    3    3    0    0 -0.65158824840E+01  0.38675797698E+02  0.14654196343E+02  0.41869075969E+02  0.00000000000E+00 0.  1.
</event>
<event>
 7    1  0.1756449E-015  0.9000776E+02  0.7816164E-02  0.1186339E+00
        -11   -1    0    0    0    0  0.00000000000E+00  0.00000000000E+00  0.45593999997E+02  0.45594000000E+02  0.51100000000E-03 0.  1.
         11   -1    0    0    0    0 -0.00000000000E+00 -0.00000000000E+00 -0.45593999997E+02  0.45594000000E+02  0.51100000000E-03 0. -1.
    9900012    2    1    2    0    0 -0.19452256970E+00  0.33151988642E+00 -0.11158904268E+01  0.90007764468E+02  0.90000026159E+02 0.  0.
        -12    1    1    2    0    0  0.19452256970E+00 -0.33151988642E+00  0.11158904268E+01  0.11802355315E+01  0.00000000000E+00 0.  1.
         11    1    3    3    0    0  0.38806111713E+01  0.18159039224E+02 -0.31035027193E+02  0.36166044320E+02  0.51100000000E-03 0. -1.
        -11    1    3    3    0    0 -0.46900161725E+01  0.32522576872E+01 -0.83690823333E+01  0.10129904793E+02  0.51100000000E-03 0.  1.
        -12    1    3    3    0    0  0.61488243153E+00 -0.21079777025E+02  0.38288219099E+02  0.43711815355E+02  0.00000000000E+00 0.  1.
</event>
<event>
 7    1  0.1756449E-015  0.9000773E+02  0.7816164E-02  0.1186339E+00
        -11   -1    0    0    0    0  0.00000000000E+00  0.00000000000E+00  0.45593999997E+02  0.45594000000E+02  0.51100000000E-03 0.  1.
         11   -1    0    0    0    0 -0.00000000000E+00 -0.00000000000E+00 -0.45593999997E+02  0.45594000000E+02  0.51100000000E-03 0. -1.
    9900012    2    1    2    0    0  0.10537450894E+01 -0.52961641714E+00 -0.46644786387E-01  0.90007725456E+02  0.89999986632E+02 0.  0.
        -12    1    1    2    0    0 -0.10537450894E+01  0.52961641714E+00  0.46644786387E-01  0.11802745439E+01  0.00000000000E+00 0.  1.
         11    1    3    3    0    0 -0.86945971637E+01 -0.18501510663E+01 -0.24277014654E+01  0.92148148909E+01  0.51100000000E-03 0. -1.
        -11    1    3    3    0    0 -0.13608862527E+02 -0.21673161511E+02  0.28921721697E+02  0.38618558432E+02  0.51100000000E-03 0.  1.
         12    1    3    3    0    0  0.23357204780E+02  0.22993696160E+02 -0.26540665018E+02  0.42174352133E+02  0.00000000000E+00 0. -1.
</event>
<event>
 7    1  0.1756449E-015  0.9000790E+02  0.7816164E-02  0.1186339E+00
        -11   -1    0    0    0    0  0.00000000000E+00  0.00000000000E+00  0.45593999997E+02  0.45594000000E+02  0.51100000000E-03 0. -1.
         11   -1    0    0    0    0 -0.00000000000E+00 -0.00000000000E+00 -0.45593999997E+02  0.45594000000E+02  0.51100000000E-03 0.  1.
    9900012    2    1    2    0    0  0.11898796621E+00  0.50521558530E+00  0.10598330545E+01  0.90007895332E+02  0.90000158750E+02 0.  0.
        -12    1    1    2    0    0 -0.11898796621E+00 -0.50521558530E+00 -0.10598330545E+01  0.11801046679E+01  0.00000000000E+00 0.  1.
         11    1    3    3    0    0  0.95283221191E+01 -0.82890856754E+01  0.36478788492E+02  0.38603107049E+02  0.51100000000E-03 0. -1.
        -11    1    3    3    0    0 -0.11688438819E+01  0.71444626586E+01  0.58383035011E+01  0.93002865941E+01  0.51100000000E-03 0.  1.
        -12    1    3    3    0    0 -0.82404902710E+01  0.16498386021E+01 -0.41257258939E+02  0.42104501689E+02  0.00000000000E+00 0.  1.
</event>
<event>
 7    1  0.1756449E-015  0.9000770E+02  0.7816164E-02  0.1186339E+00
        -11   -1    0    0    0    0  0.00000000000E+00  0.00000000000E+00  0.45593999997E+02  0.45594000000E+02  0.51100000000E-03 0.  1.
         11   -1    0    0    0    0 -0.00000000000E+00 -0.00000000000E+00 -0.45593999997E+02  0.45594000000E+02  0.51100000000E-03 0. -1.
    9900012    2    1    2    0    0  0.44950907375E+00  0.10885807845E+01  0.77692806414E-01  0.90007702282E+02  0.89999963152E+02 0.  0.
        -12    1    1    2    0    0 -0.44950907375E+00 -0.10885807845E+01 -0.77692806414E-01  0.11802977183E+01  0.00000000000E+00 0.  1.
         11    1    3    3    0    0  0.32735090202E+02 -0.18768107237E+02 -0.15972926174E+02  0.40975143082E+02  0.51100000000E-03 0. -1.
        -11    1    3    3    0    0 -0.63015908857E+01 -0.14506332510E+01 -0.60156824748E+01  0.88319205397E+01  0.51100000000E-03 0.  1.
        -12    1    3    3    0    0 -0.25983990243E+02  0.21307321272E+02  0.22066301455E+02  0.40200638660E+02  0.00000000000E+00 0.  1.
</event>
<event>
 7    1  0.1756449E-015  0.9000741E+02  0.7816164E-02  0.1186340E+00
        -11   -1    0    0    0    0  0.00000000000E+00  0.00000000000E+00  0.45593999997E+02  0.45594000000E+02  0.51100000000E-03 0.  1.
         11   -1    0    0    0    0 -0.00000000000E+00 -0.00000000000E+00 -0.45593999997E+02  0.45594000000E+02  0.51100000000E-03 0. -1.
    9900012    2    1    2    0    0 -0.10560897943E+01  0.16568447117E+00  0.50101869429E+00  0.90007408314E+02  0.89999665303E+02 0.  0.
        -12    1    1    2    0    0  0.10560897943E+01 -0.16568447117E+00 -0.50101869429E+00  0.11805916863E+01  0.00000000000E+00 0.  1.
         11    1    3    3    0    0 -0.11991209352E+00 -0.85416098657E+01  0.39383473155E+01  0.94065965071E+01  0.51100000000E-03 0. -1.
        -11    1    3    3    0    0  0.98987854988E+01  0.64428957161E+01  0.36914703987E+02  0.38758124700E+02  0.51100000000E-03 0.  1.
         12    1    3    3    0    0 -0.10834963200E+02  0.22643986208E+01 -0.40352032608E+02  0.41842687106E+02  0.00000000000E+00 0. -1.
</event>
<event>
 7    1  0.1756449E-015  0.9000789E+02  0.7816164E-02  0.1186339E+00
        -11   -1    0    0    0    0  0.00000000000E+00  0.00000000000E+00  0.45593999997E+02  0.45594000000E+02  0.51100000000E-03 0. -1.
         11   -1    0    0    0    0 -0.00000000000E+00 -0.00000000000E+00 -0.45593999997E+02  0.45594000000E+02  0.51100000000E-03 0.  1.
    9900012    2    1    2    0    0 -0.28444111520E-01 -0.10359924271E+01  0.56442591973E+00  0.90007887295E+02  0.90000150608E+02 0.  0.
        -12    1    1    2    0    0  0.28444111520E-01  0.10359924271E+01 -0.56442591973E+00  0.11801127045E+01  0.00000000000E+00 0.  1.
         11    1    3    3    0    0 -0.26880775397E+01 -0.24594065400E+01  0.33423864955E+01  0.49442885368E+01  0.51100000000E-03 0. -1.
        -11    1    3    3    0    0 -0.13636202197E+02  0.21744790017E+02 -0.35143244354E+02  0.43518151698E+02  0.51100000000E-03 0.  1.
         12    1    3    3    0    0  0.16295835626E+02 -0.20321375904E+02  0.32365283778E+02  0.41545447060E+02  0.00000000000E+00 0. -1.
</event>
<event>
 7    1  0.1756449E-015  0.9000764E+02  0.7816164E-02  0.1186339E+00
        -11   -1    0    0    0    0  0.00000000000E+00  0.00000000000E+00  0.45593999997E+02  0.45594000000E+02  0.51100000000E-03 0.  1.
         11   -1    0    0    0    0 -0.00000000000E+00 -0.00000000000E+00 -0.45593999997E+02  0.45594000000E+02  0.51100000000E-03 0. -1.
    9900012    2    1    2    0    0 -0.97317450768E+00  0.65418735096E+00 -0.13500089239E+00  0.90007637787E+02  0.89999897806E+02 0.  0.
        -12    1    1    2    0    0  0.97317450768E+00 -0.65418735096E+00  0.13500089239E+00  0.11803622128E+01  0.00000000000E+00 0.  1.
         11    1    3    3    0    0  0.35317598155E+02 -0.60173103805E+01 -0.17375967606E+02  0.39817898163E+02  0.51100000000E-03 0. -1.
        -11    1    3    3    0    0 -0.32961389968E+01 -0.96535197369E+01  0.52580086904E+01  0.11476133114E+02  0.51100000000E-03 0.  1.
        -12    1    3    3    0    0 -0.32994633665E+02  0.16325017468E+02  0.11982958023E+02  0.38713606510E+02  0.00000000000E+00 0.  1.
</event>
<event>
 7    1  0.1756449E-015  0.9000771E+02  0.7816164E-02  0.1186339E+00
        -11   -1    0    0    0    0  0.00000000000E+00  0.00000000000E+00  0.45593999997E+02  0.45594000000E+02  0.51100000000E-03 0. -1.
         11   -1    0    0    0    0 -0.00000000000E+00 -0.00000000000E+00 -0.45593999997E+02  0.45594000000E+02  0.51100000000E-03 0.  1.
    9900012    2    1    2    0    0 -0.90955730668E-02 -0.59537199031E+00  0.10190841248E+01  0.90007710633E+02  0.89999971613E+02 0.  0.
        -12    1    1    2    0    0  0.90955730668E-02  0.59537199031E+00 -0.10190841248E+01  0.11802893669E+01  0.00000000000E+00 0.  1.
         11    1    3    3    0    0 -0.13983248109E+02  0.30869607228E+02  0.21523629567E+02  0.40146363573E+02  0.51100000000E-03 0. -1.
        -11    1    3    3    0    0 -0.53826792029E+01 -0.24348199621E+00 -0.10478388607E+02  0.11782578111E+02  0.51100000000E-03 0.  1.
        -12    1    3    3    0    0  0.19356831739E+02 -0.31221497223E+02 -0.10026156835E+02  0.38078768949E+02  0.00000000000E+00 0.  1.
</event>
<event>
 7    1  0.1756449E-015  0.9000764E+02  0.7816164E-02  0.1186339E+00
        -11   -1    0    0    0    0  0.00000000000E+00  0.00000000000E+00  0.45593999997E+02  0.45594000000E+02  0.51100000000E-03 0.  1.
         11   -1    0    0    0    0 -0.00000000000E+00 -0.00000000000E+00 -0.45593999997E+02  0.45594000000E+02  0.51100000000E-03 0. -1.
    9900012    2    1    2    0    0  0.10284589785E+01  0.30812036800E+00  0.49048610017E+00  0.90007643001E+02  0.89999903088E+02 0.  0.
        -12    1    1    2    0    0 -0.10284589785E+01 -0.30812036800E+00 -0.49048610017E+00  0.11803569994E+01  0.00000000000E+00 0.  1.
         11    1    3    3    0    0 -0.12129812007E+02 -0.37925712993E+02 -0.60218725160E+01  0.40271019284E+02  0.51100000000E-03 0.  1.
        -11    1    3    3    0    0 -0.72166149449E+01  0.18391092683E+02  0.78638971629E+01  0.21263882528E+02  0.51100000000E-03 0. -1.
        -12    1    3    3    0    0  0.20374885931E+02  0.19842740678E+02 -0.13515385467E+01  0.28472741188E+02  0.00000000000E+00 0.  1.
</event>
<event>
 7    1  0.1756449E-015  0.9000762E+02  0.7816164E-02  0.1186339E+00
        -11   -1    0    0    0    0  0.00000000000E+00  0.00000000000E+00  0.45593999997E+02  0.45594000000E+02  0.51100000000E-03 0. -1.
         11   -1    0    0    0    0 -0.00000000000E+00 -0.00000000000E+00 -0.45593999997E+02  0.45594000000E+02  0.51100000000E-03 0.  1.
    9900012    2    1    2    0    0  0.26901339626E-01  0.93371772797E+00  0.72162137735E+00  0.90007622988E+02  0.89999882812E+02 0.  0.
        -12    1    1    2    0    0 -0.26901339626E-01 -0.93371772797E+00 -0.72162137735E+00  0.11803770117E+01  0.00000000000E+00 0.  1.
         11    1    3    3    0    0  0.37619149127E+02  0.23874328893E+01 -0.75559076355E+01  0.38444660972E+02  0.51100000000E-03 0. -1.
        -11    1    3    3    0    0  0.14912774406E+01 -0.21199917703E+01 -0.86027080807E+01  0.89847014471E+01  0.51100000000E-03 0.  1.
        -12    1    3    3    0    0 -0.39083525228E+02  0.66627660892E+00  0.16880237094E+02  0.42578260569E+02  0.00000000000E+00 0.  1.
</event>
<event>
 7    1  0.1756449E-015  0.9000777E+02  0.7816164E-02  0.1186339E+00
        -11   -1    0    0    0    0  0.00000000000E+00  0.00000000000E+00  0.45593999997E+02  0.45594000000E+02  0.51100000000E-03 0.  1.
         11   -1    0    0    0    0 -0.00000000000E+00 -0.00000000000E+00 -0.45593999997E+02  0.45594000000E+02  0.51100000000E-03 0. -1.
    9900012    2    1    2    0    0  0.84812161756E+00  0.80453921470E+00 -0.16229229598E+00  0.90007774422E+02  0.90000036244E+02 0.  0.
        -12    1    1    2    0    0 -0.84812161756E+00 -0.80453921470E+00  0.16229229598E+00  0.11802255782E+01  0.00000000000E+00 0.  1.
         11    1    3    3    0    0  0.66102906995E+00  0.73960033674E+01  0.56677962975E+01  0.93413992727E+01  0.51100000000E-03 0. -1.
        -11    1    3    3    0    0  0.37095128746E+02 -0.18160123420E+02 -0.73833818618E+01  0.41956560718E+02  0.51100000000E-03 0.  1.
         12    1    3    3    0    0 -0.36908036199E+02  0.11568659268E+02  0.15532932683E+01  0.38709814431E+02  0.00000000000E+00 0. -1.
</event>
<event>
 7    1  0.1756449E-015  0.9000787E+02  0.7816164E-02  0.1186339E+00
        -11   -1    0    0    0    0  0.00000000000E+00  0.00000000000E+00  0.45593999997E+02  0.45594000000E+02  0.51100000000E-03 0.  1.
         11   -1    0    0    0    0 -0.00000000000E+00 -0.00000000000E+00 -0.45593999997E+02  0.45594000000E+02  0.51100000000E-03 0. -1.
    9900012    2    1    2    0    0  0.97162241408E+00  0.63386005776E+00 -0.21651399477E+00  0.90007869923E+02  0.90000133006E+02 0.  0.
        -12    1    1    2    0    0 -0.97162241408E+00 -0.63386005776E+00  0.21651399477E+00  0.11801300769E+01  0.00000000000E+00 0.  1.
         11    1    3    3    0    0  0.15897750720E+02 -0.85032113281E+01 -0.72789697961E+00  0.18043639187E+02  0.51100000000E-03 0. -1.
        -11    1    3    3    0    0  0.36257109417E+01 -0.26128729247E+02  0.14039719842E+02  0.29882603725E+02  0.51100000000E-03 0.  1.
         12    1    3    3    0    0 -0.18551839247E+02  0.35265800633E+02 -0.13528336858E+02  0.42081627011E+02  0.00000000000E+00 0. -1.
</event>
<event>
 7    1  0.1756449E-015  0.9000779E+02  0.7816164E-02  0.1186339E+00
        -11   -1    0    0    0    0  0.00000000000E+00  0.00000000000E+00  0.45593999997E+02  0.45594000000E+02  0.51100000000E-03 0.  1.
         11   -1    0    0    0    0 -0.00000000000E+00 -0.00000000000E+00 -0.45593999997E+02  0.45594000000E+02  0.51100000000E-03 0. -1.
    9900012    2    1    2    0    0 -0.56893593710E+00 -0.86671758046E-01 -0.10303860049E+01  0.90007790098E+02  0.90000052127E+02 0.  0.
        -12    1    1    2    0    0  0.56893593710E+00  0.86671758046E-01  0.10303860049E+01  0.11802099022E+01  0.00000000000E+00 0.  1.
         11    1    3    3    0    0  0.38785915605E+01  0.95358028245E+01 -0.41255261062E+01  0.11090309911E+02  0.51100000000E-03 0. -1.
        -11    1    3    3    0    0  0.11383312578E+02  0.30153469900E+02  0.13365975387E+02  0.34892131643E+02  0.51100000000E-03 0.  1.
         12    1    3    3    0    0 -0.15830840076E+02 -0.39775944483E+02 -0.10270835285E+02  0.44025348544E+02  0.00000000000E+00 0. -1.
</event>
<event>
 7    1  0.1756449E-015  0.9000770E+02  0.7816164E-02  0.1186339E+00
        -11   -1    0    0    0    0  0.00000000000E+00  0.00000000000E+00  0.45593999997E+02  0.45594000000E+02  0.51100000000E-03 0.  1.
         11   -1    0    0    0    0 -0.00000000000E+00 -0.00000000000E+00 -0.45593999997E+02  0.45594000000E+02  0.51100000000E-03 0. -1.
    9900012    2    1    2    0    0  0.74359158893E+00 -0.76764047505E+00 -0.50089560281E+00  0.90007704802E+02  0.89999965705E+02 0.  0.
        -12    1    1    2    0    0 -0.74359158893E+00  0.76764047505E+00  0.50089560281E+00  0.11802951982E+01  0.00000000000E+00 0.  1.
         11    1    3    3    0    0  0.11865372261E+02 -0.49260125478E+01 -0.34456504002E+02  0.36773677091E+02  0.51100000000E-03 0. -1.
        -11    1    3    3    0    0  0.72696998820E+01 -0.16464292679E+01 -0.55360738186E+01  0.92847929053E+01  0.51100000000E-03 0.  1.
        -12    1    3    3    0    0 -0.18391480554E+02  0.58048013406E+01  0.39491682218E+02  0.43949234805E+02  0.00000000000E+00 0.  1.
</event>
<event>
 7    1  0.1756449E-015  0.9000771E+02  0.7816164E-02  0.1186339E+00
        -11   -1    0    0    0    0  0.00000000000E+00  0.00000000000E+00  0.45593999997E+02  0.45594000000E+02  0.51100000000E-03 0. -1.
         11   -1    0    0    0    0 -0.00000000000E+00 -0.00000000000E+00 -0.45593999997E+02  0.45594000000E+02  0.51100000000E-03 0.  1.
    9900012    2    1    2    0    0 -0.88770940181E+00  0.62999542846E+00  0.45625089882E+00  0.90007708890E+02  0.89999969847E+02 0.  0.
        -12    1    1    2    0    0  0.88770940181E+00 -0.62999542846E+00 -0.45625089882E+00  0.11802911101E+01  0.00000000000E+00 0.  1.
         11    1    3    3    0    0  0.76743717629E+01  0.14654528679E+02  0.32640202618E+02  0.36592813775E+02  0.51100000000E-03 0. -1.
        -11    1    3    3    0    0  0.80370809686E+01  0.23754801320E+01  0.48200585425E+01  0.96680163926E+01  0.51100000000E-03 0.  1.
        -12    1    3    3    0    0 -0.16599162133E+02 -0.16400013382E+02 -0.37004010262E+02  0.43746878722E+02  0.00000000000E+00 0.  1.
</event>
<event>
 7    1  0.2043185E-015  0.9000775E+02  0.7816164E-02  0.1186339E+00
        -11   -1    0    0    0    0  0.00000000000E+00  0.00000000000E+00  0.45593999997E+02  0.45594000000E+02  0.51100000000E-03 0. -1.
         11   -1    0    0    0    0 -0.00000000000E+00 -0.00000000000E+00 -0.45593999997E+02  0.45594000000E+02  0.51100000000E-03 0.  1.
    9900012    2    1    2    0    0  0.66017510096E-01 -0.62914846390E-01  0.11767188473E+01  0.90007752638E+02  0.90000014173E+02 0.  0.
        -12    1    1    2    0    0 -0.66017510096E-01  0.62914846390E-01 -0.11767188473E+01  0.11802473618E+01  0.00000000000E+00 0.  1.
         11    1    3    3    0    0 -0.51812589859E+01  0.59040681535E+01  0.63249557749E+01  0.10085064762E+02  0.51100000000E-03 0. -1.
        -11    1    3    3    0    0 -0.34698280208E+02  0.78209901172E+01 -0.11069913286E+02  0.37251597499E+02  0.51100000000E-03 0.  1.
         12    1    3    3    0    0  0.39945556704E+02 -0.13787973117E+02  0.59216763583E+01  0.42671090377E+02  0.00000000000E+00 0. -1.
</event>
<event>
 7    1  0.1756449E-015  0.9000770E+02  0.7816164E-02  0.1186339E+00
        -11   -1    0    0    0    0  0.00000000000E+00  0.00000000000E+00  0.45593999997E+02  0.45594000000E+02  0.51100000000E-03 0.  1.
         11   -1    0    0    0    0 -0.00000000000E+00 -0.00000000000E+00 -0.45593999997E+02  0.45594000000E+02  0.51100000000E-03 0. -1.
    9900012    2    1    2    0    0  0.12365464575E+00 -0.74755032758E+00 -0.90497634507E+00  0.90007701670E+02  0.89999962532E+02 0.  0.
        -12    1    1    2    0    0 -0.12365464575E+00  0.74755032758E+00  0.90497634507E+00  0.11802983304E+01  0.00000000000E+00 0.  1.
         11    1    3    3    0    0  0.76222277846E+01  0.25050717446E+01 -0.58821680809E+01  0.99485497656E+01  0.51100000000E-03 0. -1.
        -11    1    3    3    0    0  0.13665961345E+02  0.34162316249E+02  0.75828916701E-01  0.36794403124E+02  0.51100000000E-03 0.  1.
         12    1    3    3    0    0 -0.21164534484E+02 -0.37414938321E+02  0.49013628191E+01  0.43264748780E+02  0.00000000000E+00 0. -1.
</event>
<event>
 7    1  0.1756449E-015  0.9000769E+02  0.7816164E-02  0.1186339E+00
        -11   -1    0    0    0    0  0.00000000000E+00  0.00000000000E+00  0.45593999997E+02  0.45594000000E+02  0.51100000000E-03 0.  1.
         11   -1    0    0    0    0 -0.00000000000E+00 -0.00000000000E+00 -0.45593999997E+02  0.45594000000E+02  0.51100000000E-03 0. -1.
    9900012    2    1    2    0    0  0.14820292898E+00  0.93600632965E+00 -0.70359843099E+00  0.90007693807E+02  0.89999954565E+02 0.  0.
        -12    1    1    2    0    0 -0.14820292898E+00 -0.93600632965E+00  0.70359843099E+00  0.11803061931E+01  0.00000000000E+00 0.  1.
         11    1    3    3    0    0 -0.28936177742E+01 -0.63917575409E+01 -0.82181401496E+01  0.10805804739E+02  0.51100000000E-03 0. -1.
        -11    1    3    3    0    0 -0.24442907952E+02 -0.24433628596E+02 -0.60021033898E+01  0.35078243982E+02  0.51100000000E-03 0.  1.
         12    1    3    3    0    0  0.27484728655E+02  0.31761392467E+02  0.13516645108E+02  0.44123645086E+02  0.00000000000E+00 0. -1.
</event>
<event>
 7    1  0.1756449E-015  0.9000791E+02  0.7816164E-02  0.1186339E+00
        -11   -1    0    0    0    0  0.00000000000E+00  0.00000000000E+00  0.45593999997E+02  0.45594000000E+02  0.51100000000E-03 0. -1.
         11   -1    0    0    0    0 -0.00000000000E+00 -0.00000000000E+00 -0.45593999997E+02  0.45594000000E+02  0.51100000000E-03 0.  1.
    9900012    2    1    2    0    0 -0.27626069904E+00  0.11317255025E+00  0.11417012028E+01  0.90007911174E+02  0.90000174802E+02 0.  0.
        -12    1    1    2    0    0  0.27626069904E+00 -0.11317255025E+00 -0.11417012028E+01  0.11800888256E+01  0.00000000000E+00 0.  1.
         11    1    3    3    0    0 -0.86321319914E+00  0.75390936157E+01 -0.78353509122E+00  0.76286956338E+01  0.51100000000E-03 0. -1.
        -11    1    3    3    0    0 -0.21949713223E+02  0.44330421469E+01 -0.32555697907E+02  0.39513481746E+02  0.51100000000E-03 0.  1.
         12    1    3    3    0    0  0.22536665723E+02 -0.11858963212E+02  0.34480934201E+02  0.42865733794E+02  0.00000000000E+00 0. -1.
</event>
<event>
 7    1  0.1756449E-015  0.9000773E+02  0.7816164E-02  0.1186339E+00
        -11   -1    0    0    0    0  0.00000000000E+00  0.00000000000E+00  0.45593999997E+02  0.45594000000E+02  0.51100000000E-03 0. -1.
         11   -1    0    0    0    0 -0.00000000000E+00 -0.00000000000E+00 -0.45593999997E+02  0.45594000000E+02  0.51100000000E-03 0.  1.
    9900012    2    1    2    0    0  0.32380507688E+00  0.10741282535E+01 -0.36664422518E+00  0.90007733411E+02  0.89999994692E+02 0.  0.
        -12    1    1    2    0    0 -0.32380507688E+00 -0.10741282535E+01  0.36664422518E+00  0.11802665888E+01  0.00000000000E+00 0.  1.
         11    1    3    3    0    0  0.99695134397E+00 -0.74665328949E+01 -0.54648017004E+01  0.93062926742E+01  0.51100000000E-03 0. -1.
        -11    1    3    3    0    0 -0.32658115167E+00 -0.19866112502E+02 -0.29728878674E+02  0.35757171430E+02  0.51100000000E-03 0.  1.
         12    1    3    3    0    0 -0.34656511542E+00  0.28406773650E+02  0.34827036150E+02  0.44944269307E+02  0.00000000000E+00 0. -1.
</event>
<event>
 7    1  0.1756449E-015  0.9000779E+02  0.7816164E-02  0.1186339E+00
        -11   -1    0    0    0    0  0.00000000000E+00  0.00000000000E+00  0.45593999997E+02  0.45594000000E+02  0.51100000000E-03 0.  1.
         11   -1    0    0    0    0 -0.00000000000E+00 -0.00000000000E+00 -0.45593999997E+02  0.45594000000E+02  0.51100000000E-03 0. -1.
    9900012    2    1    2    0    0 -0.73803072963E+00 -0.85808290972E+00 -0.33452143956E+00  0.90007788057E+02  0.90000050059E+02 0.  0.
        -12    1    1    2    0    0  0.73803072963E+00  0.85808290972E+00  0.33452143956E+00  0.11802119434E+01  0.00000000000E+00 0.  1.
         11    1    3    3    0    0  0.35099569867E+02 -0.33959826343E+01  0.23670580777E+02  0.42471271437E+02  0.51100000000E-03 0. -1.
        -11    1    3    3    0    0 -0.10641875971E+01 -0.17845879053E+00 -0.98263355021E+01  0.98854040101E+01  0.51100000000E-03 0.  1.
        -12    1    3    3    0    0 -0.34773412999E+02  0.27163585151E+01 -0.14178766715E+02  0.37651112610E+02  0.00000000000E+00 0.  1.
</event>
<event>
 7    1  0.1756449E-015  0.9000773E+02  0.7816164E-02  0.1186339E+00
        -11   -1    0    0    0    0  0.00000000000E+00  0.00000000000E+00  0.45593999997E+02  0.45594000000E+02  0.51100000000E-03 0.  1.
         11   -1    0    0    0    0 -0.00000000000E+00 -0.00000000000E+00 -0.45593999997E+02  0.45594000000E+02  0.51100000000E-03 0. -1.
    9900012    2    1    2    0    0  0.45402506712E+00  0.10312468815E+01  0.35131932983E+00  0.90007731317E+02  0.89999992571E+02 0.  0.
        -12    1    1    2    0    0 -0.45402506712E+00 -0.10312468815E+01 -0.35131932983E+00  0.11802686828E+01  0.00000000000E+00 0.  1.
         11    1    3    3    0    0 -0.29600913706E+01 -0.27072883793E+01  0.81785741759E+01  0.91093702912E+01  0.51100000000E-03 0. -1.
        -11    1    3    3    0    0  0.23864125688E+02 -0.19487231197E+02  0.22046883248E+02  0.37885534651E+02  0.51100000000E-03 0.  1.
         12    1    3    3    0    0 -0.20450009250E+02  0.23225766458E+02 -0.29874138094E+02  0.43012826375E+02  0.00000000000E+00 0. -1.
</event>
<event>
 7    1  0.1756449E-015  0.9000789E+02  0.7816164E-02  0.1186339E+00
        -11   -1    0    0    0    0  0.00000000000E+00  0.00000000000E+00  0.45593999997E+02  0.45594000000E+02  0.51100000000E-03 0.  1.
         11   -1    0    0    0    0 -0.00000000000E+00 -0.00000000000E+00 -0.45593999997E+02  0.45594000000E+02  0.51100000000E-03 0. -1.
    9900012    2    1    2    0    0  0.10757864738E+01 -0.21367407086E-01  0.48464070863E+00  0.90007894191E+02  0.90000157594E+02 0.  0.
        -12    1    1    2    0    0 -0.10757864738E+01  0.21367407086E-01 -0.48464070863E+00  0.11801058087E+01  0.00000000000E+00 0.  1.
         11    1    3    3    0    0  0.10693271227E+02  0.41788250254E+01  0.11851731543E+02  0.16500671773E+02  0.51100000000E-03 0. -1.
        -11    1    3    3    0    0 -0.18487643674E+02 -0.31433006236E+02 -0.22419989543E+02  0.42807508465E+02  0.51100000000E-03 0.  1.
         12    1    3    3    0    0  0.88701589207E+01  0.27232813804E+02  0.11052898709E+02  0.30699713953E+02  0.00000000000E+00 0. -1.
</event>
<event>
 7    1  0.1756449E-015  0.9000774E+02  0.7816164E-02  0.1186339E+00
        -11   -1    0    0    0    0  0.00000000000E+00  0.00000000000E+00  0.45593999997E+02  0.45594000000E+02  0.51100000000E-03 0.  1.
         11   -1    0    0    0    0 -0.00000000000E+00 -0.00000000000E+00 -0.45593999997E+02  0.45594000000E+02  0.51100000000E-03 0. -1.
    9900012    2    1    2    0    0  0.29634775577E+00 -0.71049409697E+00 -0.89464864486E+00  0.90007737295E+02  0.89999998628E+02 0.  0.
        -12    1    1    2    0    0 -0.29634775577E+00  0.71049409697E+00  0.89464864486E+00  0.11802627046E+01  0.00000000000E+00 0.  1.
         11    1    3    3    0    0  0.84543180939E+00 -0.18068962000E+02 -0.23480713492E+02  0.29640277479E+02  0.51100000000E-03 0. -1.
        -11    1    3    3    0    0  0.44904189273E+01 -0.18693973266E+02  0.46227860548E+01  0.19773685792E+02  0.51100000000E-03 0.  1.
        -12    1    3    3    0    0 -0.50395029810E+01  0.36052441169E+02  0.17963278792E+02  0.40593774024E+02  0.00000000000E+00 0.  1.
</event>
<event>
 7    1  0.1756449E-015  0.9000775E+02  0.7816164E-02  0.1186339E+00
        -11   -1    0    0    0    0  0.00000000000E+00  0.00000000000E+00  0.45593999997E+02  0.45594000000E+02  0.51100000000E-03 0. -1.
         11   -1    0    0    0    0 -0.00000000000E+00 -0.00000000000E+00 -0.45593999997E+02  0.45594000000E+02  0.51100000000E-03 0.  1.
    9900012    2    1    2    0    0 -0.48971539807E+00  0.39582623216E+00  0.99824317766E+00  0.90007750442E+02  0.90000011948E+02 0.  0.
        -12    1    1    2    0    0  0.48971539807E+00 -0.39582623216E+00 -0.99824317766E+00  0.11802495579E+01  0.00000000000E+00 0.  1.
         11    1    3    3    0    0 -0.10141685018E+02 -0.40445770492E+01 -0.18329758963E+01  0.11071232064E+02  0.51100000000E-03 0. -1.
        -11    1    3    3    0    0  0.54297229842E+01 -0.35541955055E+02  0.11614287935E+02  0.37783649179E+02  0.51100000000E-03 0.  1.
         12    1    3    3    0    0  0.42222466355E+01  0.39982358336E+02 -0.87830688610E+01  0.41152869200E+02  0.00000000000E+00 0. -1.
</event>
<event>
 7    1  0.1756449E-015  0.9000771E+02  0.7816164E-02  0.1186339E+00
        -11   -1    0    0    0    0  0.00000000000E+00  0.00000000000E+00  0.45593999997E+02  0.45594000000E+02  0.51100000000E-03 0.  1.
         11   -1    0    0    0    0 -0.00000000000E+00 -0.00000000000E+00 -0.45593999997E+02  0.45594000000E+02  0.51100000000E-03 0. -1.
    9900012    2    1    2    0    0  0.66281891629E-02  0.11328860367E+01 -0.33105841819E+00  0.90007714280E+02  0.89999975308E+02 0.  0.
        -12    1    1    2    0    0 -0.66281891629E-02 -0.11328860367E+01  0.33105841819E+00  0.11802857202E+01  0.00000000000E+00 0.  1.
         11    1    3    3    0    0  0.62660449724E+01 -0.22358131956E+02 -0.96299626384E+01  0.25137334084E+02  0.51100000000E-03 0. -1.
        -11    1    3    3    0    0  0.25150784124E+02  0.20618549483E+02  0.68385061421E+01  0.33233291913E+02  0.51100000000E-03 0.  1.
        -12    1    3    3    0    0 -0.31410200907E+02  0.28724685097E+01  0.24603980781E+01  0.31637088284E+02  0.00000000000E+00 0.  1.
</event>
<event>
 7    1  0.1756449E-015  0.9000778E+02  0.7816164E-02  0.1186339E+00
        -11   -1    0    0    0    0  0.00000000000E+00  0.00000000000E+00  0.45593999997E+02  0.45594000000E+02  0.51100000000E-03 0.  1.
         11   -1    0    0    0    0 -0.00000000000E+00 -0.00000000000E+00 -0.45593999997E+02  0.45594000000E+02  0.51100000000E-03 0. -1.
    9900012    2    1    2    0    0 -0.26755856247E+00  0.11431041096E+01  0.12099077130E+00  0.90007782496E+02  0.90000044425E+02 0.  0.
        -12    1    1    2    0    0  0.26755856247E+00 -0.11431041096E+01 -0.12099077130E+00  0.11802175039E+01  0.00000000000E+00 0.  1.
         11    1    3    3    0    0 -0.32899274275E+01 -0.57464362707E+01  0.29402974748E+01  0.72450329049E+01  0.51100000000E-03 0. -1.
        -11    1    3    3    0    0 -0.13704491639E+02 -0.19496893982E+02  0.29425475080E+02  0.37865558889E+02  0.51100000000E-03 0.  1.
         12    1    3    3    0    0  0.16726860504E+02  0.26386434363E+02 -0.32244781783E+02  0.44897190702E+02  0.00000000000E+00 0. -1.
</event>
<event>
 7    1  0.1756449E-015  0.9000772E+02  0.7816164E-02  0.1186339E+00
        -11   -1    0    0    0    0  0.00000000000E+00  0.00000000000E+00  0.45593999997E+02  0.45594000000E+02  0.51100000000E-03 0. -1.
         11   -1    0    0    0    0 -0.00000000000E+00 -0.00000000000E+00 -0.45593999997E+02  0.45594000000E+02  0.51100000000E-03 0.  1.
    9900012    2    1    2    0    0 -0.41594684622E+00 -0.76841011813E+00  0.79346316754E+00  0.90007724741E+02  0.89999985908E+02 0.  0.
        -12    1    1    2    0    0  0.41594684622E+00  0.76841011813E+00 -0.79346316754E+00  0.11802752589E+01  0.00000000000E+00 0.  1.
         11    1    3    3    0    0  0.47543853303E+01 -0.38509728034E+02 -0.13973971657E+01  0.38827259139E+02  0.51100000000E-03 0. -1.
        -11    1    3    3    0    0  0.20171324933E+01 -0.15538909157E+01  0.10135967341E+02  0.10450896357E+02  0.51100000000E-03 0.  1.
        -12    1    3    3    0    0 -0.71874646698E+01  0.39295208832E+02 -0.79451070074E+01  0.40729569245E+02  0.00000000000E+00 0.  1.
</event>
<event>
 7    1  0.1756449E-015  0.9000777E+02  0.7816164E-02  0.1186339E+00
        -11   -1    0    0    0    0  0.00000000000E+00  0.00000000000E+00  0.45593999997E+02  0.45594000000E+02  0.51100000000E-03 0.  1.
         11   -1    0    0    0    0 -0.00000000000E+00 -0.00000000000E+00 -0.45593999997E+02  0.45594000000E+02  0.51100000000E-03 0. -1.
    9900012    2    1    2    0    0 -0.16729101750E+00  0.65188154456E+00 -0.96953482277E+00  0.90007773918E+02  0.90000035733E+02 0.  0.
        -12    1    1    2    0    0  0.16729101750E+00 -0.65188154456E+00  0.96953482277E+00  0.11802260823E+01  0.00000000000E+00 0.  1.
         11    1    3    3    0    0 -0.32993605214E+02 -0.10224921289E+02 -0.13477396876E+02  0.37077853595E+02  0.51100000000E-03 0. -1.
        -11    1    3    3    0    0 -0.20283365113E+01 -0.84732874847E+01 -0.42394636429E+01  0.96893654096E+01  0.51100000000E-03 0.  1.
        -12    1    3    3    0    0  0.34854650707E+02  0.19350090318E+02  0.16747325696E+02  0.43240554914E+02  0.00000000000E+00 0.  1.
</event>
<event>
 7    1  0.1756449E-015  0.9000776E+02  0.7816164E-02  0.1186339E+00
        -11   -1    0    0    0    0  0.00000000000E+00  0.00000000000E+00  0.45593999997E+02  0.45594000000E+02  0.51100000000E-03 0.  1.
         11   -1    0    0    0    0 -0.00000000000E+00 -0.00000000000E+00 -0.45593999997E+02  0.45594000000E+02  0.51100000000E-03 0. -1.
    9900012    2    1    2    0    0 -0.10651359783E+01 -0.26901508226E+00 -0.43138377640E+00  0.90007756072E+02  0.90000017652E+02 0.  0.
        -12    1    1    2    0    0  0.10651359783E+01  0.26901508226E+00  0.43138377640E+00  0.11802439279E+01  0.00000000000E+00 0.  1.
         11    1    3    3    0    0 -0.31448303459E+02  0.31026237256E+01 -0.12273565591E+02  0.33900773988E+02  0.51100000000E-03 0. -1.
        -11    1    3    3    0    0  0.18829363393E+00  0.14273647279E+02 -0.75175888099E+01  0.16133400228E+02  0.51100000000E-03 0.  1.
        -12    1    3    3    0    0  0.30194873847E+02 -0.17645286087E+02  0.19359770624E+02  0.39973581855E+02  0.00000000000E+00 0.  1.
</event>
<event>
 7    1  0.1756449E-015  0.9000774E+02  0.7816164E-02  0.1186339E+00
        -11   -1    0    0    0    0  0.00000000000E+00  0.00000000000E+00  0.45593999997E+02  0.45594000000E+02  0.51100000000E-03 0.  1.
         11   -1    0    0    0    0 -0.00000000000E+00 -0.00000000000E+00 -0.45593999997E+02  0.45594000000E+02  0.51100000000E-03 0. -1.
    9900012    2    1    2    0    0 -0.60750373428E+00  0.25851735298E+00 -0.97832324734E+00  0.90007742238E+02  0.90000003635E+02 0.  0.
        -12    1    1    2    0    0  0.60750373428E+00 -0.25851735298E+00  0.97832324734E+00  0.11802577622E+01  0.00000000000E+00 0.  1.
         11    1    3    3    0    0  0.81105246670E+01  0.54513198064E+01 -0.50285447578E+01  0.10990166543E+02  0.51100000000E-03 0. -1.
        -11    1    3    3    0    0 -0.21969944377E+02 -0.22222000606E+01  0.37162706011E+02  0.43228270233E+02  0.51100000000E-03 0.  1.
         12    1    3    3    0    0  0.13251915976E+02 -0.29706023928E+01 -0.33112484501E+02  0.35789305461E+02  0.00000000000E+00 0. -1.
</event>
