<event>
 7    1  0.4675811E-010  0.4778727E+02  0.7816164E-02  0.1312668E+00
        -11   -1    0    0    0    0  0.00000000000E+00  0.00000000000E+00  0.45593999997E+02  0.45594000000E+02  0.51100000000E-03 0. -1.
         11   -1    0    0    0    0 -0.00000000000E+00 -0.00000000000E+00 -0.45593999997E+02  0.45594000000E+02  0.51100000000E-03 0.  1.
    9900012    2    1    2    0    0  0.58147541808E+00 -0.17897920675E+02  0.39534160190E+02  0.47787268439E+02  0.19999988119E+02 0.  0.
        -12    1    1    2    0    0 -0.58147541808E+00  0.17897920675E+02 -0.39534160190E+02  0.43400731561E+02  0.00000000000E+00 0.  1.
         11    1    3    3    0    0 -0.63041953027E+00 -0.14405159755E+02  0.21397415240E+02  0.25802237026E+02  0.51100000000E-03 0. -1.
        -11    1    3    3    0    0 -0.38773050427E+01 -0.49889555541E+01  0.58865728837E+01  0.86356767245E+01  0.51100000000E-03 0.  1.
         12    1    3    3    0    0  0.50891999910E+01  0.14961946341E+01  0.12250172066E+02  0.13349354688E+02  0.00000000000E+00 0. -1.
</event>
<event>
 7    1  0.4675811E-010  0.4778727E+02  0.7816164E-02  0.1312668E+00
        -11   -1    0    0    0    0  0.00000000000E+00  0.00000000000E+00  0.45593999997E+02  0.45594000000E+02  0.51100000000E-03 0. -1.
         11   -1    0    0    0    0 -0.00000000000E+00 -0.00000000000E+00 -0.45593999997E+02  0.45594000000E+02  0.51100000000E-03 0.  1.
    9900012    2    1    2    0    0 -0.14391399290E+02  0.90035472886E+01  0.39943049611E+02  0.47787269020E+02  0.19999990772E+02 0.  0.
        -12    1    1    2    0    0  0.14391399290E+02 -0.90035472886E+01 -0.39943049611E+02  0.43400730980E+02  0.00000000000E+00 0.  1.
         11    1    3    3    0    0 -0.51341950206E+01  0.34266620519E+01  0.18993810620E+02  0.19971650244E+02  0.51100000000E-03 0. -1.
        -11    1    3    3    0    0 -0.43015496633E+01 -0.49878881039E+01  0.84844576155E+01  0.10740967300E+02  0.51100000000E-03 0.  1.
         12    1    3    3    0    0 -0.49556546059E+01  0.10564773341E+02  0.12464781375E+02  0.17074651477E+02  0.00000000000E+00 0. -1.
</event>
<event>
 7    1  0.4675811E-010  0.4778727E+02  0.7816164E-02  0.1312668E+00
        -11   -1    0    0    0    0  0.00000000000E+00  0.00000000000E+00  0.45593999997E+02  0.45594000000E+02  0.51100000000E-03 0.  1.
         11   -1    0    0    0    0 -0.00000000000E+00 -0.00000000000E+00 -0.45593999997E+02  0.45594000000E+02  0.51100000000E-03 0. -1.
    9900012    2    1    2    0    0  0.67532803929E+01  0.40824035847E+02 -0.13092544663E+02  0.47787269307E+02  0.19999992078E+02 0.  0.
        -12    1    1    2    0    0 -0.67532803929E+01 -0.40824035847E+02  0.13092544663E+02  0.43400730693E+02  0.00000000000E+00 0.  1.
         11    1    3    3    0    0  0.49846549471E+01  0.29210835535E+02 -0.17138508388E+02  0.34232267930E+02  0.51100000000E-03 0. -1.
        -11    1    3    3    0    0  0.25468068129E+01  0.53712779408E+01 -0.23014393626E+00  0.59489342030E+01  0.51100000000E-03 0.  1.
         12    1    3    3    0    0 -0.77818136713E+00  0.62419223715E+01  0.42761076605E+01  0.76060671740E+01  0.00000000000E+00 0. -1.
</event>
<event>
 7    1  0.4675811E-010  0.4778727E+02  0.7816164E-02  0.1312668E+00
        -11   -1    0    0    0    0  0.00000000000E+00  0.00000000000E+00  0.45593999997E+02  0.45594000000E+02  0.51100000000E-03 0.  1.
         11   -1    0    0    0    0 -0.00000000000E+00 -0.00000000000E+00 -0.45593999997E+02  0.45594000000E+02  0.51100000000E-03 0. -1.
    9900012    2    1    2    0    0 -0.25832140941E+02  0.76453903346E+01 -0.34027511287E+02  0.47787273931E+02  0.20000013161E+02 0.  0.
        -12    1    1    2    0    0  0.25832140941E+02 -0.76453903346E+01  0.34027511287E+02  0.43400726069E+02  0.00000000000E+00 0.  1.
         11    1    3    3    0    0 -0.48447268977E+01  0.74619747877E+01 -0.19702445362E+01  0.91123164036E+01  0.51100000000E-03 0. -1.
        -11    1    3    3    0    0 -0.10079778281E+00 -0.40170946455E+00 -0.58688091006E-02  0.41420452795E+00  0.51100000000E-03 0.  1.
         12    1    3    3    0    0 -0.20886616260E+02  0.58512501146E+00 -0.32051397941E+02  0.38260752999E+02  0.00000000000E+00 0. -1.
</event>
<event>
 7    1  0.4675811E-010  0.4778727E+02  0.7816164E-02  0.1312668E+00
        -11   -1    0    0    0    0  0.00000000000E+00  0.00000000000E+00  0.45593999997E+02  0.45594000000E+02  0.51100000000E-03 0.  1.
         11   -1    0    0    0    0 -0.00000000000E+00 -0.00000000000E+00 -0.45593999997E+02  0.45594000000E+02  0.51100000000E-03 0. -1.
    9900012    2    1    2    0    0  0.20192246863E+02  0.66363875757E+01 -0.37839858671E+02  0.47787269849E+02  0.19999994548E+02 0.  0.
        -12    1    1    2    0    0 -0.20192246863E+02 -0.66363875757E+01  0.37839858671E+02  0.43400730151E+02  0.00000000000E+00 0.  1.
         11    1    3    3    0    0  0.91053329164E+01  0.80089471907E+01 -0.10898449033E+02  0.16304187014E+02  0.51100000000E-03 0. -1.
        -11    1    3    3    0    0  0.73740909143E+01  0.28105218839E+00 -0.44285862381E+01  0.86063106773E+01  0.51100000000E-03 0.  1.
        -12    1    3    3    0    0  0.37128230318E+01 -0.16536118034E+01 -0.22512823401E+02  0.22876772157E+02  0.00000000000E+00 0.  1.
</event>
<event>
 7    1  0.4675811E-010  0.4778727E+02  0.7816164E-02  0.1312668E+00
        -11   -1    0    0    0    0  0.00000000000E+00  0.00000000000E+00  0.45593999997E+02  0.45594000000E+02  0.51100000000E-03 0.  1.
         11   -1    0    0    0    0 -0.00000000000E+00 -0.00000000000E+00 -0.45593999997E+02  0.45594000000E+02  0.51100000000E-03 0. -1.
    9900012    2    1    2    0    0 -0.24129274012E+02  0.26693998273E+02 -0.24265863636E+02  0.47787267908E+02  0.19999985699E+02 0.  0.
        -12    1    1    2    0    0  0.24129274012E+02 -0.26693998273E+02  0.24265863636E+02  0.43400732092E+02  0.00000000000E+00 0.  1.
         11    1    3    3    0    0 -0.13836633978E+02  0.64751647300E+01 -0.99908283441E+01  0.18253680434E+02  0.51100000000E-03 0. -1.
        -11    1    3    3    0    0 -0.26989459003E+01  0.86063107774E+01  0.78817905811E+00  0.90539560778E+01  0.51100000000E-03 0.  1.
         12    1    3    3    0    0 -0.75936941338E+01  0.11612522765E+02 -0.15063214350E+02  0.20479631397E+02  0.00000000000E+00 0. -1.
</event>
<event>
 7    1  0.4675811E-010  0.4778727E+02  0.7816164E-02  0.1312668E+00
        -11   -1    0    0    0    0  0.00000000000E+00  0.00000000000E+00  0.45593999997E+02  0.45594000000E+02  0.51100000000E-03 0.  1.
         11   -1    0    0    0    0 -0.00000000000E+00 -0.00000000000E+00 -0.45593999997E+02  0.45594000000E+02  0.51100000000E-03 0. -1.
    9900012    2    1    2    0    0 -0.31491489508E+02 -0.29493046025E+02  0.46978266263E+01  0.47787271316E+02  0.20000001240E+02 0.  0.
        -12    1    1    2    0    0  0.31491489508E+02  0.29493046025E+02 -0.46978266263E+01  0.43400728684E+02  0.00000000000E+00 0.  1.
         11    1    3    3    0    0 -0.13440866124E+02 -0.83922311359E+01 -0.63394206157E+01  0.17066771212E+02  0.51100000000E-03 0. -1.
        -11    1    3    3    0    0 -0.13315336859E+01 -0.24524523883E+00 -0.70356188086E+00  0.15258200304E+01  0.51100000000E-03 0.  1.
        -12    1    3    3    0    0 -0.16719089698E+02 -0.20855569650E+02  0.11740809123E+02  0.29194680074E+02  0.00000000000E+00 0.  1.
</event>
<event>
 7    1  0.4675811E-010  0.4778727E+02  0.7816164E-02  0.1312668E+00
        -11   -1    0    0    0    0  0.00000000000E+00  0.00000000000E+00  0.45593999997E+02  0.45594000000E+02  0.51100000000E-03 0. -1.
         11   -1    0    0    0    0 -0.00000000000E+00 -0.00000000000E+00 -0.45593999997E+02  0.45594000000E+02  0.51100000000E-03 0.  1.
    9900012    2    1    2    0    0  0.27844915307E+01 -0.35695219928E+02  0.24530004821E+02  0.47787271258E+02  0.20000000973E+02 0.  0.
        -12    1    1    2    0    0 -0.27844915307E+01  0.35695219928E+02 -0.24530004821E+02  0.43400728742E+02  0.00000000000E+00 0.  1.
         11    1    3    3    0    0  0.27777030199E+01 -0.10636406577E+01 -0.57138522740E+00  0.30287698583E+01  0.51100000000E-03 0.  1.
        -11    1    3    3    0    0  0.77724070978E+00 -0.32590571185E+02  0.26630546589E+02  0.42094363580E+02  0.51100000000E-03 0. -1.
         12    1    3    3    0    0 -0.77045219892E+00 -0.20410080851E+01 -0.15291565406E+01  0.26641378193E+01  0.00000000000E+00 0. -1.
</event>
<event>
 7    1  0.4675811E-010  0.4778727E+02  0.7816164E-02  0.1312668E+00
        -11   -1    0    0    0    0  0.00000000000E+00  0.00000000000E+00  0.45593999997E+02  0.45594000000E+02  0.51100000000E-03 0. -1.
         11   -1    0    0    0    0 -0.00000000000E+00 -0.00000000000E+00 -0.45593999997E+02  0.45594000000E+02  0.51100000000E-03 0.  1.
    9900012    2    1    2    0    0  0.47815147823E+01  0.33127505351E+01  0.43009136423E+02  0.47787274020E+02  0.20000013568E+02 0.  0.
        -12    1    1    2    0    0 -0.47815147823E+01 -0.33127505351E+01 -0.43009136423E+02  0.43400725980E+02  0.00000000000E+00 0.  1.
         11    1    3    3    0    0  0.80681515240E+00 -0.21387643147E+01  0.19801470519E+01  0.30242761270E+01  0.51100000000E-03 0. -1.
        -11    1    3    3    0    0  0.77229945132E+01 -0.32214880332E+01  0.17145831174E+02  0.19078840539E+02  0.51100000000E-03 0.  1.
         12    1    3    3    0    0 -0.37482948832E+01  0.86730028830E+01  0.23883158197E+02  0.25684157354E+02  0.00000000000E+00 0. -1.
</event>
<event>
 7    1  0.4675811E-010  0.4778726E+02  0.7816164E-02  0.1312668E+00
        -11   -1    0    0    0    0  0.00000000000E+00  0.00000000000E+00  0.45593999997E+02  0.45594000000E+02  0.51100000000E-03 0. -1.
         11   -1    0    0    0    0 -0.00000000000E+00 -0.00000000000E+00 -0.45593999997E+02  0.45594000000E+02  0.51100000000E-03 0.  1.
    9900012    2    1    2    0    0  0.42698082401E+02  0.33675144365E+01  0.70112519480E+01  0.47787262125E+02  0.19999959332E+02 0.  0.
        -12    1    1    2    0    0 -0.42698082401E+02 -0.33675144365E+01 -0.70112519480E+01  0.43400737875E+02  0.00000000000E+00 0.  1.
         11    1    3    3    0    0  0.18162389835E+02 -0.20368117011E+01 -0.52110463616E+01  0.19004631301E+02  0.51100000000E-03 0. -1.
        -11    1    3    3    0    0  0.93266983252E+01 -0.12561307232E+01  0.36209269993E+01  0.10083465607E+02  0.51100000000E-03 0.  1.
         12    1    3    3    0    0  0.15208994241E+02  0.66604568609E+01  0.86013713103E+01  0.18699165217E+02  0.00000000000E+00 0. -1.
</event>
<event>
 7    1  0.4675811E-010  0.4778731E+02  0.7816164E-02  0.1312668E+00
        -11   -1    0    0    0    0  0.00000000000E+00  0.00000000000E+00  0.45593999997E+02  0.45594000000E+02  0.51100000000E-03 0.  1.
         11   -1    0    0    0    0 -0.00000000000E+00 -0.00000000000E+00 -0.45593999997E+02  0.45594000000E+02  0.51100000000E-03 0. -1.
    9900012    2    1    2    0    0 -0.10240728448E+02 -0.36273541120E+02 -0.21516906284E+02  0.47787313824E+02  0.20000195047E+02 0.  0.
        -12    1    1    2    0    0  0.10240728448E+02  0.36273541120E+02  0.21516906284E+02  0.43400686176E+02  0.00000000000E+00 0.  1.
         11    1    3    3    0    0  0.26529940629E+01 -0.18516251689E+02 -0.42888283561E+01  0.19190727007E+02  0.51100000000E-03 0. -1.
        -11    1    3    3    0    0 -0.24192256808E+01 -0.75065594904E+00 -0.58935497857E+00  0.26006685295E+01  0.51100000000E-03 0.  1.
         12    1    3    3    0    0 -0.10474496830E+02 -0.17006633482E+02 -0.16638722950E+02  0.25995918288E+02  0.00000000000E+00 0. -1.
</event>
<event>
 7    1  0.4675811E-010  0.4778727E+02  0.7816164E-02  0.1312668E+00
        -11   -1    0    0    0    0  0.00000000000E+00  0.00000000000E+00  0.45593999997E+02  0.45594000000E+02  0.51100000000E-03 0.  1.
         11   -1    0    0    0    0 -0.00000000000E+00 -0.00000000000E+00 -0.45593999997E+02  0.45594000000E+02  0.51100000000E-03 0. -1.
    9900012    2    1    2    0    0 -0.12885062746E+01  0.19849715773E+02 -0.38573979029E+02  0.47787270480E+02  0.19999997427E+02 0.  0.
        -12    1    1    2    0    0  0.12885062746E+01 -0.19849715773E+02  0.38573979029E+02  0.43400729520E+02  0.00000000000E+00 0.  1.
         11    1    3    3    0    0  0.44161343868E+01  0.95418639459E+01 -0.10684766191E+02  0.14990451605E+02  0.51100000000E-03 0. -1.
        -11    1    3    3    0    0  0.39966401093E+01  0.27591881111E+01 -0.96335857181E+01  0.10788522848E+02  0.51100000000E-03 0.  1.
        -12    1    3    3    0    0 -0.97012807707E+01  0.75486637163E+01 -0.18255627120E+02  0.22008296027E+02  0.00000000000E+00 0.  1.
</event>
<event>
 7    1  0.4675811E-010  0.4778727E+02  0.7816164E-02  0.1312668E+00
        -11   -1    0    0    0    0  0.00000000000E+00  0.00000000000E+00  0.45593999997E+02  0.45594000000E+02  0.51100000000E-03 0.  1.
         11   -1    0    0    0    0 -0.00000000000E+00 -0.00000000000E+00 -0.45593999997E+02  0.45594000000E+02  0.51100000000E-03 0. -1.
    9900012    2    1    2    0    0 -0.23361562861E+02  0.82904611927E+01 -0.35624836735E+02  0.47787270070E+02  0.19999995555E+02 0.  0.
        -12    1    1    2    0    0  0.23361562861E+02 -0.82904611927E+01  0.35624836735E+02  0.43400729930E+02  0.00000000000E+00 0.  1.
         11    1    3    3    0    0 -0.18979568652E+01 -0.20755709707E+01 -0.17221017093E+01  0.32978583467E+01  0.51100000000E-03 0.  1.
        -11    1    3    3    0    0 -0.13992106240E+02  0.10921136004E+02 -0.12221755300E+02  0.21550442026E+02  0.51100000000E-03 0. -1.
         12    1    3    3    0    0 -0.74714997553E+01 -0.55510384048E+00 -0.21680979726E+02  0.22938969697E+02  0.00000000000E+00 0. -1.
</event>
<event>
 7    1  0.4675811E-010  0.4778726E+02  0.7816164E-02  0.1312668E+00
        -11   -1    0    0    0    0  0.00000000000E+00  0.00000000000E+00  0.45593999997E+02  0.45594000000E+02  0.51100000000E-03 0.  1.
         11   -1    0    0    0    0 -0.00000000000E+00 -0.00000000000E+00 -0.45593999997E+02  0.45594000000E+02  0.51100000000E-03 0. -1.
    9900012    2    1    2    0    0  0.26630299508E+02  0.30790372900E+02 -0.15046747314E+02  0.47787256689E+02  0.19999934549E+02 0.  0.
        -12    1    1    2    0    0 -0.26630299508E+02 -0.30790372900E+02  0.15046747314E+02  0.43400743311E+02  0.00000000000E+00 0.  1.
         11    1    3    3    0    0  0.23848567696E+01 -0.17863731822E+01 -0.47703584229E+01  0.56244991512E+01  0.51100000000E-03 0. -1.
        -11    1    3    3    0    0  0.54248949157E+01  0.82495559461E+01 -0.45724715371E+01  0.10880815887E+02  0.51100000000E-03 0.  1.
         12    1    3    3    0    0  0.18820547823E+02  0.24327190136E+02 -0.57039173537E+01  0.31281941651E+02  0.00000000000E+00 0. -1.
</event>
<event>
 7    1  0.4675811E-010  0.4778727E+02  0.7816164E-02  0.1312668E+00
        -11   -1    0    0    0    0  0.00000000000E+00  0.00000000000E+00  0.45593999997E+02  0.45594000000E+02  0.51100000000E-03 0.  1.
         11   -1    0    0    0    0 -0.00000000000E+00 -0.00000000000E+00 -0.45593999997E+02  0.45594000000E+02  0.51100000000E-03 0. -1.
    9900012    2    1    2    0    0 -0.32271952989E+02  0.24074225237E+02 -0.16204198135E+02  0.47787270655E+02  0.19999998226E+02 0.  0.
        -12    1    1    2    0    0  0.32271952989E+02 -0.24074225237E+02  0.16204198135E+02  0.43400729345E+02  0.00000000000E+00 0.  1.
         11    1    3    3    0    0 -0.24948740635E+02  0.12580088198E+02 -0.89322525939E+01  0.29333997597E+02  0.51100000000E-03 0. -1.
        -11    1    3    3    0    0 -0.68144400373E+01  0.38331213195E+01  0.85887983946E-01  0.78190017956E+01  0.51100000000E-03 0.  1.
        -12    1    3    3    0    0 -0.50877231652E+00  0.76610157187E+01 -0.73578335247E+01  0.10634271263E+02  0.00000000000E+00 0.  1.
</event>
<event>
 7    1  0.4675811E-010  0.4778721E+02  0.7816164E-02  0.1312668E+00
        -11   -1    0    0    0    0  0.00000000000E+00  0.00000000000E+00  0.45593999997E+02  0.45594000000E+02  0.51100000000E-03 0.  1.
         11   -1    0    0    0    0 -0.00000000000E+00 -0.00000000000E+00 -0.45593999997E+02  0.45594000000E+02  0.51100000000E-03 0. -1.
    9900012    2    1    2    0    0 -0.27592309561E+02 -0.29742176078E+02 -0.15417388950E+02  0.47787211219E+02  0.19999727230E+02 0.  0.
        -12    1    1    2    0    0  0.27592309561E+02  0.29742176078E+02  0.15417388950E+02  0.43400788781E+02  0.00000000000E+00 0.  1.
         11    1    3    3    0    0  0.74820111078E+00 -0.95576721527E+00 -0.75888774170E+00  0.14315050603E+01  0.51100000000E-03 0. -1.
        -11    1    3    3    0    0 -0.82036850538E+00 -0.89725323801E+01  0.88290992951E+00  0.90531139395E+01  0.51100000000E-03 0.  1.
         12    1    3    3    0    0 -0.27520142166E+02 -0.19813876483E+02 -0.15541411138E+02  0.37302592219E+02  0.00000000000E+00 0. -1.
</event>
<event>
 7    1  0.4675811E-010  0.4778727E+02  0.7816164E-02  0.1312668E+00
        -11   -1    0    0    0    0  0.00000000000E+00  0.00000000000E+00  0.45593999997E+02  0.45594000000E+02  0.51100000000E-03 0.  1.
         11   -1    0    0    0    0 -0.00000000000E+00 -0.00000000000E+00 -0.45593999997E+02  0.45594000000E+02  0.51100000000E-03 0. -1.
    9900012    2    1    2    0    0 -0.26557060788E+02 -0.58300072372E+01 -0.33828340869E+02  0.47787272956E+02  0.20000008714E+02 0.  0.
        -12    1    1    2    0    0  0.26557060788E+02  0.58300072372E+01  0.33828340869E+02  0.43400727044E+02  0.00000000000E+00 0.  1.
         11    1    3    3    0    0 -0.11501186033E+02  0.32073583228E+01 -0.23863324009E+02  0.26683752745E+02  0.51100000000E-03 0. -1.
        -11    1    3    3    0    0 -0.88149378443E+01 -0.64658358474E+01 -0.92415334881E+01  0.14314890984E+02  0.51100000000E-03 0.  1.
         12    1    3    3    0    0 -0.62409369106E+01 -0.25715297126E+01 -0.72348337171E+00  0.67886292264E+01  0.00000000000E+00 0. -1.
</event>
<event>
 7    1  0.4675811E-010  0.4778723E+02  0.7816164E-02  0.1312668E+00
        -11   -1    0    0    0    0  0.00000000000E+00  0.00000000000E+00  0.45593999997E+02  0.45594000000E+02  0.51100000000E-03 0.  1.
         11   -1    0    0    0    0 -0.00000000000E+00 -0.00000000000E+00 -0.45593999997E+02  0.45594000000E+02  0.51100000000E-03 0. -1.
    9900012    2    1    2    0    0  0.20128204788E+02  0.16598758706E+02 -0.34683763043E+02  0.47787229991E+02  0.19999812818E+02 0.  0.
        -12    1    1    2    0    0 -0.20128204788E+02 -0.16598758706E+02  0.34683763043E+02  0.43400770009E+02  0.00000000000E+00 0.  1.
         11    1    3    3    0    0  0.18363245555E+01  0.11258848948E+01 -0.13855529688E+02  0.14021961626E+02  0.51100000000E-03 0.  1.
        -11    1    3    3    0    0  0.27253772018E+01  0.90023529645E+01 -0.10005335958E+02  0.13732326376E+02  0.51100000000E-03 0. -1.
         12    1    3    3    0    0  0.15566503031E+02  0.64705208467E+01 -0.10822897398E+02  0.20032941988E+02  0.00000000000E+00 0. -1.
</event>
<event>
 7    1  0.4675811E-010  0.4778727E+02  0.7816164E-02  0.1312668E+00
        -11   -1    0    0    0    0  0.00000000000E+00  0.00000000000E+00  0.45593999997E+02  0.45594000000E+02  0.51100000000E-03 0.  1.
         11   -1    0    0    0    0 -0.00000000000E+00 -0.00000000000E+00 -0.45593999997E+02  0.45594000000E+02  0.51100000000E-03 0. -1.
    9900012    2    1    2    0    0  0.42053009693E+02 -0.49093580954E+01 -0.95428334460E+01  0.47787273148E+02  0.20000009590E+02 0.  0.
        -12    1    1    2    0    0 -0.42053009693E+02  0.49093580954E+01  0.95428334460E+01  0.43400726852E+02  0.00000000000E+00 0.  1.
         11    1    3    3    0    0  0.15807792066E+02 -0.41564750460E+01 -0.57123822862E+01  0.17314557068E+02  0.51100000000E-03 0. -1.
        -11    1    3    3    0    0  0.20135098466E+02 -0.22055672929E+01 -0.91649968032E+01  0.22232496126E+02  0.51100000000E-03 0.  1.
        -12    1    3    3    0    0  0.61101191600E+01  0.14526842435E+01  0.53345456434E+01  0.82402199535E+01  0.00000000000E+00 0.  1.
</event>
<event>
 7    1  0.4675811E-010  0.4778728E+02  0.7816164E-02  0.1312668E+00
        -11   -1    0    0    0    0  0.00000000000E+00  0.00000000000E+00  0.45593999997E+02  0.45594000000E+02  0.51100000000E-03 0.  1.
         11   -1    0    0    0    0 -0.00000000000E+00 -0.00000000000E+00 -0.45593999997E+02  0.45594000000E+02  0.51100000000E-03 0. -1.
    9900012    2    1    2    0    0 -0.47245334575E+01 -0.37478760522E+02 -0.21369219539E+02  0.47787282835E+02  0.20000053759E+02 0.  0.
        -12    1    1    2    0    0  0.47245334575E+01  0.37478760522E+02  0.21369219539E+02  0.43400717165E+02  0.00000000000E+00 0.  1.
         11    1    3    3    0    0 -0.28505620416E+01 -0.43691091105E+01 -0.47115197984E+00  0.52380151605E+01  0.51100000000E-03 0.  1.
        -11    1    3    3    0    0  0.48622644887E+00 -0.27549933492E+02 -0.86285063192E+01  0.28873627640E+02  0.51100000000E-03 0. -1.
         12    1    3    3    0    0 -0.23601978648E+01 -0.55597179202E+01 -0.12269561240E+02  0.13675640034E+02  0.00000000000E+00 0. -1.
</event>
<event>
 7    1  0.4675811E-010  0.4778727E+02  0.7816164E-02  0.1312668E+00
        -11   -1    0    0    0    0  0.00000000000E+00  0.00000000000E+00  0.45593999997E+02  0.45594000000E+02  0.51100000000E-03 0. -1.
         11   -1    0    0    0    0 -0.00000000000E+00 -0.00000000000E+00 -0.45593999997E+02  0.45594000000E+02  0.51100000000E-03 0.  1.
    9900012    2    1    2    0    0 -0.32752991699E+02 -0.24687302194E+02 -0.14191614544E+02  0.47787270994E+02  0.19999999771E+02 0.  0.
        -12    1    1    2    0    0  0.32752991699E+02  0.24687302194E+02  0.14191614544E+02  0.43400729006E+02  0.00000000000E+00 0.  1.
         11    1    3    3    0    0  0.46446357429E+00 -0.24095072760E+00  0.68465999253E+00  0.86170948206E+00  0.51100000000E-03 0. -1.
        -11    1    3    3    0    0 -0.28376207543E+02 -0.13092535006E+02 -0.62574464119E+01  0.31871292149E+02  0.51100000000E-03 0.  1.
        -12    1    3    3    0    0 -0.48412477302E+01 -0.11353816460E+02 -0.86188281250E+01  0.15054269363E+02  0.00000000000E+00 0.  1.
</event>
<event>
 7    1  0.4675811E-010  0.4778727E+02  0.7816164E-02  0.1312668E+00
        -11   -1    0    0    0    0  0.00000000000E+00  0.00000000000E+00  0.45593999997E+02  0.45594000000E+02  0.51100000000E-03 0. -1.
         11   -1    0    0    0    0 -0.00000000000E+00 -0.00000000000E+00 -0.45593999997E+02  0.45594000000E+02  0.51100000000E-03 0.  1.
    9900012    2    1    2    0    0  0.20363924358E+02  0.10746434199E+02  0.36789238782E+02  0.47787270128E+02  0.19999995823E+02 0.  0.
        -12    1    1    2    0    0 -0.20363924358E+02 -0.10746434199E+02 -0.36789238782E+02  0.43400729872E+02  0.00000000000E+00 0.  1.
         11    1    3    3    0    0  0.56034904789E+00  0.24990463747E+01  0.11683058294E+02  0.11960479723E+02  0.51100000000E-03 0. -1.
        -11    1    3    3    0    0  0.10459862587E+00  0.21671648460E+01  0.10092981428E+02  0.10323556496E+02  0.51100000000E-03 0.  1.
        -12    1    3    3    0    0  0.19698976684E+02  0.60802229787E+01  0.15013199059E+02  0.25503233910E+02  0.00000000000E+00 0.  1.
</event>
<event>
 7    1  0.4675811E-010  0.4778727E+02  0.7816164E-02  0.1312668E+00
        -11   -1    0    0    0    0  0.00000000000E+00  0.00000000000E+00  0.45593999997E+02  0.45594000000E+02  0.51100000000E-03 0.  1.
         11   -1    0    0    0    0 -0.00000000000E+00 -0.00000000000E+00 -0.45593999997E+02  0.45594000000E+02  0.51100000000E-03 0. -1.
    9900012    2    1    2    0    0  0.24881692959E+01 -0.39754370114E+02 -0.17234335954E+02  0.47787271142E+02  0.20000000446E+02 0.  0.
        -12    1    1    2    0    0 -0.24881692959E+01  0.39754370114E+02  0.17234335954E+02  0.43400728858E+02  0.00000000000E+00 0.  1.
         11    1    3    3    0    0  0.43258534509E+01 -0.12857583857E+02 -0.10422227070E+02  0.17107112207E+02  0.51100000000E-03 0. -1.
        -11    1    3    3    0    0 -0.61939122974E+00  0.13460915327E+01  0.34008487808E+00  0.15202848073E+01  0.51100000000E-03 0.  1.
        -12    1    3    3    0    0 -0.12182929252E+01 -0.28242877790E+02 -0.71521937614E+01  0.29159874128E+02  0.00000000000E+00 0.  1.
</event>
<event>
 7    1  0.4675811E-010  0.4778731E+02  0.7816164E-02  0.1312668E+00
        -11   -1    0    0    0    0  0.00000000000E+00  0.00000000000E+00  0.45593999997E+02  0.45594000000E+02  0.51100000000E-03 0.  1.
         11   -1    0    0    0    0 -0.00000000000E+00 -0.00000000000E+00 -0.45593999997E+02  0.45594000000E+02  0.51100000000E-03 0. -1.
    9900012    2    1    2    0    0  0.40087655185E+02  0.16495547752E+02  0.21206398934E+01  0.47787305219E+02  0.20000155817E+02 0.  0.
        -12    1    1    2    0    0 -0.40087655185E+02 -0.16495547752E+02 -0.21206398934E+01  0.43400694781E+02  0.00000000000E+00 0.  1.
         11    1    3    3    0    0  0.30084670908E+02  0.95547546536E+01 -0.20527363166E+00  0.31566166977E+02  0.51100000000E-03 0. -1.
        -11    1    3    3    0    0  0.80331791085E+01  0.58238575270E+00  0.44905248093E+01  0.92214940805E+01  0.51100000000E-03 0.  1.
        -12    1    3    3    0    0  0.19698051690E+01  0.63584073458E+01 -0.21646112842E+01  0.69996441617E+01  0.00000000000E+00 0.  1.
</event>
<event>
 7    1  0.4675811E-010  0.4778727E+02  0.7816164E-02  0.1312668E+00
        -11   -1    0    0    0    0  0.00000000000E+00  0.00000000000E+00  0.45593999997E+02  0.45594000000E+02  0.51100000000E-03 0. -1.
         11   -1    0    0    0    0 -0.00000000000E+00 -0.00000000000E+00 -0.45593999997E+02  0.45594000000E+02  0.51100000000E-03 0.  1.
    9900012    2    1    2    0    0 -0.57847564427E+01  0.19069944749E+02  0.38555114675E+02  0.47787273423E+02  0.20000010844E+02 0.  0.
        -12    1    1    2    0    0  0.57847564427E+01 -0.19069944749E+02 -0.38555114675E+02  0.43400726577E+02  0.00000000000E+00 0.  1.
         11    1    3    3    0    0 -0.95223099094E+01  0.17105250889E+02  0.17944830706E+02  0.26557126036E+02  0.51100000000E-03 0. -1.
        -11    1    3    3    0    0  0.97116588415E+00  0.17793232277E+01  0.53731315832E+01  0.57427952771E+01  0.51100000000E-03 0.  1.
        -12    1    3    3    0    0  0.27663875826E+01  0.18537063228E+00  0.15237152386E+02  0.15487352109E+02  0.00000000000E+00 0.  1.
</event>
<event>
 7    1  0.4675811E-010  0.4778728E+02  0.7816164E-02  0.1312668E+00
        -11   -1    0    0    0    0  0.00000000000E+00  0.00000000000E+00  0.45593999997E+02  0.45594000000E+02  0.51100000000E-03 0.  1.
         11   -1    0    0    0    0 -0.00000000000E+00 -0.00000000000E+00 -0.45593999997E+02  0.45594000000E+02  0.51100000000E-03 0. -1.
    9900012    2    1    2    0    0 -0.39373126875E+02  0.17384227551E+02 -0.55828394997E+01  0.47787278988E+02  0.20000036219E+02 0.  0.
        -12    1    1    2    0    0  0.39373126875E+02 -0.17384227551E+02  0.55828394997E+01  0.43400721012E+02  0.00000000000E+00 0.  1.
         11    1    3    3    0    0 -0.11740405520E+02  0.11104281301E+02 -0.11239641268E+00  0.16160285214E+02  0.51100000000E-03 0. -1.
        -11    1    3    3    0    0 -0.23296772459E+01  0.42525102877E+01 -0.38495702654E+01  0.61911575094E+01  0.51100000000E-03 0.  1.
        -12    1    3    3    0    0 -0.25303044109E+02  0.20274359618E+01 -0.16208728216E+01  0.25435836265E+02  0.00000000000E+00 0.  1.
</event>
<event>
 7    1  0.4675811E-010  0.4778727E+02  0.7816164E-02  0.1312668E+00
        -11   -1    0    0    0    0  0.00000000000E+00  0.00000000000E+00  0.45593999997E+02  0.45594000000E+02  0.51100000000E-03 0. -1.
         11   -1    0    0    0    0 -0.00000000000E+00 -0.00000000000E+00 -0.45593999997E+02  0.45594000000E+02  0.51100000000E-03 0.  1.
    9900012    2    1    2    0    0  0.20927412346E+02  0.36755549745E+02  0.97311984872E+01  0.47787271336E+02  0.20000001329E+02 0.  0.
        -12    1    1    2    0    0 -0.20927412346E+02 -0.36755549745E+02 -0.97311984872E+01  0.43400728664E+02  0.00000000000E+00 0.  1.
         11    1    3    3    0    0  0.16742830924E+02  0.34090383398E+02  0.12595623900E+02  0.40014077139E+02  0.51100000000E-03 0. -1.
        -11    1    3    3    0    0  0.41509482340E+01  0.13945096581E+01  0.27363447273E+00  0.43874713120E+01  0.51100000000E-03 0.  1.
         12    1    3    3    0    0  0.33633188537E-01  0.12706566890E+01 -0.31380598853E+01  0.33857228853E+01  0.00000000000E+00 0. -1.
</event>
<event>
 7    1  0.4675811E-010  0.4778727E+02  0.7816164E-02  0.1312668E+00
        -11   -1    0    0    0    0  0.00000000000E+00  0.00000000000E+00  0.45593999997E+02  0.45594000000E+02  0.51100000000E-03 0. -1.
         11   -1    0    0    0    0 -0.00000000000E+00 -0.00000000000E+00 -0.45593999997E+02  0.45594000000E+02  0.51100000000E-03 0.  1.
    9900012    2    1    2    0    0  0.25991175600E+02  0.56349707529E+00  0.34752907310E+02  0.47787270691E+02  0.19999998388E+02 0.  0.
        -12    1    1    2    0    0 -0.25991175600E+02 -0.56349707529E+00 -0.34752907310E+02  0.43400729309E+02  0.00000000000E+00 0.  1.
         11    1    3    3    0    0  0.69219793321E+01 -0.10671116900E+01  0.90221506040E+01  0.11421546612E+02  0.51100000000E-03 0. -1.
        -11    1    3    3    0    0  0.16958086892E+02 -0.23165203751E+01  0.95971020872E+01  0.19622623332E+02  0.51100000000E-03 0.  1.
         12    1    3    3    0    0  0.21111093761E+01  0.39471291404E+01  0.16133654619E+02  0.16743100747E+02  0.00000000000E+00 0. -1.
</event>
<event>
 7    1  0.4675811E-010  0.4778727E+02  0.7816164E-02  0.1312668E+00
        -11   -1    0    0    0    0  0.00000000000E+00  0.00000000000E+00  0.45593999997E+02  0.45594000000E+02  0.51100000000E-03 0.  1.
         11   -1    0    0    0    0 -0.00000000000E+00 -0.00000000000E+00 -0.45593999997E+02  0.45594000000E+02  0.51100000000E-03 0. -1.
    9900012    2    1    2    0    0 -0.20590418376E+02  0.24544475746E+02 -0.29278436268E+02  0.47787269028E+02  0.19999990808E+02 0.  0.
        -12    1    1    2    0    0  0.20590418376E+02 -0.24544475746E+02  0.29278436268E+02  0.43400730972E+02  0.00000000000E+00 0.  1.
         11    1    3    3    0    0 -0.88637106828E+01  0.28395021449E+01 -0.54841568882E+01  0.10802967950E+02  0.51100000000E-03 0. -1.
        -11    1    3    3    0    0 -0.50904033677E+01  0.11770723694E+02 -0.32675554087E+01  0.13234011536E+02  0.51100000000E-03 0.  1.
         12    1    3    3    0    0 -0.66363043253E+01  0.99342499075E+01 -0.20526723971E+02  0.23750289542E+02  0.00000000000E+00 0. -1.
</event>
<event>
 7    1  0.4675811E-010  0.4778727E+02  0.7816164E-02  0.1312668E+00
        -11   -1    0    0    0    0  0.00000000000E+00  0.00000000000E+00  0.45593999997E+02  0.45594000000E+02  0.51100000000E-03 0.  1.
         11   -1    0    0    0    0 -0.00000000000E+00 -0.00000000000E+00 -0.45593999997E+02  0.45594000000E+02  0.51100000000E-03 0. -1.
    9900012    2    1    2    0    0  0.20825599557E+02 -0.20685401716E+01 -0.38021560452E+02  0.47787268272E+02  0.19999987357E+02 0.  0.
        -12    1    1    2    0    0 -0.20825599557E+02  0.20685401716E+01  0.38021560452E+02  0.43400731728E+02  0.00000000000E+00 0.  1.
         11    1    3    3    0    0  0.36938160795E+01 -0.60002881651E-02 -0.78082748614E+00  0.37754476631E+01  0.51100000000E-03 0. -1.
        -11    1    3    3    0    0  0.73935005414E+01 -0.38586098161E+01 -0.38536016069E+01  0.91871086624E+01  0.51100000000E-03 0.  1.
         12    1    3    3    0    0  0.97382829364E+01  0.17960699327E+01 -0.33387131359E+02  0.34824711946E+02  0.00000000000E+00 0. -1.
</event>
<event>
 7    1  0.5335694E-010  0.4778727E+02  0.7816164E-02  0.1312668E+00
        -11   -1    0    0    0    0  0.00000000000E+00  0.00000000000E+00  0.45593999997E+02  0.45594000000E+02  0.51100000000E-03 0. -1.
         11   -1    0    0    0    0 -0.00000000000E+00 -0.00000000000E+00 -0.45593999997E+02  0.45594000000E+02  0.51100000000E-03 0.  1.
    9900012    2    1    2    0    0  0.42672950773E+02 -0.78984849954E+01 -0.50630069570E+00  0.47787272664E+02  0.20000007385E+02 0.  0.
        -12    1    1    2    0    0 -0.42672950773E+02  0.78984849954E+01  0.50630069570E+00  0.43400727336E+02  0.00000000000E+00 0.  1.
         11    1    3    3    0    0  0.57811709213E+01 -0.62760030583E+01 -0.16199806765E+01  0.86853030611E+01  0.51100000000E-03 0.  1.
        -11    1    3    3    0    0 -0.33868880432E+00  0.16643660068E+01 -0.15204423061E+00  0.17052688996E+01  0.51100000000E-03 0. -1.
         12    1    3    3    0    0  0.37230468656E+02 -0.32868479440E+01  0.12657242114E+01  0.37396700704E+02  0.00000000000E+00 0. -1.
</event>
<event>
 7    1  0.4675811E-010  0.4778727E+02  0.7816164E-02  0.1312668E+00
        -11   -1    0    0    0    0  0.00000000000E+00  0.00000000000E+00  0.45593999997E+02  0.45594000000E+02  0.51100000000E-03 0.  1.
         11   -1    0    0    0    0 -0.00000000000E+00 -0.00000000000E+00 -0.45593999997E+02  0.45594000000E+02  0.51100000000E-03 0. -1.
    9900012    2    1    2    0    0  0.43079840761E+02 -0.15273915383E+01 -0.50415966522E+01  0.47787270724E+02  0.19999998537E+02 0.  0.
        -12    1    1    2    0    0 -0.43079840761E+02  0.15273915383E+01  0.50415966522E+01  0.43400729276E+02  0.00000000000E+00 0.  1.
         11    1    3    3    0    0  0.32693422938E+01 -0.42185627951E+01  0.37467262697E+01  0.65209530815E+01  0.51100000000E-03 0. -1.
        -11    1    3    3    0    0  0.74187473250E+01 -0.41474446839E+00  0.43817764538E+00  0.74432402054E+01  0.51100000000E-03 0.  1.
         12    1    3    3    0    0  0.32391751142E+02  0.31059157252E+01 -0.92265005673E+01  0.33823077437E+02  0.00000000000E+00 0. -1.
</event>
<event>
 7    1  0.4675811E-010  0.4778727E+02  0.7816164E-02  0.1312668E+00
        -11   -1    0    0    0    0  0.00000000000E+00  0.00000000000E+00  0.45593999997E+02  0.45594000000E+02  0.51100000000E-03 0. -1.
         11   -1    0    0    0    0 -0.00000000000E+00 -0.00000000000E+00 -0.45593999997E+02  0.45594000000E+02  0.51100000000E-03 0.  1.
    9900012    2    1    2    0    0  0.23016610007E+02 -0.25717714218E+02  0.26314596880E+02  0.47787272244E+02  0.20000005468E+02 0.  0.
        -12    1    1    2    0    0 -0.23016610007E+02  0.25717714218E+02 -0.26314596880E+02  0.43400727756E+02  0.00000000000E+00 0.  1.
         11    1    3    3    0    0  0.62300580562E+01 -0.11372865354E+02  0.20089092096E+02  0.23910819962E+02  0.51100000000E-03 0. -1.
        -11    1    3    3    0    0  0.40989208585E+01 -0.49703864014E+01  0.48057952025E+01  0.80375096251E+01  0.51100000000E-03 0.  1.
        -12    1    3    3    0    0  0.12687631092E+02 -0.93744624630E+01  0.14197095815E+01  0.15838942657E+02  0.00000000000E+00 0.  1.
</event>
<event>
 7    1  0.4675811E-010  0.4778727E+02  0.7816164E-02  0.1312668E+00
        -11   -1    0    0    0    0  0.00000000000E+00  0.00000000000E+00  0.45593999997E+02  0.45594000000E+02  0.51100000000E-03 0.  1.
         11   -1    0    0    0    0 -0.00000000000E+00 -0.00000000000E+00 -0.45593999997E+02  0.45594000000E+02  0.51100000000E-03 0. -1.
    9900012    2    1    2    0    0 -0.37693098473E+02  0.10470439690E+02 -0.18794235104E+02  0.47787273590E+02  0.20000011605E+02 0.  0.
        -12    1    1    2    0    0  0.37693098473E+02 -0.10470439690E+02  0.18794235104E+02  0.43400726410E+02  0.00000000000E+00 0.  1.
         11    1    3    3    0    0 -0.42121759079E+01  0.12569049749E+01 -0.46663963269E+01  0.64107324804E+01  0.51100000000E-03 0. -1.
        -11    1    3    3    0    0 -0.16707993493E+01 -0.32455962887E+01  0.13219655125E+01  0.38824037415E+01  0.51100000000E-03 0.  1.
         12    1    3    3    0    0 -0.31810123216E+02  0.12459131004E+02 -0.15449804290E+02  0.37494137368E+02  0.00000000000E+00 0. -1.
</event>
<event>
 7    1  0.4675811E-010  0.4778727E+02  0.7816164E-02  0.1312668E+00
        -11   -1    0    0    0    0  0.00000000000E+00  0.00000000000E+00  0.45593999997E+02  0.45594000000E+02  0.51100000000E-03 0. -1.
         11   -1    0    0    0    0 -0.00000000000E+00 -0.00000000000E+00 -0.45593999997E+02  0.45594000000E+02  0.51100000000E-03 0.  1.
    9900012    2    1    2    0    0 -0.39946834311E+02 -0.12144599843E+02  0.11848302606E+02  0.47787272454E+02  0.20000006429E+02 0.  0.
        -12    1    1    2    0    0  0.39946834311E+02  0.12144599843E+02 -0.11848302606E+02  0.43400727546E+02  0.00000000000E+00 0.  1.
         11    1    3    3    0    0 -0.23929419020E+01 -0.52408314895E+01  0.44854205339E+01  0.73014713089E+01  0.51100000000E-03 0. -1.
        -11    1    3    3    0    0 -0.71941853882E+01  0.26979017407E+01  0.33864747726E+01  0.83966177029E+01  0.51100000000E-03 0.  1.
         12    1    3    3    0    0 -0.30359707021E+02 -0.96016700944E+01  0.39764072997E+01  0.32089183443E+02  0.00000000000E+00 0. -1.
</event>
<event>
 7    1  0.4675811E-010  0.4778727E+02  0.7816164E-02  0.1312668E+00
        -11   -1    0    0    0    0  0.00000000000E+00  0.00000000000E+00  0.45593999997E+02  0.45594000000E+02  0.51100000000E-03 0.  1.
         11   -1    0    0    0    0 -0.00000000000E+00 -0.00000000000E+00 -0.45593999997E+02  0.45594000000E+02  0.51100000000E-03 0. -1.
    9900012    2    1    2    0    0  0.36473547413E+02 -0.19174328604E+02 -0.13625287856E+02  0.47787274114E+02  0.20000013994E+02 0.  0.
        -12    1    1    2    0    0 -0.36473547413E+02  0.19174328604E+02  0.13625287856E+02  0.43400725886E+02  0.00000000000E+00 0.  1.
         11    1    3    3    0    0  0.18527789199E+02 -0.65385242421E+01  0.25273622925E+01  0.19809564162E+02  0.51100000000E-03 0. -1.
        -11    1    3    3    0    0 -0.37490799601E+00 -0.52464724382E+00 -0.13406546601E+01  0.14876713060E+01  0.51100000000E-03 0.  1.
         12    1    3    3    0    0  0.18320666210E+02 -0.12111157118E+02 -0.14811995488E+02  0.26490038646E+02  0.00000000000E+00 0. -1.
</event>
<event>
 7    1  0.4675811E-010  0.4778727E+02  0.7816164E-02  0.1312668E+00
        -11   -1    0    0    0    0  0.00000000000E+00  0.00000000000E+00  0.45593999997E+02  0.45594000000E+02  0.51100000000E-03 0.  1.
         11   -1    0    0    0    0 -0.00000000000E+00 -0.00000000000E+00 -0.45593999997E+02  0.45594000000E+02  0.51100000000E-03 0. -1.
    9900012    2    1    2    0    0  0.21807458382E+02  0.33218035545E+02 -0.17453375886E+02  0.47787268942E+02  0.19999990415E+02 0.  0.
        -12    1    1    2    0    0 -0.21807458382E+02 -0.33218035545E+02  0.17453375886E+02  0.43400731058E+02  0.00000000000E+00 0.  1.
         11    1    3    3    0    0 -0.24285570293E+01  0.85431844328E+00 -0.59701137094E-01  0.25751337312E+01  0.51100000000E-03 0. -1.
        -11    1    3    3    0    0  0.14588967350E+01  0.79026940571E+01 -0.54881554612E+01  0.97314337932E+01  0.51100000000E-03 0.  1.
         12    1    3    3    0    0  0.22777118677E+02  0.24461023044E+02 -0.11905519287E+02  0.35480701418E+02  0.00000000000E+00 0. -1.
</event>
<event>
 7    1  0.4675811E-010  0.4778727E+02  0.7816164E-02  0.1312668E+00
        -11   -1    0    0    0    0  0.00000000000E+00  0.00000000000E+00  0.45593999997E+02  0.45594000000E+02  0.51100000000E-03 0.  1.
         11   -1    0    0    0    0 -0.00000000000E+00 -0.00000000000E+00 -0.45593999997E+02  0.45594000000E+02  0.51100000000E-03 0. -1.
    9900012    2    1    2    0    0  0.12764866295E+02 -0.69177660610E+01 -0.40900194190E+02  0.47787272085E+02  0.20000004743E+02 0.  0.
        -12    1    1    2    0    0 -0.12764866295E+02  0.69177660610E+01  0.40900194190E+02  0.43400727915E+02  0.00000000000E+00 0.  1.
         11    1    3    3    0    0  0.87613876224E+01 -0.67402711876E+01 -0.12212347715E+02  0.16472237424E+02  0.51100000000E-03 0. -1.
        -11    1    3    3    0    0  0.45531766961E+01  0.30122657145E+01 -0.49872785620E+01  0.73944648540E+01  0.51100000000E-03 0.  1.
         12    1    3    3    0    0 -0.54969802392E+00 -0.31897605878E+01 -0.23700567913E+02  0.23920569807E+02  0.00000000000E+00 0. -1.
</event>
<event>
 7    1  0.4675811E-010  0.4778726E+02  0.7816164E-02  0.1312668E+00
        -11   -1    0    0    0    0  0.00000000000E+00  0.00000000000E+00  0.45593999997E+02  0.45594000000E+02  0.51100000000E-03 0.  1.
         11   -1    0    0    0    0 -0.00000000000E+00 -0.00000000000E+00 -0.45593999997E+02  0.45594000000E+02  0.51100000000E-03 0. -1.
    9900012    2    1    2    0    0 -0.43105802595E+02  0.15231791334E+01 -0.48160441676E+01  0.47787256072E+02  0.19999931736E+02 0.  0.
        -12    1    1    2    0    0  0.43105802595E+02 -0.15231791334E+01  0.48160441676E+01  0.43400743928E+02  0.00000000000E+00 0.  1.
         11    1    3    3    0    0 -0.15746678524E+02  0.63119346495E+01  0.37194113182E+00  0.16968698949E+02  0.51100000000E-03 0. -1.
        -11    1    3    3    0    0 -0.73178911940E+01  0.37672982248E+01  0.65760909974E+00  0.82569072558E+01  0.51100000000E-03 0.  1.
        -12    1    3    3    0    0 -0.20041232877E+02 -0.85560537410E+01 -0.58455943992E+01  0.22561649867E+02  0.00000000000E+00 0.  1.
</event>
<event>
 7    1  0.4675811E-010  0.4778727E+02  0.7816164E-02  0.1312668E+00
        -11   -1    0    0    0    0  0.00000000000E+00  0.00000000000E+00  0.45593999997E+02  0.45594000000E+02  0.51100000000E-03 0. -1.
         11   -1    0    0    0    0 -0.00000000000E+00 -0.00000000000E+00 -0.45593999997E+02  0.45594000000E+02  0.51100000000E-03 0.  1.
    9900012    2    1    2    0    0  0.35415284950E+02 -0.24749597428E+02 -0.41034508131E+01  0.47787270864E+02  0.19999999179E+02 0.  0.
        -12    1    1    2    0    0 -0.35415284950E+02  0.24749597428E+02  0.41034508131E+01  0.43400729136E+02  0.00000000000E+00 0.  1.
         11    1    3    3    0    0  0.30312559966E+02 -0.25002047657E+02 -0.44255657594E+01  0.39541614930E+02  0.51100000000E-03 0. -1.
        -11    1    3    3    0    0  0.47419162122E+01 -0.15911869865E+01  0.23109727564E+01  0.55098312797E+01  0.51100000000E-03 0.  1.
         12    1    3    3    0    0  0.36080877114E+00  0.18436372150E+01 -0.19888578102E+01  0.27358246543E+01  0.00000000000E+00 0. -1.
</event>
<event>
 7    1  0.4675811E-010  0.4778727E+02  0.7816164E-02  0.1312668E+00
        -11   -1    0    0    0    0  0.00000000000E+00  0.00000000000E+00  0.45593999997E+02  0.45594000000E+02  0.51100000000E-03 0. -1.
         11   -1    0    0    0    0 -0.00000000000E+00 -0.00000000000E+00 -0.45593999997E+02  0.45594000000E+02  0.51100000000E-03 0.  1.
    9900012    2    1    2    0    0  0.32222017576E+02 -0.24060443829E+02  0.16323600582E+02  0.47787270630E+02  0.19999998110E+02 0.  0.
        -12    1    1    2    0    0 -0.32222017576E+02  0.24060443829E+02 -0.16323600582E+02  0.43400729370E+02  0.00000000000E+00 0.  1.
         11    1    3    3    0    0  0.98052092030E+01 -0.22278098981E+01  0.91425019597E+01  0.13590092229E+02  0.51100000000E-03 0. -1.
        -11    1    3    3    0    0  0.59708237480E+01 -0.87169993217E+01  0.78313357035E+01  0.13151677937E+02  0.51100000000E-03 0.  1.
         12    1    3    3    0    0  0.16445984625E+02 -0.13115634609E+02 -0.65023708147E+00  0.21045500463E+02  0.00000000000E+00 0. -1.
</event>
<event>
 7    1  0.4675811E-010  0.4778727E+02  0.7816164E-02  0.1312668E+00
        -11   -1    0    0    0    0  0.00000000000E+00  0.00000000000E+00  0.45593999997E+02  0.45594000000E+02  0.51100000000E-03 0.  1.
         11   -1    0    0    0    0 -0.00000000000E+00 -0.00000000000E+00 -0.45593999997E+02  0.45594000000E+02  0.51100000000E-03 0. -1.
    9900012    2    1    2    0    0 -0.31227907193E+02  0.12116221913E+02 -0.27597792068E+02  0.47787272494E+02  0.20000006607E+02 0.  0.
        -12    1    1    2    0    0  0.31227907193E+02 -0.12116221913E+02  0.27597792068E+02  0.43400727506E+02  0.00000000000E+00 0.  1.
         11    1    3    3    0    0 -0.18488284720E+02  0.63856283541E+01 -0.24392207251E+02  0.31266158961E+02  0.51100000000E-03 0. -1.
        -11    1    3    3    0    0 -0.91913779108E+01  0.90377175372E+00 -0.46769404068E+01  0.10352391178E+02  0.51100000000E-03 0.  1.
        -12    1    3    3    0    0 -0.35482445620E+01  0.48268218046E+01  0.14713555901E+01  0.61687223538E+01  0.00000000000E+00 0.  1.
</event>
<event>
 7    1  0.4675811E-010  0.4778727E+02  0.7816164E-02  0.1312668E+00
        -11   -1    0    0    0    0  0.00000000000E+00  0.00000000000E+00  0.45593999997E+02  0.45594000000E+02  0.51100000000E-03 0.  1.
         11   -1    0    0    0    0 -0.00000000000E+00 -0.00000000000E+00 -0.45593999997E+02  0.45594000000E+02  0.51100000000E-03 0. -1.
    9900012    2    1    2    0    0 -0.43113772289E+02 -0.40833466354E+01 -0.28552528253E+01  0.47787267869E+02  0.19999985524E+02 0.  0.
        -12    1    1    2    0    0  0.43113772289E+02  0.40833466354E+01  0.28552528253E+01  0.43400732131E+02  0.00000000000E+00 0.  1.
         11    1    3    3    0    0 -0.21921187048E+01 -0.19445436003E+01 -0.33121023436E+01  0.44222908571E+01  0.51100000000E-03 0. -1.
        -11    1    3    3    0    0 -0.10850271260E+02 -0.69768345240E+01 -0.15596054440E+00  0.12900733714E+02  0.51100000000E-03 0.  1.
        -12    1    3    3    0    0 -0.30071382324E+02  0.48380314889E+01  0.61281006269E+00  0.30464243299E+02  0.00000000000E+00 0.  1.
</event>
<event>
 7    1  0.4675811E-010  0.4778727E+02  0.7816164E-02  0.1312668E+00
        -11   -1    0    0    0    0  0.00000000000E+00  0.00000000000E+00  0.45593999997E+02  0.45594000000E+02  0.51100000000E-03 0.  1.
         11   -1    0    0    0    0 -0.00000000000E+00 -0.00000000000E+00 -0.45593999997E+02  0.45594000000E+02  0.51100000000E-03 0. -1.
    9900012    2    1    2    0    0  0.35349692894E+02 -0.70520388896E+01 -0.24172119116E+02  0.47787269790E+02  0.19999994280E+02 0.  0.
        -12    1    1    2    0    0 -0.35349692894E+02  0.70520388896E+01  0.24172119116E+02  0.43400730210E+02  0.00000000000E+00 0.  1.
         11    1    3    3    0    0  0.53839733213E+01 -0.47739084054E+01 -0.99359621405E+01  0.12267873251E+02  0.51100000000E-03 0. -1.
        -11    1    3    3    0    0  0.62709084217E+01 -0.49943013879E+01 -0.68703511294E+01  0.10557891063E+02  0.51100000000E-03 0.  1.
         12    1    3    3    0    0  0.23694811151E+02  0.27161709037E+01 -0.73658058463E+01  0.24961505476E+02  0.00000000000E+00 0. -1.
</event>
<event>
 7    1  0.4675811E-010  0.4778727E+02  0.7816164E-02  0.1312668E+00
        -11   -1    0    0    0    0  0.00000000000E+00  0.00000000000E+00  0.45593999997E+02  0.45594000000E+02  0.51100000000E-03 0.  1.
         11   -1    0    0    0    0 -0.00000000000E+00 -0.00000000000E+00 -0.45593999997E+02  0.45594000000E+02  0.51100000000E-03 0. -1.
    9900012    2    1    2    0    0 -0.21678518705E+02  0.36511622718E+02  0.89758786605E+01  0.47787272305E+02  0.20000005747E+02 0.  0.
        -12    1    1    2    0    0  0.21678518705E+02 -0.36511622718E+02 -0.89758786605E+01  0.43400727695E+02  0.00000000000E+00 0.  1.
         11    1    3    3    0    0 -0.12544913159E+02  0.25228942115E+02  0.11739668290E+02  0.30523665871E+02  0.51100000000E-03 0. -1.
        -11    1    3    3    0    0 -0.40391809723E+01  0.11109104090E+02 -0.97217405219E+00  0.11860535370E+02  0.51100000000E-03 0.  1.
        -12    1    3    3    0    0 -0.50944245740E+01  0.17357651278E+00 -0.17916155769E+01  0.54030710639E+01  0.00000000000E+00 0.  1.
</event>
<event>
 7    1  0.4675811E-010  0.4778730E+02  0.7816164E-02  0.1312668E+00
        -11   -1    0    0    0    0  0.00000000000E+00  0.00000000000E+00  0.45593999997E+02  0.45594000000E+02  0.51100000000E-03 0. -1.
         11   -1    0    0    0    0 -0.00000000000E+00 -0.00000000000E+00 -0.45593999997E+02  0.45594000000E+02  0.51100000000E-03 0.  1.
    9900012    2    1    2    0    0  0.21492105804E+02  0.37703368240E+02 -0.40778662932E+00  0.47787298641E+02  0.20000125823E+02 0.  0.
        -12    1    1    2    0    0 -0.21492105804E+02 -0.37703368240E+02  0.40778662932E+00  0.43400701359E+02  0.00000000000E+00 0.  1.
         11    1    3    3    0    0  0.60151662796E+01  0.17608100381E+02 -0.53599134774E+01  0.19363783131E+02  0.51100000000E-03 0. -1.
        -11    1    3    3    0    0  0.70336530844E+01  0.10594409853E+02 -0.34630896761E+01  0.13179787032E+02  0.51100000000E-03 0.  1.
         12    1    3    3    0    0  0.84432864399E+01  0.95008580061E+01  0.84152165242E+01  0.15243728478E+02  0.00000000000E+00 0. -1.
</event>
<event>
 7    1  0.4675811E-010  0.4778727E+02  0.7816164E-02  0.1312668E+00
        -11   -1    0    0    0    0  0.00000000000E+00  0.00000000000E+00  0.45593999997E+02  0.45594000000E+02  0.51100000000E-03 0.  1.
         11   -1    0    0    0    0 -0.00000000000E+00 -0.00000000000E+00 -0.45593999997E+02  0.45594000000E+02  0.51100000000E-03 0. -1.
    9900012    2    1    2    0    0  0.15077969330E+02  0.21246758529E+02 -0.34710997174E+02  0.47787271528E+02  0.20000002205E+02 0.  0.
        -12    1    1    2    0    0 -0.15077969330E+02 -0.21246758529E+02  0.34710997174E+02  0.43400728472E+02  0.00000000000E+00 0.  1.
         11    1    3    3    0    0  0.56055010263E+01  0.52537415530E+01 -0.78015547868E+01  0.10949324153E+02  0.51100000000E-03 0. -1.
        -11    1    3    3    0    0  0.52184498491E+01 -0.70803427609E+00 -0.48305504606E+00  0.52883715643E+01  0.51100000000E-03 0.  1.
        -12    1    3    3    0    0  0.42540184549E+01  0.16701051252E+02 -0.26426387341E+02  0.31549575810E+02  0.00000000000E+00 0.  1.
</event>
<event>
 7    1  0.4675811E-010  0.4778727E+02  0.7816164E-02  0.1312668E+00
        -11   -1    0    0    0    0  0.00000000000E+00  0.00000000000E+00  0.45593999997E+02  0.45594000000E+02  0.51100000000E-03 0. -1.
         11   -1    0    0    0    0 -0.00000000000E+00 -0.00000000000E+00 -0.45593999997E+02  0.45594000000E+02  0.51100000000E-03 0.  1.
    9900012    2    1    2    0    0 -0.17216944988E+02 -0.37594732655E+02  0.13184694623E+02  0.47787270853E+02  0.19999999128E+02 0.  0.
        -12    1    1    2    0    0  0.17216944988E+02  0.37594732655E+02 -0.13184694623E+02  0.43400729147E+02  0.00000000000E+00 0.  1.
         11    1    3    3    0    0 -0.90078018520E+01 -0.13900457609E+02  0.56260160146E+01  0.17493292212E+02  0.51100000000E-03 0. -1.
        -11    1    3    3    0    0 -0.97467670707E+01 -0.22045153693E+02  0.18716164343E+01  0.24176253184E+02  0.51100000000E-03 0.  1.
        -12    1    3    3    0    0  0.15376239343E+01 -0.16491213532E+01  0.56870621742E+01  0.61177254575E+01  0.00000000000E+00 0.  1.
</event>
<event>
 7    1  0.4675811E-010  0.4778727E+02  0.7816164E-02  0.1312668E+00
        -11   -1    0    0    0    0  0.00000000000E+00  0.00000000000E+00  0.45593999997E+02  0.45594000000E+02  0.51100000000E-03 0. -1.
         11   -1    0    0    0    0 -0.00000000000E+00 -0.00000000000E+00 -0.45593999997E+02  0.45594000000E+02  0.51100000000E-03 0.  1.
    9900012    2    1    2    0    0  0.39852352949E+02  0.77461630272E+01  0.15343081782E+02  0.47787271483E+02  0.20000002000E+02 0.  0.
        -12    1    1    2    0    0 -0.39852352949E+02 -0.77461630272E+01 -0.15343081782E+02  0.43400728517E+02  0.00000000000E+00 0.  1.
         11    1    3    3    0    0  0.23368792268E+01  0.14523157176E+01 -0.17215899664E+01  0.32456274798E+01  0.51100000000E-03 0. -1.
        -11    1    3    3    0    0  0.20127233624E+02 -0.33568916198E+01  0.41318232663E+01  0.20819371232E+02  0.51100000000E-03 0.  1.
         12    1    3    3    0    0  0.17388240098E+02  0.96507389294E+01  0.12932848482E+02  0.23722272772E+02  0.00000000000E+00 0. -1.
</event>
<event>
 7    1  0.4675811E-010  0.4778727E+02  0.7816164E-02  0.1312668E+00
        -11   -1    0    0    0    0  0.00000000000E+00  0.00000000000E+00  0.45593999997E+02  0.45594000000E+02  0.51100000000E-03 0. -1.
         11   -1    0    0    0    0 -0.00000000000E+00 -0.00000000000E+00 -0.45593999997E+02  0.45594000000E+02  0.51100000000E-03 0.  1.
    9900012    2    1    2    0    0  0.30824101128E+02 -0.17065468976E+02  0.25343009273E+02  0.47787267739E+02  0.19999984931E+02 0.  0.
        -12    1    1    2    0    0 -0.30824101128E+02  0.17065468976E+02 -0.25343009273E+02  0.43400732261E+02  0.00000000000E+00 0.  1.
         11    1    3    3    0    0  0.10301312407E+02 -0.15795403237E+01  0.15902346415E+01  0.10542335198E+02  0.51100000000E-03 0.  1.
        -11    1    3    3    0    0  0.36935148798E+01  0.38294342175E+00 -0.48044828478E+00  0.37442661026E+01  0.51100000000E-03 0. -1.
         12    1    3    3    0    0  0.16829273841E+02 -0.15868872074E+02  0.24233222916E+02  0.33500666439E+02  0.00000000000E+00 0. -1.
</event>
<event>
 7    1  0.4675811E-010  0.4778727E+02  0.7816164E-02  0.1312668E+00
        -11   -1    0    0    0    0  0.00000000000E+00  0.00000000000E+00  0.45593999997E+02  0.45594000000E+02  0.51100000000E-03 0.  1.
         11   -1    0    0    0    0 -0.00000000000E+00 -0.00000000000E+00 -0.45593999997E+02  0.45594000000E+02  0.51100000000E-03 0. -1.
    9900012    2    1    2    0    0 -0.18044820724E+02  0.36038293974E+02 -0.16101208987E+02  0.47787272836E+02  0.20000008171E+02 0.  0.
        -12    1    1    2    0    0  0.18044820724E+02 -0.36038293974E+02  0.16101208987E+02  0.43400727164E+02  0.00000000000E+00 0.  1.
         11    1    3    3    0    0 -0.97887038676E+01  0.14911078673E+02 -0.11802959582E+02  0.21388521355E+02  0.51100000000E-03 0. -1.
        -11    1    3    3    0    0  0.23969000308E+00  0.10511405655E+02 -0.68716548634E+01  0.12560523116E+02  0.51100000000E-03 0.  1.
        -12    1    3    3    0    0 -0.84958068593E+01  0.10615809646E+02  0.25734054585E+01  0.13838228365E+02  0.00000000000E+00 0.  1.
</event>
<event>
 7    1  0.4675811E-010  0.4778727E+02  0.7816164E-02  0.1312668E+00
        -11   -1    0    0    0    0  0.00000000000E+00  0.00000000000E+00  0.45593999997E+02  0.45594000000E+02  0.51100000000E-03 0. -1.
         11   -1    0    0    0    0 -0.00000000000E+00 -0.00000000000E+00 -0.45593999997E+02  0.45594000000E+02  0.51100000000E-03 0.  1.
    9900012    2    1    2    0    0  0.97646997621E+01  0.33500617131E+02  0.25806638089E+02  0.47787270984E+02  0.19999999725E+02 0.  0.
        -12    1    1    2    0    0 -0.97646997621E+01 -0.33500617131E+02 -0.25806638089E+02  0.43400729016E+02  0.00000000000E+00 0.  1.
         11    1    3    3    0    0  0.84438881800E-02  0.21026549501E+01  0.19275045235E+00  0.21114881332E+01  0.51100000000E-03 0.  1.
        -11    1    3    3    0    0  0.22940042948E+01  0.30094687964E+02  0.19412022400E+02  0.35885642161E+02  0.51100000000E-03 0. -1.
         12    1    3    3    0    0  0.74622515791E+01  0.13032742169E+01  0.62018652368E+01  0.97901406900E+01  0.00000000000E+00 0. -1.
</event>
<event>
 7    1  0.4675811E-010  0.4778727E+02  0.7816164E-02  0.1312668E+00
        -11   -1    0    0    0    0  0.00000000000E+00  0.00000000000E+00  0.45593999997E+02  0.45594000000E+02  0.51100000000E-03 0. -1.
         11   -1    0    0    0    0 -0.00000000000E+00 -0.00000000000E+00 -0.45593999997E+02  0.45594000000E+02  0.51100000000E-03 0.  1.
    9900012    2    1    2    0    0  0.41383841439E+02 -0.11736012506E+02 -0.57677345714E+01  0.47787273234E+02  0.20000009982E+02 0.  0.
        -12    1    1    2    0    0 -0.41383841439E+02  0.11736012506E+02  0.57677345714E+01  0.43400726766E+02  0.00000000000E+00 0.  1.
         11    1    3    3    0    0  0.66245043781E+01 -0.37260098427E+01  0.38873401446E+01  0.85368976370E+01  0.51100000000E-03 0. -1.
        -11    1    3    3    0    0  0.77857831157E+01 -0.76094704889E+01 -0.10628929165E+01  0.10938564872E+02  0.51100000000E-03 0.  1.
        -12    1    3    3    0    0  0.26973553945E+02 -0.40053217421E+00 -0.85921817995E+01  0.28311810725E+02  0.00000000000E+00 0.  1.
</event>
<event>
 7    1  0.4675811E-010  0.4778727E+02  0.7816164E-02  0.1312668E+00
        -11   -1    0    0    0    0  0.00000000000E+00  0.00000000000E+00  0.45593999997E+02  0.45594000000E+02  0.51100000000E-03 0. -1.
         11   -1    0    0    0    0 -0.00000000000E+00 -0.00000000000E+00 -0.45593999997E+02  0.45594000000E+02  0.51100000000E-03 0.  1.
    9900012    2    1    2    0    0 -0.39118019839E+02  0.18235306027E+02  0.45691837494E+01  0.47787270719E+02  0.19999998516E+02 0.  0.
        -12    1    1    2    0    0  0.39118019839E+02 -0.18235306027E+02 -0.45691837494E+01  0.43400729281E+02  0.00000000000E+00 0.  1.
         11    1    3    3    0    0 -0.15231206578E+02  0.74098817082E+01 -0.69146226226E+00  0.16952112584E+02  0.51100000000E-03 0. -1.
        -11    1    3    3    0    0 -0.10732774855E+02 -0.28836317702E+01 -0.28880401439E-01  0.11113443328E+02  0.51100000000E-03 0.  1.
         12    1    3    3    0    0 -0.13154038406E+02  0.13709056089E+02  0.52895264131E+01  0.19721714806E+02  0.00000000000E+00 0. -1.
</event>
<event>
 7    1  0.4675811E-010  0.4778727E+02  0.7816164E-02  0.1312668E+00
        -11   -1    0    0    0    0  0.00000000000E+00  0.00000000000E+00  0.45593999997E+02  0.45594000000E+02  0.51100000000E-03 0.  1.
         11   -1    0    0    0    0 -0.00000000000E+00 -0.00000000000E+00 -0.45593999997E+02  0.45594000000E+02  0.51100000000E-03 0. -1.
    9900012    2    1    2    0    0 -0.26398530258E+02  0.49430083799E+01 -0.34092629427E+02  0.47787272900E+02  0.20000008458E+02 0.  0.
        -12    1    1    2    0    0  0.26398530258E+02 -0.49430083799E+01  0.34092629427E+02  0.43400727100E+02  0.00000000000E+00 0.  1.
         11    1    3    3    0    0 -0.19682757664E+02  0.54557324807E+01 -0.24881296155E+02  0.32190912768E+02  0.51100000000E-03 0. -1.
        -11    1    3    3    0    0 -0.22844211391E+01  0.16042198986E+01 -0.10210078805E+02  0.10584791490E+02  0.51100000000E-03 0.  1.
         12    1    3    3    0    0 -0.44313514544E+01 -0.21169439994E+01  0.99874553380E+00  0.50115686417E+01  0.00000000000E+00 0. -1.
</event>
<event>
 7    1  0.4675811E-010  0.4778727E+02  0.7816164E-02  0.1312668E+00
        -11   -1    0    0    0    0  0.00000000000E+00  0.00000000000E+00  0.45593999997E+02  0.45594000000E+02  0.51100000000E-03 0.  1.
         11   -1    0    0    0    0 -0.00000000000E+00 -0.00000000000E+00 -0.45593999997E+02  0.45594000000E+02  0.51100000000E-03 0. -1.
    9900012    2    1    2    0    0 -0.21928083941E+02 -0.31555709921E+02 -0.20174733138E+02  0.47787267850E+02  0.19999985434E+02 0.  0.
        -12    1    1    2    0    0  0.21928083941E+02  0.31555709921E+02  0.20174733138E+02  0.43400732150E+02  0.00000000000E+00 0.  1.
         11    1    3    3    0    0 -0.72597442067E+01 -0.12236564491E+02 -0.22712047089E+01  0.14408184049E+02  0.51100000000E-03 0. -1.
        -11    1    3    3    0    0 -0.15127734275E+02 -0.14916320095E+02 -0.83078062353E+01  0.22811501357E+02  0.51100000000E-03 0.  1.
        -12    1    3    3    0    0  0.45939454068E+00 -0.44028253354E+01 -0.95957221942E+01  0.10567582444E+02  0.00000000000E+00 0.  1.
</event>
<event>
 7    1  0.4675811E-010  0.4778727E+02  0.7816164E-02  0.1312668E+00
        -11   -1    0    0    0    0  0.00000000000E+00  0.00000000000E+00  0.45593999997E+02  0.45594000000E+02  0.51100000000E-03 0.  1.
         11   -1    0    0    0    0 -0.00000000000E+00 -0.00000000000E+00 -0.45593999997E+02  0.45594000000E+02  0.51100000000E-03 0. -1.
    9900012    2    1    2    0    0  0.12132724487E+02  0.15635609685E+02 -0.38625743531E+02  0.47787270086E+02  0.19999995632E+02 0.  0.
        -12    1    1    2    0    0 -0.12132724487E+02 -0.15635609685E+02  0.38625743531E+02  0.43400729914E+02  0.00000000000E+00 0.  1.
         11    1    3    3    0    0  0.24020635219E+01  0.88333159906E+01 -0.15273402031E+02  0.17806577167E+02  0.51100000000E-03 0. -1.
        -11    1    3    3    0    0  0.61556718789E+01  0.81470523264E+01 -0.24022658177E+02  0.26102775026E+02  0.51100000000E-03 0.  1.
        -12    1    3    3    0    0  0.35749890862E+01 -0.13447586323E+01  0.67031667634E+00  0.38779178939E+01  0.00000000000E+00 0.  1.
</event>
<event>
 7    1  0.4675811E-010  0.4778727E+02  0.7816164E-02  0.1312668E+00
        -11   -1    0    0    0    0  0.00000000000E+00  0.00000000000E+00  0.45593999997E+02  0.45594000000E+02  0.51100000000E-03 0. -1.
         11   -1    0    0    0    0 -0.00000000000E+00 -0.00000000000E+00 -0.45593999997E+02  0.45594000000E+02  0.51100000000E-03 0.  1.
    9900012    2    1    2    0    0 -0.21020391298E+02 -0.24830684011E+01  0.37889323188E+02  0.47787270851E+02  0.19999999120E+02 0.  0.
        -12    1    1    2    0    0  0.21020391298E+02  0.24830684011E+01 -0.37889323188E+02  0.43400729149E+02  0.00000000000E+00 0.  1.
         11    1    3    3    0    0 -0.18541216236E+01  0.50431357506E+01  0.51398538722E+01  0.74356629350E+01  0.51100000000E-03 0. -1.
        -11    1    3    3    0    0 -0.66528974267E+01  0.77257214141E+00  0.37014846117E+01  0.76523787463E+01  0.51100000000E-03 0.  1.
         12    1    3    3    0    0 -0.12513372248E+02 -0.82987762931E+01  0.29047984704E+02  0.32699229170E+02  0.00000000000E+00 0. -1.
</event>
<event>
 7    1  0.4675811E-010  0.4778728E+02  0.7816164E-02  0.1312668E+00
        -11   -1    0    0    0    0  0.00000000000E+00  0.00000000000E+00  0.45593999997E+02  0.45594000000E+02  0.51100000000E-03 0. -1.
         11   -1    0    0    0    0 -0.00000000000E+00 -0.00000000000E+00 -0.45593999997E+02  0.45594000000E+02  0.51100000000E-03 0.  1.
    9900012    2    1    2    0    0  0.43137264895E+02  0.84287677919E+00  0.46998297520E+01  0.47787280379E+02  0.20000042561E+02 0.  0.
        -12    1    1    2    0    0 -0.43137264895E+02 -0.84287677919E+00 -0.46998297520E+01  0.43400719621E+02  0.00000000000E+00 0.  1.
         11    1    3    3    0    0  0.24430079799E+02 -0.39382515743E+01  0.39845579353E+01  0.25064224038E+02  0.51100000000E-03 0. -1.
        -11    1    3    3    0    0  0.65528064459E+01 -0.37634144395E+01 -0.14926546628E+01  0.77026345340E+01  0.51100000000E-03 0.  1.
        -12    1    3    3    0    0  0.12154378650E+02  0.85445427930E+01  0.22079264795E+01  0.15020421807E+02  0.00000000000E+00 0.  1.
</event>
<event>
 7    1  0.4675811E-010  0.4778727E+02  0.7816164E-02  0.1312668E+00
        -11   -1    0    0    0    0  0.00000000000E+00  0.00000000000E+00  0.45593999997E+02  0.45594000000E+02  0.51100000000E-03 0.  1.
         11   -1    0    0    0    0 -0.00000000000E+00 -0.00000000000E+00 -0.45593999997E+02  0.45594000000E+02  0.51100000000E-03 0. -1.
    9900012    2    1    2    0    0 -0.33376163367E+02  0.32132030679E+01 -0.27555952786E+02  0.47787268566E+02  0.19999988700E+02 0.  0.
        -12    1    1    2    0    0  0.33376163367E+02 -0.32132030679E+01  0.27555952786E+02  0.43400731434E+02  0.00000000000E+00 0.  1.
         11    1    3    3    0    0 -0.46511365056E+01 -0.45239208845E+01 -0.42069705369E+01  0.77328864160E+01  0.51100000000E-03 0. -1.
        -11    1    3    3    0    0 -0.47873485277E+01  0.12161808217E+01  0.12726188904E+01  0.51007215978E+01  0.51100000000E-03 0.  1.
         12    1    3    3    0    0 -0.23937678334E+02  0.65209431307E+01 -0.24621601139E+02  0.34953660552E+02  0.00000000000E+00 0. -1.
</event>
<event>
 7    1  0.4675811E-010  0.4778727E+02  0.7816164E-02  0.1312668E+00
        -11   -1    0    0    0    0  0.00000000000E+00  0.00000000000E+00  0.45593999997E+02  0.45594000000E+02  0.51100000000E-03 0.  1.
         11   -1    0    0    0    0 -0.00000000000E+00 -0.00000000000E+00 -0.45593999997E+02  0.45594000000E+02  0.51100000000E-03 0. -1.
    9900012    2    1    2    0    0  0.18995238500E+02  0.38992275118E+02 -0.15512988826E+01  0.47787272670E+02  0.20000007411E+02 0.  0.
        -12    1    1    2    0    0 -0.18995238500E+02 -0.38992275118E+02  0.15512988826E+01  0.43400727330E+02  0.00000000000E+00 0.  1.
         11    1    3    3    0    0  0.52198303406E+01  0.98948312148E+01 -0.75153364046E+00  0.11212453640E+02  0.51100000000E-03 0. -1.
        -11    1    3    3    0    0  0.82406200778E+01  0.23802994512E+02  0.64785532841E+01  0.26008883481E+02  0.51100000000E-03 0.  1.
         12    1    3    3    0    0  0.55347880811E+01  0.52944493918E+01 -0.72783185262E+01  0.10565935549E+02  0.00000000000E+00 0. -1.
</event>
<event>
 7    1  0.4675811E-010  0.4778728E+02  0.7816164E-02  0.1312668E+00
        -11   -1    0    0    0    0  0.00000000000E+00  0.00000000000E+00  0.45593999997E+02  0.45594000000E+02  0.51100000000E-03 0. -1.
         11   -1    0    0    0    0 -0.00000000000E+00 -0.00000000000E+00 -0.45593999997E+02  0.45594000000E+02  0.51100000000E-03 0.  1.
    9900012    2    1    2    0    0 -0.34282892318E+02  0.26574545166E+02  0.14490263076E+01  0.47787276116E+02  0.20000023121E+02 0.  0.
        -12    1    1    2    0    0  0.34282892318E+02 -0.26574545166E+02 -0.14490263076E+01  0.43400723884E+02  0.00000000000E+00 0.  1.
         11    1    3    3    0    0 -0.90720149859E+01  0.13291075872E+02 -0.16396883787E+01  0.16175374245E+02  0.51100000000E-03 0. -1.
        -11    1    3    3    0    0 -0.15012810225E+02  0.83603471486E+01 -0.47634129610E+01  0.17831712722E+02  0.51100000000E-03 0.  1.
        -12    1    3    3    0    0 -0.10198067107E+02  0.49231221458E+01  0.78521276473E+01  0.13780189148E+02  0.00000000000E+00 0.  1.
</event>
<event>
 7    1  0.4675811E-010  0.4778727E+02  0.7816164E-02  0.1312668E+00
        -11   -1    0    0    0    0  0.00000000000E+00  0.00000000000E+00  0.45593999997E+02  0.45594000000E+02  0.51100000000E-03 0. -1.
         11   -1    0    0    0    0 -0.00000000000E+00 -0.00000000000E+00 -0.45593999997E+02  0.45594000000E+02  0.51100000000E-03 0.  1.
    9900012    2    1    2    0    0 -0.18747869633E+02 -0.12545475182E+02  0.37077645155E+02  0.47787270357E+02  0.19999996865E+02 0.  0.
        -12    1    1    2    0    0  0.18747869633E+02  0.12545475182E+02 -0.37077645155E+02  0.43400729643E+02  0.00000000000E+00 0.  1.
         11    1    3    3    0    0 -0.64963988601E+01 -0.92704907868E+01  0.18975535147E+02  0.22095613410E+02  0.51100000000E-03 0. -1.
        -11    1    3    3    0    0 -0.21504202496E+01  0.13621367806E+00  0.14162640062E+02  0.14325614653E+02  0.51100000000E-03 0.  1.
         12    1    3    3    0    0 -0.10101050523E+02 -0.34111980731E+01  0.39394699460E+01  0.11366042294E+02  0.00000000000E+00 0. -1.
</event>
<event>
 7    1  0.4675811E-010  0.4778727E+02  0.7816164E-02  0.1312668E+00
        -11   -1    0    0    0    0  0.00000000000E+00  0.00000000000E+00  0.45593999997E+02  0.45594000000E+02  0.51100000000E-03 0.  1.
         11   -1    0    0    0    0 -0.00000000000E+00 -0.00000000000E+00 -0.45593999997E+02  0.45594000000E+02  0.51100000000E-03 0. -1.
    9900012    2    1    2    0    0 -0.13056830298E+02  0.25730702769E+02 -0.32420266104E+02  0.47787268017E+02  0.19999986196E+02 0.  0.
        -12    1    1    2    0    0  0.13056830298E+02 -0.25730702769E+02  0.32420266104E+02  0.43400731983E+02  0.00000000000E+00 0.  1.
         11    1    3    3    0    0 -0.10035899611E+02  0.18144140962E+02 -0.19741475186E+02  0.28629617096E+02  0.51100000000E-03 0. -1.
        -11    1    3    3    0    0 -0.57527669138E+00  0.99372169386E+01 -0.58832766756E+01  0.11562532960E+02  0.51100000000E-03 0.  1.
        -12    1    3    3    0    0 -0.24456539957E+01 -0.23506551325E+01 -0.67955142422E+01  0.75951179605E+01  0.00000000000E+00 0.  1.
</event>
<event>
 7    1  0.4675811E-010  0.4778727E+02  0.7816164E-02  0.1312668E+00
        -11   -1    0    0    0    0  0.00000000000E+00  0.00000000000E+00  0.45593999997E+02  0.45594000000E+02  0.51100000000E-03 0.  1.
         11   -1    0    0    0    0 -0.00000000000E+00 -0.00000000000E+00 -0.45593999997E+02  0.45594000000E+02  0.51100000000E-03 0. -1.
    9900012    2    1    2    0    0 -0.42644010950E+02 -0.68240921556E+01 -0.43062089007E+01  0.47787270297E+02  0.19999996591E+02 0.  0.
        -12    1    1    2    0    0  0.42644010950E+02  0.68240921556E+01  0.43062089007E+01  0.43400729703E+02  0.00000000000E+00 0.  1.
         11    1    3    3    0    0 -0.13291601437E+02  0.36439235963E+01 -0.75167593770E+01  0.15698615217E+02  0.51100000000E-03 0. -1.
        -11    1    3    3    0    0 -0.53433946427E+01  0.50242676818E-01 -0.12800797293E+01  0.54948152843E+01  0.51100000000E-03 0.  1.
        -12    1    3    3    0    0 -0.24009014871E+02 -0.10518258429E+02  0.44906302056E+01  0.26593839796E+02  0.00000000000E+00 0.  1.
</event>
<event>
 7    1  0.4675811E-010  0.4778725E+02  0.7816164E-02  0.1312668E+00
        -11   -1    0    0    0    0  0.00000000000E+00  0.00000000000E+00  0.45593999997E+02  0.45594000000E+02  0.51100000000E-03 0.  1.
         11   -1    0    0    0    0 -0.00000000000E+00 -0.00000000000E+00 -0.45593999997E+02  0.45594000000E+02  0.51100000000E-03 0. -1.
    9900012    2    1    2    0    0 -0.65477095466E+01  0.43394177576E+01 -0.42683977612E+02  0.47787251256E+02  0.19999909775E+02 0.  0.
        -12    1    1    2    0    0  0.65477095466E+01 -0.43394177576E+01  0.42683977612E+02  0.43400748744E+02  0.00000000000E+00 0.  1.
         11    1    3    3    0    0 -0.64984954346E+01 -0.17625087407E+01 -0.16762158214E+02  0.18063964909E+02  0.51100000000E-03 0. -1.
        -11    1    3    3    0    0 -0.52286917134E+01  0.74560937005E+01 -0.17825960998E+02  0.20017428308E+02  0.51100000000E-03 0.  1.
        -12    1    3    3    0    0  0.51794776013E+01 -0.13541672022E+01 -0.80958584003E+01  0.97058580389E+01  0.00000000000E+00 0.  1.
</event>
<event>
 7    1  0.4675811E-010  0.4778727E+02  0.7816164E-02  0.1312668E+00
        -11   -1    0    0    0    0  0.00000000000E+00  0.00000000000E+00  0.45593999997E+02  0.45594000000E+02  0.51100000000E-03 0.  1.
         11   -1    0    0    0    0 -0.00000000000E+00 -0.00000000000E+00 -0.45593999997E+02  0.45594000000E+02  0.51100000000E-03 0. -1.
    9900012    2    1    2    0    0  0.89338185073E+01 -0.40085205525E+02 -0.14035184142E+02  0.47787271792E+02  0.20000003408E+02 0.  0.
        -12    1    1    2    0    0 -0.89338185073E+01  0.40085205525E+02  0.14035184142E+02  0.43400728208E+02  0.00000000000E+00 0.  1.
         11    1    3    3    0    0 -0.97269803361E+00 -0.91066893557E+01 -0.55869163356E+01  0.10728073773E+02  0.51100000000E-03 0. -1.
        -11    1    3    3    0    0  0.61056218559E+01 -0.70626048526E+01 -0.88156447518E+01  0.12840350393E+02  0.51100000000E-03 0.  1.
         12    1    3    3    0    0  0.38008946850E+01 -0.23915911316E+02  0.36737694511E+00  0.24218847626E+02  0.00000000000E+00 0. -1.
</event>
<event>
 7    1  0.4675811E-010  0.4778727E+02  0.7816164E-02  0.1312668E+00
        -11   -1    0    0    0    0  0.00000000000E+00  0.00000000000E+00  0.45593999997E+02  0.45594000000E+02  0.51100000000E-03 0.  1.
         11   -1    0    0    0    0 -0.00000000000E+00 -0.00000000000E+00 -0.45593999997E+02  0.45594000000E+02  0.51100000000E-03 0. -1.
    9900012    2    1    2    0    0  0.16805895941E+02  0.90629382880E+01 -0.38974968922E+02  0.47787271996E+02  0.20000004338E+02 0.  0.
        -12    1    1    2    0    0 -0.16805895941E+02 -0.90629382880E+01  0.38974968922E+02  0.43400728004E+02  0.00000000000E+00 0.  1.
         11    1    3    3    0    0  0.58345265007E+01  0.18218874527E+01 -0.21208107882E+01  0.64698386408E+01  0.51100000000E-03 0. -1.
        -11    1    3    3    0    0  0.42399074349E+01 -0.34493278736E+01 -0.68589223703E+01  0.87703759429E+01  0.51100000000E-03 0.  1.
         12    1    3    3    0    0  0.67314620058E+01  0.10690378709E+02 -0.29995235764E+02  0.32547057412E+02  0.00000000000E+00 0. -1.
</event>
<event>
 7    1  0.4675811E-010  0.4778728E+02  0.7816164E-02  0.1312668E+00
        -11   -1    0    0    0    0  0.00000000000E+00  0.00000000000E+00  0.45593999997E+02  0.45594000000E+02  0.51100000000E-03 0.  1.
         11   -1    0    0    0    0 -0.00000000000E+00 -0.00000000000E+00 -0.45593999997E+02  0.45594000000E+02  0.51100000000E-03 0. -1.
    9900012    2    1    2    0    0 -0.75126666238E+01  0.42467905577E+02  0.48641114737E+01  0.47787277145E+02  0.20000027816E+02 0.  0.
        -12    1    1    2    0    0  0.75126666238E+01 -0.42467905577E+02 -0.48641114737E+01  0.43400722855E+02  0.00000000000E+00 0.  1.
         11    1    3    3    0    0 -0.11170868624E+02  0.28460789112E+02  0.84238261785E+01  0.31713808829E+02  0.51100000000E-03 0. -1.
        -11    1    3    3    0    0 -0.60608897005E-01  0.13883832477E-01 -0.14386326330E+01  0.14399758029E+01  0.51100000000E-03 0.  1.
        -12    1    3    3    0    0  0.37188108969E+01  0.13993232632E+02 -0.21210820717E+01  0.14633492513E+02  0.00000000000E+00 0.  1.
</event>
<event>
 7    1  0.4675811E-010  0.4778727E+02  0.7816164E-02  0.1312668E+00
        -11   -1    0    0    0    0  0.00000000000E+00  0.00000000000E+00  0.45593999997E+02  0.45594000000E+02  0.51100000000E-03 0.  1.
         11   -1    0    0    0    0 -0.00000000000E+00 -0.00000000000E+00 -0.45593999997E+02  0.45594000000E+02  0.51100000000E-03 0. -1.
    9900012    2    1    2    0    0 -0.18844401992E+02  0.31850742045E+02 -0.22672491690E+02  0.47787272648E+02  0.20000007312E+02 0.  0.
        -12    1    1    2    0    0  0.18844401992E+02 -0.31850742045E+02  0.22672491690E+02  0.43400727352E+02  0.00000000000E+00 0.  1.
         11    1    3    3    0    0  0.37734912891E+00  0.94022649393E+01 -0.54774966863E+01  0.10887972656E+02  0.51100000000E-03 0. -1.
        -11    1    3    3    0    0 -0.53209814991E+01  0.11928248570E+02 -0.14053028813E+02  0.19185504349E+02  0.51100000000E-03 0.  1.
        -12    1    3    3    0    0 -0.13900769622E+02  0.10520228536E+02 -0.31419661907E+01  0.17713795643E+02  0.00000000000E+00 0.  1.
</event>
<event>
 7    1  0.4675811E-010  0.4778727E+02  0.7816164E-02  0.1312668E+00
        -11   -1    0    0    0    0  0.00000000000E+00  0.00000000000E+00  0.45593999997E+02  0.45594000000E+02  0.51100000000E-03 0.  1.
         11   -1    0    0    0    0 -0.00000000000E+00 -0.00000000000E+00 -0.45593999997E+02  0.45594000000E+02  0.51100000000E-03 0. -1.
    9900012    2    1    2    0    0 -0.81357214355E+01 -0.42555039970E+02  0.25499126659E+01  0.47787269076E+02  0.19999991027E+02 0.  0.
        -12    1    1    2    0    0  0.81357214355E+01  0.42555039970E+02 -0.25499126659E+01  0.43400730924E+02  0.00000000000E+00 0.  1.
         11    1    3    3    0    0 -0.44113341190E+01 -0.17696801516E+01  0.35797153122E+00  0.47665270823E+01  0.51100000000E-03 0. -1.
        -11    1    3    3    0    0 -0.12258245374E+00 -0.30948838246E+01 -0.35659160545E+01  0.47232499314E+01  0.51100000000E-03 0.  1.
         12    1    3    3    0    0 -0.36018048628E+01 -0.37690475993E+02  0.57578571892E+01  0.38297492063E+02  0.00000000000E+00 0. -1.
</event>
<event>
 7    1  0.4675811E-010  0.4778727E+02  0.7816164E-02  0.1312668E+00
        -11   -1    0    0    0    0  0.00000000000E+00  0.00000000000E+00  0.45593999997E+02  0.45594000000E+02  0.51100000000E-03 0.  1.
         11   -1    0    0    0    0 -0.00000000000E+00 -0.00000000000E+00 -0.45593999997E+02  0.45594000000E+02  0.51100000000E-03 0. -1.
    9900012    2    1    2    0    0  0.35877496302E+02  0.12049183605E+02 -0.21242552192E+02  0.47787267401E+02  0.19999983389E+02 0.  0.
        -12    1    1    2    0    0 -0.35877496302E+02 -0.12049183605E+02  0.21242552192E+02  0.43400732599E+02  0.00000000000E+00 0.  1.
         11    1    3    3    0    0  0.10224297508E+02  0.94784339125E+01 -0.97669255885E+00  0.13976083056E+02  0.51100000000E-03 0. -1.
        -11    1    3    3    0    0  0.83635551290E+00 -0.16511621609E+01 -0.18817419324E+01  0.26394658526E+01  0.51100000000E-03 0.  1.
        -12    1    3    3    0    0  0.24816843282E+02  0.42219118535E+01 -0.18384117701E+02  0.31171718493E+02  0.00000000000E+00 0.  1.
</event>
<event>
 7    1  0.4675811E-010  0.4778727E+02  0.7816164E-02  0.1312668E+00
        -11   -1    0    0    0    0  0.00000000000E+00  0.00000000000E+00  0.45593999997E+02  0.45594000000E+02  0.51100000000E-03 0. -1.
         11   -1    0    0    0    0 -0.00000000000E+00 -0.00000000000E+00 -0.45593999997E+02  0.45594000000E+02  0.51100000000E-03 0.  1.
    9900012    2    1    2    0    0 -0.58272813887E+01 -0.42987422059E+02  0.13219762773E+01  0.47787270917E+02  0.19999999419E+02 0.  0.
        -12    1    1    2    0    0  0.58272813887E+01  0.42987422059E+02 -0.13219762773E+01  0.43400729083E+02  0.00000000000E+00 0.  1.
         11    1    3    3    0    0 -0.12747822883E+01 -0.78703183474E+01  0.23965547127E+01  0.83252901165E+01  0.51100000000E-03 0. -1.
        -11    1    3    3    0    0 -0.99915318974E+01 -0.13004774642E+02 -0.27507708757E+01  0.16628939047E+02  0.51100000000E-03 0.  1.
        -12    1    3    3    0    0  0.54390327969E+01 -0.22112329070E+02  0.16761924404E+01  0.22833041754E+02  0.00000000000E+00 0.  1.
</event>
<event>
 7    1  0.4675811E-010  0.4778727E+02  0.7816164E-02  0.1312668E+00
        -11   -1    0    0    0    0  0.00000000000E+00  0.00000000000E+00  0.45593999997E+02  0.45594000000E+02  0.51100000000E-03 0. -1.
         11   -1    0    0    0    0 -0.00000000000E+00 -0.00000000000E+00 -0.45593999997E+02  0.45594000000E+02  0.51100000000E-03 0.  1.
    9900012    2    1    2    0    0  0.34797957093E+02 -0.16765170367E+02 -0.19790268552E+02  0.47787268617E+02  0.19999988931E+02 0.  0.
        -12    1    1    2    0    0 -0.34797957093E+02  0.16765170367E+02  0.19790268552E+02  0.43400731383E+02  0.00000000000E+00 0.  1.
         11    1    3    3    0    0  0.10949043047E+02 -0.53855136318E+00 -0.77058207111E+01  0.13399673664E+02  0.51100000000E-03 0. -1.
        -11    1    3    3    0    0  0.36437335877E+01  0.75078806202E+00 -0.63826504224E+01  0.73877401043E+01  0.51100000000E-03 0.  1.
         12    1    3    3    0    0  0.20205180458E+02 -0.16977407066E+02 -0.57017974181E+01  0.26999854848E+02  0.00000000000E+00 0. -1.
</event>
<event>
 7    1  0.4675811E-010  0.4778727E+02  0.7816164E-02  0.1312668E+00
        -11   -1    0    0    0    0  0.00000000000E+00  0.00000000000E+00  0.45593999997E+02  0.45594000000E+02  0.51100000000E-03 0.  1.
         11   -1    0    0    0    0 -0.00000000000E+00 -0.00000000000E+00 -0.45593999997E+02  0.45594000000E+02  0.51100000000E-03 0. -1.
    9900012    2    1    2    0    0  0.10648879911E+02 -0.29403953313E+02 -0.30093725119E+02  0.47787269530E+02  0.19999993095E+02 0.  0.
        -12    1    1    2    0    0 -0.10648879911E+02  0.29403953313E+02  0.30093725119E+02  0.43400730470E+02  0.00000000000E+00 0.  1.
         11    1    3    3    0    0  0.39776922193E+01 -0.31760836218E+01  0.45593384271E+00  0.51105203741E+01  0.51100000000E-03 0. -1.
        -11    1    3    3    0    0  0.26070506024E+01 -0.16475606092E+01  0.21229283999E+00  0.30913164373E+01  0.51100000000E-03 0.  1.
         12    1    3    3    0    0  0.40641370895E+01 -0.24580309082E+02 -0.30761951802E+02  0.39585432718E+02  0.00000000000E+00 0. -1.
</event>
<event>
 7    1  0.4675811E-010  0.4778726E+02  0.7816164E-02  0.1312668E+00
        -11   -1    0    0    0    0  0.00000000000E+00  0.00000000000E+00  0.45593999997E+02  0.45594000000E+02  0.51100000000E-03 0.  1.
         11   -1    0    0    0    0 -0.00000000000E+00 -0.00000000000E+00 -0.45593999997E+02  0.45594000000E+02  0.51100000000E-03 0. -1.
    9900012    2    1    2    0    0  0.85457605802E+01  0.27460349346E+02 -0.32504203475E+02  0.47787262061E+02  0.19999959041E+02 0.  0.
        -12    1    1    2    0    0 -0.85457605802E+01 -0.27460349346E+02  0.32504203475E+02  0.43400737939E+02  0.00000000000E+00 0.  1.
         11    1    3    3    0    0  0.29203935129E+01  0.17619257988E+02 -0.17959557717E+02  0.25328100283E+02  0.51100000000E-03 0. -1.
        -11    1    3    3    0    0 -0.36905240492E+01  0.39196857914E+01 -0.19846179658E+01  0.57378230360E+01  0.51100000000E-03 0.  1.
         12    1    3    3    0    0  0.93158911164E+01  0.59214055671E+01 -0.12560027792E+02  0.16721338742E+02  0.00000000000E+00 0. -1.
</event>
<event>
 7    1  0.4675811E-010  0.4778727E+02  0.7816164E-02  0.1312668E+00
        -11   -1    0    0    0    0  0.00000000000E+00  0.00000000000E+00  0.45593999997E+02  0.45594000000E+02  0.51100000000E-03 0.  1.
         11   -1    0    0    0    0 -0.00000000000E+00 -0.00000000000E+00 -0.45593999997E+02  0.45594000000E+02  0.51100000000E-03 0. -1.
    9900012    2    1    2    0    0 -0.27577808466E+02  0.98041498229E+01 -0.32046318126E+02  0.47787269834E+02  0.19999994480E+02 0.  0.
        -12    1    1    2    0    0  0.27577808466E+02 -0.98041498229E+01  0.32046318126E+02  0.43400730166E+02  0.00000000000E+00 0.  1.
         11    1    3    3    0    0 -0.43862399330E+01  0.72478272530E+01 -0.55198896538E+01  0.10111344257E+02  0.51100000000E-03 0. -1.
        -11    1    3    3    0    0 -0.42031063940E+00 -0.29751493666E+01 -0.51221515924E+01  0.59384014670E+01  0.51100000000E-03 0.  1.
        -12    1    3    3    0    0 -0.22771257894E+02  0.55314719365E+01 -0.21404276880E+02  0.31737524109E+02  0.00000000000E+00 0.  1.
</event>
<event>
 7    1  0.4675811E-010  0.4778727E+02  0.7816164E-02  0.1312668E+00
        -11   -1    0    0    0    0  0.00000000000E+00  0.00000000000E+00  0.45593999997E+02  0.45594000000E+02  0.51100000000E-03 0. -1.
         11   -1    0    0    0    0 -0.00000000000E+00 -0.00000000000E+00 -0.45593999997E+02  0.45594000000E+02  0.51100000000E-03 0.  1.
    9900012    2    1    2    0    0 -0.32765330780E+02 -0.21137053625E+02 -0.19059951757E+02  0.47787266158E+02  0.19999977721E+02 0.  0.
        -12    1    1    2    0    0  0.32765330780E+02  0.21137053625E+02  0.19059951757E+02  0.43400733842E+02  0.00000000000E+00 0.  1.
         11    1    3    3    0    0 -0.13317581891E+02 -0.56088365858E+01 -0.98065047218E+01  0.17463807443E+02  0.51100000000E-03 0. -1.
        -11    1    3    3    0    0 -0.17929128468E+02 -0.58441992525E+01 -0.43044429893E+01  0.19342609499E+02  0.51100000000E-03 0.  1.
         12    1    3    3    0    0 -0.15186204209E+01 -0.96840177866E+01 -0.49490040460E+01  0.10980849217E+02  0.00000000000E+00 0. -1.
</event>
<event>
 7    1  0.4675811E-010  0.4778727E+02  0.7816164E-02  0.1312668E+00
        -11   -1    0    0    0    0  0.00000000000E+00  0.00000000000E+00  0.45593999997E+02  0.45594000000E+02  0.51100000000E-03 0.  1.
         11   -1    0    0    0    0 -0.00000000000E+00 -0.00000000000E+00 -0.45593999997E+02  0.45594000000E+02  0.51100000000E-03 0. -1.
    9900012    2    1    2    0    0 -0.31194899693E+02 -0.22045195067E+02 -0.20603667675E+02  0.47787268278E+02  0.19999987386E+02 0.  0.
        -12    1    1    2    0    0  0.31194899693E+02  0.22045195067E+02  0.20603667675E+02  0.43400731722E+02  0.00000000000E+00 0.  1.
         11    1    3    3    0    0 -0.14713257660E+02 -0.57574557491E+01 -0.99770312441E+01  0.18686075040E+02  0.51100000000E-03 0. -1.
        -11    1    3    3    0    0 -0.19020285992E+01 -0.27329986772E+01  0.33921238049E+01  0.47532619043E+01  0.51100000000E-03 0.  1.
         12    1    3    3    0    0 -0.14579613433E+02 -0.13554740640E+02 -0.14018760236E+02  0.24347931334E+02  0.00000000000E+00 0. -1.
</event>
<event>
 7    1  0.4675811E-010  0.4778728E+02  0.7816164E-02  0.1312668E+00
        -11   -1    0    0    0    0  0.00000000000E+00  0.00000000000E+00  0.45593999997E+02  0.45594000000E+02  0.51100000000E-03 0. -1.
         11   -1    0    0    0    0 -0.00000000000E+00 -0.00000000000E+00 -0.45593999997E+02  0.45594000000E+02  0.51100000000E-03 0.  1.
    9900012    2    1    2    0    0  0.23720708675E+02 -0.18398778907E+02  0.31343827922E+02  0.47787278414E+02  0.20000033601E+02 0.  0.
        -12    1    1    2    0    0 -0.23720708675E+02  0.18398778907E+02 -0.31343827922E+02  0.43400721586E+02  0.00000000000E+00 0.  1.
         11    1    3    3    0    0  0.10421794257E+02 -0.10365235880E+02  0.20624116038E+02  0.25325995992E+02  0.51100000000E-03 0. -1.
        -11    1    3    3    0    0  0.15261510772E+02 -0.71308316901E+01  0.11225154659E+02  0.20242691743E+02  0.51100000000E-03 0.  1.
        -12    1    3    3    0    0 -0.19625963531E+01 -0.90271133777E+00 -0.50544277408E+00  0.22185906794E+01  0.00000000000E+00 0.  1.
</event>
<event>
 7    1  0.4675811E-010  0.4778727E+02  0.7816164E-02  0.1312668E+00
        -11   -1    0    0    0    0  0.00000000000E+00  0.00000000000E+00  0.45593999997E+02  0.45594000000E+02  0.51100000000E-03 0.  1.
         11   -1    0    0    0    0 -0.00000000000E+00 -0.00000000000E+00 -0.45593999997E+02  0.45594000000E+02  0.51100000000E-03 0. -1.
    9900012    2    1    2    0    0 -0.14595341398E+01  0.17387590653E+02 -0.39738706276E+02  0.47787270455E+02  0.19999997310E+02 0.  0.
        -12    1    1    2    0    0  0.14595341398E+01 -0.17387590653E+02  0.39738706276E+02  0.43400729545E+02  0.00000000000E+00 0.  1.
         11    1    3    3    0    0  0.29536690895E+01  0.15817324449E+02 -0.18969630936E+02  0.24874863053E+02  0.51100000000E-03 0.  1.
        -11    1    3    3    0    0 -0.43226692549E+01  0.47740376165E+01 -0.12987139031E+02  0.14496299014E+02  0.51100000000E-03 0. -1.
        -12    1    3    3    0    0 -0.90533974328E-01 -0.32037714123E+01 -0.77819363088E+01  0.84161083868E+01  0.00000000000E+00 0.  1.
</event>
<event>
 7    1  0.4675811E-010  0.4778727E+02  0.7816164E-02  0.1312668E+00
        -11   -1    0    0    0    0  0.00000000000E+00  0.00000000000E+00  0.45593999997E+02  0.45594000000E+02  0.51100000000E-03 0.  1.
         11   -1    0    0    0    0 -0.00000000000E+00 -0.00000000000E+00 -0.45593999997E+02  0.45594000000E+02  0.51100000000E-03 0. -1.
    9900012    2    1    2    0    0  0.29448834517E+01 -0.23173314890E+02 -0.36577978714E+02  0.47787269726E+02  0.19999993987E+02 0.  0.
        -12    1    1    2    0    0 -0.29448834517E+01  0.23173314890E+02  0.36577978714E+02  0.43400730274E+02  0.00000000000E+00 0.  1.
         11    1    3    3    0    0 -0.61448747354E+00  0.32245605708E+00  0.63722277879E+00  0.94213899973E+00  0.51100000000E-03 0. -1.
        -11    1    3    3    0    0  0.14888639394E+01  0.20960494339E+01 -0.52446331314E+01  0.58409173940E+01  0.51100000000E-03 0.  1.
         12    1    3    3    0    0  0.20705069859E+01 -0.25591820381E+02 -0.31970568361E+02  0.41004213332E+02  0.00000000000E+00 0. -1.
</event>
<event>
 7    1  0.4675811E-010  0.4778727E+02  0.7816164E-02  0.1312668E+00
        -11   -1    0    0    0    0  0.00000000000E+00  0.00000000000E+00  0.45593999997E+02  0.45594000000E+02  0.51100000000E-03 0.  1.
         11   -1    0    0    0    0 -0.00000000000E+00 -0.00000000000E+00 -0.45593999997E+02  0.45594000000E+02  0.51100000000E-03 0. -1.
    9900012    2    1    2    0    0  0.90549801384E+01  0.46463254744E+01 -0.42190546160E+02  0.47787272000E+02  0.20000004355E+02 0.  0.
        -12    1    1    2    0    0 -0.90549801384E+01 -0.46463254744E+01  0.42190546160E+02  0.43400728000E+02  0.00000000000E+00 0.  1.
         11    1    3    3    0    0  0.83541448155E+01  0.23227711525E+01 -0.36034318394E+02  0.37062907385E+02  0.51100000000E-03 0. -1.
        -11    1    3    3    0    0 -0.16893569355E+00  0.53407000669E+01 -0.51650092343E+01  0.74316173963E+01  0.51100000000E-03 0.  1.
        -12    1    3    3    0    0  0.86977101647E+00 -0.30171457450E+01 -0.99121853097E+00  0.32927472183E+01  0.00000000000E+00 0.  1.
</event>
<event>
 7    1  0.4675811E-010  0.4778727E+02  0.7816164E-02  0.1312668E+00
        -11   -1    0    0    0    0  0.00000000000E+00  0.00000000000E+00  0.45593999997E+02  0.45594000000E+02  0.51100000000E-03 0.  1.
         11   -1    0    0    0    0 -0.00000000000E+00 -0.00000000000E+00 -0.45593999997E+02  0.45594000000E+02  0.51100000000E-03 0. -1.
    9900012    2    1    2    0    0 -0.11699156589E+02 -0.81629499095E+01 -0.40989258206E+02  0.47787270693E+02  0.19999998396E+02 0.  0.
        -12    1    1    2    0    0  0.11699156589E+02  0.81629499095E+01  0.40989258206E+02  0.43400729307E+02  0.00000000000E+00 0.  1.
         11    1    3    3    0    0 -0.12350163543E+02 -0.43751748623E+01 -0.35229466060E+02  0.37587018687E+02  0.51100000000E-03 0. -1.
        -11    1    3    3    0    0 -0.21534986257E+01 -0.33978803749E+01 -0.61429624561E+01  0.73429650259E+01  0.51100000000E-03 0.  1.
        -12    1    3    3    0    0  0.28045055794E+01 -0.38989467226E+00  0.38317031006E+00  0.28572869802E+01  0.00000000000E+00 0.  1.
</event>
<event>
 7    1  0.4675811E-010  0.4778725E+02  0.7816164E-02  0.1312668E+00
        -11   -1    0    0    0    0  0.00000000000E+00  0.00000000000E+00  0.45593999997E+02  0.45594000000E+02  0.51100000000E-03 0.  1.
         11   -1    0    0    0    0 -0.00000000000E+00 -0.00000000000E+00 -0.45593999997E+02  0.45594000000E+02  0.51100000000E-03 0. -1.
    9900012    2    1    2    0    0 -0.47500138218E+01 -0.42322398989E+02  0.83592490329E+01  0.47787249639E+02  0.19999902406E+02 0.  0.
        -12    1    1    2    0    0  0.47500138218E+01  0.42322398989E+02 -0.83592490329E+01  0.43400750361E+02  0.00000000000E+00 0.  1.
         11    1    3    3    0    0  0.84983742969E+00 -0.10304253253E+00 -0.73444745892E+00  0.11279427075E+01  0.51100000000E-03 0.  1.
        -11    1    3    3    0    0 -0.37174567953E+01 -0.17334073540E+02 -0.44312926512E+01  0.18273640725E+02  0.51100000000E-03 0. -1.
         12    1    3    3    0    0 -0.18823944563E+01 -0.24885282916E+02  0.13524989143E+02  0.28385666207E+02  0.00000000000E+00 0. -1.
</event>
<event>
 7    1  0.4675811E-010  0.4778727E+02  0.7816164E-02  0.1312668E+00
        -11   -1    0    0    0    0  0.00000000000E+00  0.00000000000E+00  0.45593999997E+02  0.45594000000E+02  0.51100000000E-03 0. -1.
         11   -1    0    0    0    0 -0.00000000000E+00 -0.00000000000E+00 -0.45593999997E+02  0.45594000000E+02  0.51100000000E-03 0.  1.
    9900012    2    1    2    0    0 -0.37698087145E+02  0.87336194516E+01 -0.19652007241E+02  0.47787271069E+02  0.20000000113E+02 0.  0.
        -12    1    1    2    0    0  0.37698087145E+02 -0.87336194516E+01  0.19652007241E+02  0.43400728931E+02  0.00000000000E+00 0.  1.
         11    1    3    3    0    0 -0.22785663663E+02 -0.28329392914E+01 -0.44593892227E+01  0.23390129673E+02  0.51100000000E-03 0. -1.
        -11    1    3    3    0    0 -0.82496784321E-02 -0.88342067697E-01  0.49129905466E-01  0.10142182631E+00  0.51100000000E-03 0.  1.
         12    1    3    3    0    0 -0.14904173803E+02  0.11654900811E+02 -0.15241747924E+02  0.24295719570E+02  0.00000000000E+00 0. -1.
</event>
<event>
 7    1  0.4675811E-010  0.4778727E+02  0.7816164E-02  0.1312668E+00
        -11   -1    0    0    0    0  0.00000000000E+00  0.00000000000E+00  0.45593999997E+02  0.45594000000E+02  0.51100000000E-03 0. -1.
         11   -1    0    0    0    0 -0.00000000000E+00 -0.00000000000E+00 -0.45593999997E+02  0.45594000000E+02  0.51100000000E-03 0.  1.
    9900012    2    1    2    0    0 -0.29589335846E+02  0.25613640341E+02  0.18762622292E+02  0.47787270023E+02  0.19999995341E+02 0.  0.
        -12    1    1    2    0    0  0.29589335846E+02 -0.25613640341E+02 -0.18762622292E+02  0.43400729977E+02  0.00000000000E+00 0.  1.
         11    1    3    3    0    0 -0.28593538571E+01 -0.16321299104E+00 -0.15513921031E+01  0.32572013569E+01  0.51100000000E-03 0.  1.
        -11    1    3    3    0    0 -0.24933697467E+02  0.27087801064E+02  0.17030719390E+02  0.40564561369E+02  0.51100000000E-03 0. -1.
         12    1    3    3    0    0 -0.17962845217E+01 -0.13109477315E+01  0.32832950043E+01  0.39655072971E+01  0.00000000000E+00 0. -1.
</event>
<event>
 7    1  0.4675811E-010  0.4778727E+02  0.7816164E-02  0.1312668E+00
        -11   -1    0    0    0    0  0.00000000000E+00  0.00000000000E+00  0.45593999997E+02  0.45594000000E+02  0.51100000000E-03 0.  1.
         11   -1    0    0    0    0 -0.00000000000E+00 -0.00000000000E+00 -0.45593999997E+02  0.45594000000E+02  0.51100000000E-03 0. -1.
    9900012    2    1    2    0    0  0.24421043289E+02 -0.11199824317E+00 -0.35877899443E+02  0.47787267663E+02  0.19999984584E+02 0.  0.
        -12    1    1    2    0    0 -0.24421043289E+02  0.11199824317E+00  0.35877899443E+02  0.43400732337E+02  0.00000000000E+00 0.  1.
         11    1    3    3    0    0  0.22869595964E+01 -0.23567449984E+01  0.93836046062E+00  0.34153992150E+01  0.51100000000E-03 0. -1.
        -11    1    3    3    0    0  0.30960395884E+01  0.45630259763E+01 -0.97171951071E+01  0.11172759203E+02  0.51100000000E-03 0.  1.
         12    1    3    3    0    0  0.19038044104E+02 -0.23182792210E+01 -0.27099064796E+02  0.33199109246E+02  0.00000000000E+00 0. -1.
</event>
<event>
 7    1  0.4675811E-010  0.4778727E+02  0.7816164E-02  0.1312668E+00
        -11   -1    0    0    0    0  0.00000000000E+00  0.00000000000E+00  0.45593999997E+02  0.45594000000E+02  0.51100000000E-03 0.  1.
         11   -1    0    0    0    0 -0.00000000000E+00 -0.00000000000E+00 -0.45593999997E+02  0.45594000000E+02  0.51100000000E-03 0. -1.
    9900012    2    1    2    0    0  0.41152704337E+02  0.99557481587E+01 -0.95373656189E+01  0.47787270299E+02  0.19999996599E+02 0.  0.
        -12    1    1    2    0    0 -0.41152704337E+02 -0.99557481587E+01  0.95373656189E+01  0.43400729701E+02  0.00000000000E+00 0.  1.
         11    1    3    3    0    0  0.20027525677E+02  0.75151887892E+01 -0.13962351514E+02  0.25544610143E+02  0.51100000000E-03 0. -1.
        -11    1    3    3    0    0  0.11416345701E+01  0.76119967233E+00  0.14026828329E+01  0.19622114625E+01  0.51100000000E-03 0.  1.
        -12    1    3    3    0    0  0.19983544090E+02  0.16793596971E+01  0.30223030626E+01  0.20280448693E+02  0.00000000000E+00 0.  1.
</event>
<event>
 7    1  0.4675811E-010  0.4778727E+02  0.7816164E-02  0.1312668E+00
        -11   -1    0    0    0    0  0.00000000000E+00  0.00000000000E+00  0.45593999997E+02  0.45594000000E+02  0.51100000000E-03 0. -1.
         11   -1    0    0    0    0 -0.00000000000E+00 -0.00000000000E+00 -0.45593999997E+02  0.45594000000E+02  0.51100000000E-03 0.  1.
    9900012    2    1    2    0    0 -0.25066992590E+01  0.34045616440E+02  0.26799921825E+02  0.47787270170E+02  0.19999996013E+02 0.  0.
        -12    1    1    2    0    0  0.25066992590E+01 -0.34045616440E+02 -0.26799921825E+02  0.43400729830E+02  0.00000000000E+00 0.  1.
         11    1    3    3    0    0 -0.46063463421E+01  0.14975553223E+02  0.18296625550E+02  0.24088423106E+02  0.51100000000E-03 0. -1.
        -11    1    3    3    0    0  0.45561569249E+01  0.94527891382E+01  0.89078248629E+01  0.13764560744E+02  0.51100000000E-03 0.  1.
        -12    1    3    3    0    0 -0.24565098418E+01  0.96172740787E+01 -0.40452858828E+00  0.99342863200E+01  0.00000000000E+00 0.  1.
</event>
<event>
 7    1  0.5120765E-010  0.4778727E+02  0.7816164E-02  0.1312668E+00
        -11   -1    0    0    0    0  0.00000000000E+00  0.00000000000E+00  0.45593999997E+02  0.45594000000E+02  0.51100000000E-03 0. -1.
         11   -1    0    0    0    0 -0.00000000000E+00 -0.00000000000E+00 -0.45593999997E+02  0.45594000000E+02  0.51100000000E-03 0.  1.
    9900012    2    1    2    0    0  0.20647540523E+02  0.28833696537E+02  0.25018400345E+02  0.47787270266E+02  0.19999996451E+02 0.  0.
        -12    1    1    2    0    0 -0.20647540523E+02 -0.28833696537E+02 -0.25018400345E+02  0.43400729734E+02  0.00000000000E+00 0.  1.
         11    1    3    3    0    0  0.32097574203E+01  0.64552901608E+01  0.10297837944E+00  0.72099874178E+01  0.51100000000E-03 0. -1.
        -11    1    3    3    0    0 -0.10103636258E+01 -0.94178974449E+00  0.39767793583E+01  0.42098191059E+01  0.51100000000E-03 0.  1.
         12    1    3    3    0    0  0.18448146728E+02  0.23320196121E+02  0.20938642607E+02  0.36367463742E+02  0.00000000000E+00 0. -1.
</event>
<event>
 7    1  0.4675811E-010  0.4778727E+02  0.7816164E-02  0.1312668E+00
        -11   -1    0    0    0    0  0.00000000000E+00  0.00000000000E+00  0.45593999997E+02  0.45594000000E+02  0.51100000000E-03 0.  1.
         11   -1    0    0    0    0 -0.00000000000E+00 -0.00000000000E+00 -0.45593999997E+02  0.45594000000E+02  0.51100000000E-03 0. -1.
    9900012    2    1    2    0    0  0.34644852572E+02  0.20692809893E+02 -0.15973896275E+02  0.47787267826E+02  0.19999985326E+02 0.  0.
        -12    1    1    2    0    0 -0.34644852572E+02 -0.20692809893E+02  0.15973896275E+02  0.43400732174E+02  0.00000000000E+00 0.  1.
         11    1    3    3    0    0  0.79110676546E+01  0.44959022489E+01 -0.86839983182E+01  0.12578153900E+02  0.51100000000E-03 0. -1.
        -11    1    3    3    0    0  0.10915191041E+02  0.55314043421E+01 -0.10174372636E+02  0.15914009182E+02  0.51100000000E-03 0.  1.
        -12    1    3    3    0    0  0.15818593877E+02  0.10665503302E+02  0.28844746788E+01  0.19295104744E+02  0.00000000000E+00 0.  1.
</event>
<event>
 7    1  0.4675811E-010  0.4778727E+02  0.7816164E-02  0.1312668E+00
        -11   -1    0    0    0    0  0.00000000000E+00  0.00000000000E+00  0.45593999997E+02  0.45594000000E+02  0.51100000000E-03 0.  1.
         11   -1    0    0    0    0 -0.00000000000E+00 -0.00000000000E+00 -0.45593999997E+02  0.45594000000E+02  0.51100000000E-03 0. -1.
    9900012    2    1    2    0    0 -0.14778086424E+02  0.28735479026E+02 -0.28974187624E+02  0.47787272568E+02  0.20000006945E+02 0.  0.
        -12    1    1    2    0    0  0.14778086424E+02 -0.28735479026E+02  0.28974187624E+02  0.43400727432E+02  0.00000000000E+00 0.  1.
         11    1    3    3    0    0 -0.13253082952E+02  0.17485144316E+02 -0.20894843301E+02  0.30298002514E+02  0.51100000000E-03 0.  1.
        -11    1    3    3    0    0 -0.59995168631E+01  0.54399106553E+01 -0.33573074937E+01  0.87668890946E+01  0.51100000000E-03 0. -1.
        -12    1    3    3    0    0  0.44745133914E+01  0.58104240542E+01 -0.47220368289E+01  0.87223809590E+01  0.00000000000E+00 0.  1.
</event>
<event>
 7    1  0.4675811E-010  0.4778732E+02  0.7816164E-02  0.1312668E+00
        -11   -1    0    0    0    0  0.00000000000E+00  0.00000000000E+00  0.45593999997E+02  0.45594000000E+02  0.51100000000E-03 0.  1.
         11   -1    0    0    0    0 -0.00000000000E+00 -0.00000000000E+00 -0.45593999997E+02  0.45594000000E+02  0.51100000000E-03 0. -1.
    9900012    2    1    2    0    0 -0.70336352179E+01 -0.11368202743E+02 -0.41290571249E+02  0.47787316456E+02  0.20000207049E+02 0.  0.
        -12    1    1    2    0    0  0.70336352179E+01  0.11368202743E+02  0.41290571249E+02  0.43400683544E+02  0.00000000000E+00 0.  1.
         11    1    3    3    0    0 -0.57063796191E+01 -0.83191915846E+01 -0.13417899500E+02  0.16787249454E+02  0.51100000000E-03 0. -1.
        -11    1    3    3    0    0 -0.19535021096E+01  0.10496853874E+01  0.54326031864E+00  0.22832305927E+01  0.51100000000E-03 0.  1.
        -12    1    3    3    0    0  0.62624651075E+00 -0.40986965454E+01 -0.28415932068E+02  0.28716836409E+02  0.00000000000E+00 0.  1.
</event>
<event>
 7    1  0.4675811E-010  0.4778727E+02  0.7816164E-02  0.1312668E+00
        -11   -1    0    0    0    0  0.00000000000E+00  0.00000000000E+00  0.45593999997E+02  0.45594000000E+02  0.51100000000E-03 0. -1.
         11   -1    0    0    0    0 -0.00000000000E+00 -0.00000000000E+00 -0.45593999997E+02  0.45594000000E+02  0.51100000000E-03 0.  1.
    9900012    2    1    2    0    0  0.38096133217E+02 -0.19304902987E+02  0.77219524461E+01  0.47787271953E+02  0.20000004143E+02 0.  0.
        -12    1    1    2    0    0 -0.38096133217E+02  0.19304902987E+02 -0.77219524461E+01  0.43400728047E+02  0.00000000000E+00 0.  1.
         11    1    3    3    0    0  0.18976566939E+02 -0.58365950729E+01  0.85609127434E+01  0.21620942674E+02  0.51100000000E-03 0. -1.
        -11    1    3    3    0    0  0.20600586621E+02 -0.12071660643E+02  0.20654575771E+00  0.23877852106E+02  0.51100000000E-03 0.  1.
        -12    1    3    3    0    0 -0.14810203436E+01 -0.13966472718E+01 -0.10455060550E+01  0.22884771729E+01  0.00000000000E+00 0.  1.
</event>
<event>
 7    1  0.4675811E-010  0.4778727E+02  0.7816164E-02  0.1312668E+00
        -11   -1    0    0    0    0  0.00000000000E+00  0.00000000000E+00  0.45593999997E+02  0.45594000000E+02  0.51100000000E-03 0.  1.
         11   -1    0    0    0    0 -0.00000000000E+00 -0.00000000000E+00 -0.45593999997E+02  0.45594000000E+02  0.51100000000E-03 0. -1.
    9900012    2    1    2    0    0  0.40918936701E+02 -0.81639245782E+00  0.14442911783E+02  0.47787267538E+02  0.19999984015E+02 0.  0.
        -12    1    1    2    0    0 -0.40918936701E+02  0.81639245782E+00 -0.14442911783E+02  0.43400732462E+02  0.00000000000E+00 0.  1.
         11    1    3    3    0    0  0.26445818395E+02  0.65628017827E+00  0.31122072217E+01  0.26636400813E+02  0.51100000000E-03 0. -1.
        -11    1    3    3    0    0  0.11034074960E+02  0.21031828062E+01  0.32932736160E+01  0.11705547382E+02  0.51100000000E-03 0.  1.
        -12    1    3    3    0    0  0.34390433463E+01 -0.35758554423E+01  0.80374309456E+01  0.94453193428E+01  0.00000000000E+00 0.  1.
</event>
<event>
 7    1  0.4675811E-010  0.4778728E+02  0.7816164E-02  0.1312668E+00
        -11   -1    0    0    0    0  0.00000000000E+00  0.00000000000E+00  0.45593999997E+02  0.45594000000E+02  0.51100000000E-03 0.  1.
         11   -1    0    0    0    0 -0.00000000000E+00 -0.00000000000E+00 -0.45593999997E+02  0.45594000000E+02  0.51100000000E-03 0. -1.
    9900012    2    1    2    0    0 -0.14332966537E+01  0.40782507961E+02 -0.14776851191E+02  0.47787278509E+02  0.20000034032E+02 0.  0.
        -12    1    1    2    0    0  0.14332966537E+01 -0.40782507961E+02  0.14776851191E+02  0.43400721491E+02  0.00000000000E+00 0.  1.
         11    1    3    3    0    0  0.56021164639E+01  0.28328754791E+02 -0.15283650580E+02  0.32672496572E+02  0.51100000000E-03 0. -1.
        -11    1    3    3    0    0 -0.25329835144E+01  0.87840933385E+01  0.13646882506E+01  0.92433043630E+01  0.51100000000E-03 0.  1.
        -12    1    3    3    0    0 -0.45024296031E+01  0.36696598308E+01 -0.85788886132E+00  0.58714775741E+01  0.00000000000E+00 0.  1.
</event>
<event>
 7    1  0.4675811E-010  0.4778727E+02  0.7816164E-02  0.1312668E+00
        -11   -1    0    0    0    0  0.00000000000E+00  0.00000000000E+00  0.45593999997E+02  0.45594000000E+02  0.51100000000E-03 0.  1.
         11   -1    0    0    0    0 -0.00000000000E+00 -0.00000000000E+00 -0.45593999997E+02  0.45594000000E+02  0.51100000000E-03 0. -1.
    9900012    2    1    2    0    0 -0.25110218092E+02 -0.22016919539E+02 -0.27719225008E+02  0.47787271508E+02  0.20000002113E+02 0.  0.
        -12    1    1    2    0    0  0.25110218092E+02  0.22016919539E+02  0.27719225008E+02  0.43400728492E+02  0.00000000000E+00 0.  1.
         11    1    3    3    0    0 -0.96775415429E+01 -0.16856190026E+01 -0.15416243233E+02  0.18279952883E+02  0.51100000000E-03 0. -1.
        -11    1    3    3    0    0 -0.37505569399E+01 -0.25393936497E+01 -0.55789877960E+01  0.71861187408E+01  0.51100000000E-03 0.  1.
        -12    1    3    3    0    0 -0.11682119609E+02 -0.17791906887E+02 -0.67239939789E+01  0.22321199884E+02  0.00000000000E+00 0.  1.
</event>
<event>
 7    1  0.4675811E-010  0.4778727E+02  0.7816164E-02  0.1312668E+00
        -11   -1    0    0    0    0  0.00000000000E+00  0.00000000000E+00  0.45593999997E+02  0.45594000000E+02  0.51100000000E-03 0. -1.
         11   -1    0    0    0    0 -0.00000000000E+00 -0.00000000000E+00 -0.45593999997E+02  0.45594000000E+02  0.51100000000E-03 0.  1.
    9900012    2    1    2    0    0  0.32067392991E+01  0.43018503240E+02  0.47695348007E+01  0.47787271203E+02  0.20000000721E+02 0.  0.
        -12    1    1    2    0    0 -0.32067392991E+01 -0.43018503240E+02 -0.47695348007E+01  0.43400728797E+02  0.00000000000E+00 0.  1.
         11    1    3    3    0    0 -0.17036238779E+01  0.10029643461E+02  0.17617398409E+01  0.10324718388E+02  0.51100000000E-03 0. -1.
        -11    1    3    3    0    0 -0.60232436335E+01  0.11581245536E+02  0.31309824979E+01  0.13424148527E+02  0.51100000000E-03 0.  1.
        -12    1    3    3    0    0  0.10933606811E+02  0.21407614243E+02 -0.12318753803E+00  0.24038404287E+02  0.00000000000E+00 0.  1.
</event>
<event>
 7    1  0.4675811E-010  0.4778727E+02  0.7816164E-02  0.1312668E+00
        -11   -1    0    0    0    0  0.00000000000E+00  0.00000000000E+00  0.45593999997E+02  0.45594000000E+02  0.51100000000E-03 0.  1.
         11   -1    0    0    0    0 -0.00000000000E+00 -0.00000000000E+00 -0.45593999997E+02  0.45594000000E+02  0.51100000000E-03 0. -1.
    9900012    2    1    2    0    0  0.13825462300E+02 -0.37546244027E+02 -0.16815452828E+02  0.47787270718E+02  0.19999998514E+02 0.  0.
        -12    1    1    2    0    0 -0.13825462300E+02  0.37546244027E+02  0.16815452828E+02  0.43400729282E+02  0.00000000000E+00 0.  1.
         11    1    3    3    0    0  0.20815272936E+01 -0.25795484790E+01 -0.37649041545E+01  0.50161070347E+01  0.51100000000E-03 0. -1.
        -11    1    3    3    0    0 -0.10999660627E+01 -0.24156290565E+01  0.32260011141E+01  0.41775917138E+01  0.51100000000E-03 0.  1.
         12    1    3    3    0    0  0.12843901069E+02 -0.32551066491E+02 -0.16276549788E+02  0.38593571970E+02  0.00000000000E+00 0. -1.
</event>
<event>
 7    1  0.4675811E-010  0.4778727E+02  0.7816164E-02  0.1312668E+00
        -11   -1    0    0    0    0  0.00000000000E+00  0.00000000000E+00  0.45593999997E+02  0.45594000000E+02  0.51100000000E-03 0. -1.
         11   -1    0    0    0    0 -0.00000000000E+00 -0.00000000000E+00 -0.45593999997E+02  0.45594000000E+02  0.51100000000E-03 0.  1.
    9900012    2    1    2    0    0 -0.43334554323E+02 -0.41200169425E+00 -0.23600049016E+01  0.47787274581E+02  0.20000016125E+02 0.  0.
        -12    1    1    2    0    0  0.43334554323E+02  0.41200169425E+00  0.23600049016E+01  0.43400725419E+02  0.00000000000E+00 0.  1.
         11    1    3    3    0    0 -0.51127934492E+01  0.11061077623E+01 -0.39392135926E+01  0.65483994399E+01  0.51100000000E-03 0. -1.
        -11    1    3    3    0    0 -0.46271219932E+00  0.31290501543E+01  0.21812191921E+00  0.31705890431E+01  0.51100000000E-03 0.  1.
         12    1    3    3    0    0 -0.37759048674E+02 -0.46471596108E+01  0.13610867718E+01  0.38068286098E+02  0.00000000000E+00 0. -1.
</event>
<event>
 7    1  0.4675811E-010  0.4778728E+02  0.7816164E-02  0.1312668E+00
        -11   -1    0    0    0    0  0.00000000000E+00  0.00000000000E+00  0.45593999997E+02  0.45594000000E+02  0.51100000000E-03 0.  1.
         11   -1    0    0    0    0 -0.00000000000E+00 -0.00000000000E+00 -0.45593999997E+02  0.45594000000E+02  0.51100000000E-03 0. -1.
    9900012    2    1    2    0    0  0.35150416047E+02 -0.13015993356E+02 -0.21878175535E+02  0.47787281157E+02  0.20000046109E+02 0.  0.
        -12    1    1    2    0    0 -0.35150416047E+02  0.13015993356E+02  0.21878175535E+02  0.43400718843E+02  0.00000000000E+00 0.  1.
         11    1    3    3    0    0  0.10239185946E+01  0.11747667093E+01 -0.14894789996E+01  0.21556980449E+01  0.51100000000E-03 0. -1.
        -11    1    3    3    0    0  0.26040764648E+02 -0.16393422375E+02 -0.20960339297E+02  0.37231727657E+02  0.51100000000E-03 0.  1.
         12    1    3    3    0    0  0.80857328041E+01  0.22026623094E+01  0.57164276134E+00  0.83998554556E+01  0.00000000000E+00 0. -1.
</event>
<event>
 7    1  0.4675811E-010  0.4778727E+02  0.7816164E-02  0.1312668E+00
        -11   -1    0    0    0    0  0.00000000000E+00  0.00000000000E+00  0.45593999997E+02  0.45594000000E+02  0.51100000000E-03 0.  1.
         11   -1    0    0    0    0 -0.00000000000E+00 -0.00000000000E+00 -0.45593999997E+02  0.45594000000E+02  0.51100000000E-03 0. -1.
    9900012    2    1    2    0    0 -0.37464645303E+01  0.34590669772E+02 -0.25943642998E+02  0.47787273695E+02  0.20000012084E+02 0.  0.
        -12    1    1    2    0    0  0.37464645303E+01 -0.34590669772E+02  0.25943642998E+02  0.43400726305E+02  0.00000000000E+00 0.  1.
         11    1    3    3    0    0 -0.25109961211E+01  0.21968083094E+02 -0.56549869789E+01  0.22822809957E+02  0.51100000000E-03 0. -1.
        -11    1    3    3    0    0 -0.17515154580E+01  0.43048544644E+01 -0.24017624481E+01  0.52314473597E+01  0.51100000000E-03 0.  1.
        -12    1    3    3    0    0  0.51604704873E+00  0.83177322140E+01 -0.17886893571E+02  0.19733016378E+02  0.00000000000E+00 0.  1.
</event>
<event>
 7    1  0.4675811E-010  0.4778728E+02  0.7816164E-02  0.1312668E+00
        -11   -1    0    0    0    0  0.00000000000E+00  0.00000000000E+00  0.45593999997E+02  0.45594000000E+02  0.51100000000E-03 0.  1.
         11   -1    0    0    0    0 -0.00000000000E+00 -0.00000000000E+00 -0.45593999997E+02  0.45594000000E+02  0.51100000000E-03 0. -1.
    9900012    2    1    2    0    0  0.26916957354E+02  0.24687970698E+02 -0.23443642175E+02  0.47787275941E+02  0.20000022327E+02 0.  0.
        -12    1    1    2    0    0 -0.26916957354E+02 -0.24687970698E+02  0.23443642175E+02  0.43400724059E+02  0.00000000000E+00 0.  1.
         11    1    3    3    0    0  0.19700003388E+02  0.12024660658E+02 -0.11286612920E+02  0.25691831949E+02  0.51100000000E-03 0. -1.
        -11    1    3    3    0    0  0.41503729660E+01  0.91581301864E+01 -0.11210465338E+01  0.10117000043E+02  0.51100000000E-03 0.  1.
         12    1    3    3    0    0  0.30665809998E+01  0.35051798538E+01 -0.11035982722E+02  0.11978443950E+02  0.00000000000E+00 0. -1.
</event>
<event>
 7    1  0.4675811E-010  0.4778727E+02  0.7816164E-02  0.1312668E+00
        -11   -1    0    0    0    0  0.00000000000E+00  0.00000000000E+00  0.45593999997E+02  0.45594000000E+02  0.51100000000E-03 0. -1.
         11   -1    0    0    0    0 -0.00000000000E+00 -0.00000000000E+00 -0.45593999997E+02  0.45594000000E+02  0.51100000000E-03 0.  1.
    9900012    2    1    2    0    0 -0.23446419247E+02 -0.13471703517E+02  0.33947045105E+02  0.47787271406E+02  0.20000001649E+02 0.  0.
        -12    1    1    2    0    0  0.23446419247E+02  0.13471703517E+02 -0.33947045105E+02  0.43400728594E+02  0.00000000000E+00 0.  1.
         11    1    3    3    0    0 -0.80335530142E+01 -0.94497853647E+01  0.12159869719E+02  0.17369480399E+02  0.51100000000E-03 0. -1.
        -11    1    3    3    0    0 -0.16779786119E+02 -0.54970611608E+01  0.22198936065E+02  0.28364972524E+02  0.51100000000E-03 0.  1.
        -12    1    3    3    0    0  0.13669198866E+01  0.14751430082E+01 -0.41176067919E+00  0.20528184839E+01  0.00000000000E+00 0.  1.
</event>
<event>
 7    1  0.4675811E-010  0.4778727E+02  0.7816164E-02  0.1312668E+00
        -11   -1    0    0    0    0  0.00000000000E+00  0.00000000000E+00  0.45593999997E+02  0.45594000000E+02  0.51100000000E-03 0.  1.
         11   -1    0    0    0    0 -0.00000000000E+00 -0.00000000000E+00 -0.45593999997E+02  0.45594000000E+02  0.51100000000E-03 0. -1.
    9900012    2    1    2    0    0  0.13297406412E+02 -0.29203831176E+02 -0.29222227214E+02  0.47787270329E+02  0.19999996737E+02 0.  0.
        -12    1    1    2    0    0 -0.13297406412E+02  0.29203831176E+02  0.29222227214E+02  0.43400729671E+02  0.00000000000E+00 0.  1.
         11    1    3    3    0    0  0.11242482826E+02 -0.19563351401E+02 -0.11594688044E+02  0.25368384443E+02  0.51100000000E-03 0. -1.
        -11    1    3    3    0    0  0.29943419715E+01 -0.97461781381E+01 -0.85898842235E+01  0.13331923469E+02  0.51100000000E-03 0.  1.
        -12    1    3    3    0    0 -0.93941838497E+00  0.10569836315E+00 -0.90376549462E+01  0.90869624173E+01  0.00000000000E+00 0.  1.
</event>
<event>
 7    1  0.4675811E-010  0.4778727E+02  0.7816164E-02  0.1312668E+00
        -11   -1    0    0    0    0  0.00000000000E+00  0.00000000000E+00  0.45593999997E+02  0.45594000000E+02  0.51100000000E-03 0.  1.
         11   -1    0    0    0    0 -0.00000000000E+00 -0.00000000000E+00 -0.45593999997E+02  0.45594000000E+02  0.51100000000E-03 0. -1.
    9900012    2    1    2    0    0 -0.11818973335E+02 -0.21213558627E+02 -0.35971100590E+02  0.47787270997E+02  0.19999999785E+02 0.  0.
        -12    1    1    2    0    0  0.11818973335E+02  0.21213558627E+02  0.35971100590E+02  0.43400729003E+02  0.00000000000E+00 0.  1.
         11    1    3    3    0    0  0.23082431701E+01 -0.64402039682E+01 -0.14919111851E+02  0.16412925162E+02  0.51100000000E-03 0. -1.
        -11    1    3    3    0    0 -0.75537739735E+01 -0.72804324724E+01 -0.18199101195E+02  0.21006462882E+02  0.51100000000E-03 0.  1.
         12    1    3    3    0    0 -0.65734425313E+01 -0.74929221861E+01 -0.28528875440E+01  0.10367882954E+02  0.00000000000E+00 0. -1.
</event>
<event>
 7    1  0.4675811E-010  0.4778727E+02  0.7816164E-02  0.1312668E+00
        -11   -1    0    0    0    0  0.00000000000E+00  0.00000000000E+00  0.45593999997E+02  0.45594000000E+02  0.51100000000E-03 0.  1.
         11   -1    0    0    0    0 -0.00000000000E+00 -0.00000000000E+00 -0.45593999997E+02  0.45594000000E+02  0.51100000000E-03 0. -1.
    9900012    2    1    2    0    0 -0.27161069252E+02 -0.33410637145E+02 -0.54432404152E+01  0.47787271624E+02  0.20000002641E+02 0.  0.
        -12    1    1    2    0    0  0.27161069252E+02  0.33410637145E+02  0.54432404152E+01  0.43400728376E+02  0.00000000000E+00 0.  1.
         11    1    3    3    0    0 -0.29671915471E+02 -0.30533242516E+02 -0.45924176263E+01  0.42822794936E+02  0.51100000000E-03 0. -1.
        -11    1    3    3    0    0  0.20556404835E+01 -0.30154250201E+01  0.35651152042E+00  0.36668169541E+01  0.51100000000E-03 0.  1.
         12    1    3    3    0    0  0.45520573513E+00  0.13803039037E+00 -0.12073343093E+01  0.12976597336E+01  0.00000000000E+00 0. -1.
</event>
<event>
 7    1  0.4675811E-010  0.4778726E+02  0.7816164E-02  0.1312668E+00
        -11   -1    0    0    0    0  0.00000000000E+00  0.00000000000E+00  0.45593999997E+02  0.45594000000E+02  0.51100000000E-03 0.  1.
         11   -1    0    0    0    0 -0.00000000000E+00 -0.00000000000E+00 -0.45593999997E+02  0.45594000000E+02  0.51100000000E-03 0. -1.
    9900012    2    1    2    0    0 -0.43612841899E+01  0.34998133057E+02 -0.25292962250E+02  0.47787262027E+02  0.19999958884E+02 0.  0.
        -12    1    1    2    0    0  0.43612841899E+01 -0.34998133057E+02  0.25292962250E+02  0.43400737973E+02  0.00000000000E+00 0.  1.
         11    1    3    3    0    0 -0.34520905132E+00 -0.81348750298E+00  0.10659164076E+01  0.13845971456E+01  0.51100000000E-03 0.  1.
        -11    1    3    3    0    0 -0.41154901527E+01  0.38429800653E+01 -0.71712070283E+01  0.91176732494E+01  0.51100000000E-03 0. -1.
         12    1    3    3    0    0  0.99415014110E-01  0.31968640495E+02 -0.19187671629E+02  0.37284991632E+02  0.00000000000E+00 0. -1.
</event>
<event>
 7    1  0.4675811E-010  0.4778727E+02  0.7816164E-02  0.1312668E+00
        -11   -1    0    0    0    0  0.00000000000E+00  0.00000000000E+00  0.45593999997E+02  0.45594000000E+02  0.51100000000E-03 0. -1.
         11   -1    0    0    0    0 -0.00000000000E+00 -0.00000000000E+00 -0.45593999997E+02  0.45594000000E+02  0.51100000000E-03 0.  1.
    9900012    2    1    2    0    0  0.30799059200E+01 -0.14585615859E+01  0.43266729592E+02  0.47787272910E+02  0.20000008504E+02 0.  0.
        -12    1    1    2    0    0 -0.30799059200E+01  0.14585615859E+01 -0.43266729592E+02  0.43400727090E+02  0.00000000000E+00 0.  1.
         11    1    3    3    0    0  0.33416195957E+01 -0.94352471583E+00  0.36170796386E+02  0.36337077096E+02  0.51100000000E-03 0. -1.
        -11    1    3    3    0    0 -0.26993502776E+01 -0.13915350781E+01  0.81164429821E+01  0.86659972731E+01  0.51100000000E-03 0.  1.
        -12    1    3    3    0    0  0.24376366019E+01  0.87649820805E+00 -0.10205097758E+01  0.27841985407E+01  0.00000000000E+00 0.  1.
</event>
<event>
 7    1  0.4675811E-010  0.4778727E+02  0.7816164E-02  0.1312668E+00
        -11   -1    0    0    0    0  0.00000000000E+00  0.00000000000E+00  0.45593999997E+02  0.45594000000E+02  0.51100000000E-03 0.  1.
         11   -1    0    0    0    0 -0.00000000000E+00 -0.00000000000E+00 -0.45593999997E+02  0.45594000000E+02  0.51100000000E-03 0. -1.
    9900012    2    1    2    0    0  0.22301519720E+02 -0.88861075659E+01 -0.36156642320E+02  0.47787268747E+02  0.19999989524E+02 0.  0.
        -12    1    1    2    0    0 -0.22301519720E+02  0.88861075659E+01  0.36156642320E+02  0.43400731253E+02  0.00000000000E+00 0.  1.
         11    1    3    3    0    0  0.18653840313E+02 -0.10548029556E+02 -0.19649311730E+02  0.29074424116E+02  0.51100000000E-03 0. -1.
        -11    1    3    3    0    0  0.12718810680E+00  0.68059834852E-01  0.88483301960E+00  0.89651474574E+00  0.51100000000E-03 0.  1.
         12    1    3    3    0    0  0.35204912995E+01  0.15938621551E+01 -0.17392163609E+02  0.17816329885E+02  0.00000000000E+00 0. -1.
</event>
<event>
 7    1  0.4675811E-010  0.4778727E+02  0.7816164E-02  0.1312668E+00
        -11   -1    0    0    0    0  0.00000000000E+00  0.00000000000E+00  0.45593999997E+02  0.45594000000E+02  0.51100000000E-03 0.  1.
         11   -1    0    0    0    0 -0.00000000000E+00 -0.00000000000E+00 -0.45593999997E+02  0.45594000000E+02  0.51100000000E-03 0. -1.
    9900012    2    1    2    0    0  0.23114311466E+02 -0.34054095345E+02 -0.13772099678E+02  0.47787268049E+02  0.19999986343E+02 0.  0.
        -12    1    1    2    0    0 -0.23114311466E+02  0.34054095345E+02  0.13772099678E+02  0.43400731951E+02  0.00000000000E+00 0.  1.
         11    1    3    3    0    0  0.17482839217E+00 -0.10590228855E+01  0.14562096827E+01  0.18090443167E+01  0.51100000000E-03 0. -1.
        -11    1    3    3    0    0 -0.20303703700E+01 -0.32606610271E+01 -0.40302499283E+01  0.55675155068E+01  0.51100000000E-03 0.  1.
         12    1    3    3    0    0  0.24969853444E+02 -0.29734411433E+02 -0.11198059433E+02  0.40410708226E+02  0.00000000000E+00 0. -1.
</event>
<event>
 7    1  0.4675811E-010  0.4778727E+02  0.7816164E-02  0.1312668E+00
        -11   -1    0    0    0    0  0.00000000000E+00  0.00000000000E+00  0.45593999997E+02  0.45594000000E+02  0.51100000000E-03 0. -1.
         11   -1    0    0    0    0 -0.00000000000E+00 -0.00000000000E+00 -0.45593999997E+02  0.45594000000E+02  0.51100000000E-03 0.  1.
    9900012    2    1    2    0    0  0.39902557251E+02  0.11645212064E+02 -0.12481919102E+02  0.47787270241E+02  0.19999996335E+02 0.  0.
        -12    1    1    2    0    0 -0.39902557251E+02 -0.11645212064E+02  0.12481919102E+02  0.43400729759E+02  0.00000000000E+00 0.  1.
         11    1    3    3    0    0  0.26555375460E+02  0.49443106650E+01 -0.45310021890E+01  0.27389124756E+02  0.51100000000E-03 0. -1.
        -11    1    3    3    0    0  0.11504273666E+02 -0.31422019553E+00 -0.53668309041E+01  0.12698421994E+02  0.51100000000E-03 0.  1.
        -12    1    3    3    0    0  0.18429081249E+01  0.70151215944E+01 -0.25840860086E+01  0.76997234912E+01  0.00000000000E+00 0.  1.
</event>
<event>
 7    1  0.4675811E-010  0.4778727E+02  0.7816164E-02  0.1312668E+00
        -11   -1    0    0    0    0  0.00000000000E+00  0.00000000000E+00  0.45593999997E+02  0.45594000000E+02  0.51100000000E-03 0.  1.
         11   -1    0    0    0    0 -0.00000000000E+00 -0.00000000000E+00 -0.45593999997E+02  0.45594000000E+02  0.51100000000E-03 0. -1.
    9900012    2    1    2    0    0  0.35284742755E+02 -0.61865852544E+01 -0.24501765335E+02  0.47787269443E+02  0.19999992697E+02 0.  0.
        -12    1    1    2    0    0 -0.35284742755E+02  0.61865852544E+01  0.24501765335E+02  0.43400730557E+02  0.00000000000E+00 0.  1.
         11    1    3    3    0    0  0.30795699870E+01 -0.18874604812E+01 -0.33111959324E+01  0.49000282792E+01  0.51100000000E-03 0. -1.
        -11    1    3    3    0    0  0.17975230702E+02 -0.11066105440E+02 -0.89190876485E+01  0.22915447479E+02  0.51100000000E-03 0.  1.
        -12    1    3    3    0    0  0.14229942065E+02  0.67669806670E+01 -0.12271481755E+02  0.19971793685E+02  0.00000000000E+00 0.  1.
</event>
<event>
 7    1  0.4675811E-010  0.4778727E+02  0.7816164E-02  0.1312668E+00
        -11   -1    0    0    0    0  0.00000000000E+00  0.00000000000E+00  0.45593999997E+02  0.45594000000E+02  0.51100000000E-03 0.  1.
         11   -1    0    0    0    0 -0.00000000000E+00 -0.00000000000E+00 -0.45593999997E+02  0.45594000000E+02  0.51100000000E-03 0. -1.
    9900012    2    1    2    0    0  0.32303746530E+02  0.27958591648E+02 -0.76425449979E+01  0.47787269812E+02  0.19999994381E+02 0.  0.
        -12    1    1    2    0    0 -0.32303746530E+02 -0.27958591648E+02  0.76425449979E+01  0.43400730188E+02  0.00000000000E+00 0.  1.
         11    1    3    3    0    0  0.41084112538E+01  0.22613378624E+01  0.19297285665E+01  0.50711482486E+01  0.51100000000E-03 0. -1.
        -11    1    3    3    0    0  0.11535334378E+02  0.11310156583E+02  0.42743303046E+01  0.16710879120E+02  0.51100000000E-03 0.  1.
         12    1    3    3    0    0  0.16660000898E+02  0.14387097202E+02 -0.13846603869E+02  0.26005242443E+02  0.00000000000E+00 0. -1.
</event>
<event>
 7    1  0.4675811E-010  0.4778727E+02  0.7816164E-02  0.1312668E+00
        -11   -1    0    0    0    0  0.00000000000E+00  0.00000000000E+00  0.45593999997E+02  0.45594000000E+02  0.51100000000E-03 0.  1.
         11   -1    0    0    0    0 -0.00000000000E+00 -0.00000000000E+00 -0.45593999997E+02  0.45594000000E+02  0.51100000000E-03 0. -1.
    9900012    2    1    2    0    0 -0.14855872147E+02 -0.11478100448E+02 -0.39130285706E+02  0.47787274355E+02  0.20000015092E+02 0.  0.
        -12    1    1    2    0    0  0.14855872147E+02  0.11478100448E+02  0.39130285706E+02  0.43400725645E+02  0.00000000000E+00 0.  1.
         11    1    3    3    0    0 -0.58116010172E+01 -0.29537859658E+01 -0.18533858437E+02  0.19646970931E+02  0.51100000000E-03 0. -1.
        -11    1    3    3    0    0 -0.12945409070E+02 -0.60837745823E+01 -0.13409276732E+02  0.19606239616E+02  0.51100000000E-03 0.  1.
        -12    1    3    3    0    0  0.39011379405E+01 -0.24405398999E+01 -0.71871505368E+01  0.85340638076E+01  0.00000000000E+00 0.  1.
</event>
<event>
 7    1  0.4675811E-010  0.4778727E+02  0.7816164E-02  0.1312668E+00
        -11   -1    0    0    0    0  0.00000000000E+00  0.00000000000E+00  0.45593999997E+02  0.45594000000E+02  0.51100000000E-03 0.  1.
         11   -1    0    0    0    0 -0.00000000000E+00 -0.00000000000E+00 -0.45593999997E+02  0.45594000000E+02  0.51100000000E-03 0. -1.
    9900012    2    1    2    0    0 -0.15888069386E+01  0.76579011000E+01 -0.42690223952E+02  0.47787274455E+02  0.20000015550E+02 0.  0.
        -12    1    1    2    0    0  0.15888069386E+01 -0.76579011000E+01  0.42690223952E+02  0.43400725545E+02  0.00000000000E+00 0.  1.
         11    1    3    3    0    0  0.35781370373E+01 -0.10407620962E+01 -0.17902043787E+02  0.18285771037E+02  0.51100000000E-03 0. -1.
        -11    1    3    3    0    0  0.27916116656E+01  0.89109910054E-01 -0.11252842927E+02  0.11594287837E+02  0.51100000000E-03 0.  1.
         12    1    3    3    0    0 -0.79585556415E+01  0.86095532861E+01 -0.13535337239E+02  0.17907215580E+02  0.00000000000E+00 0. -1.
</event>
<event>
 7    1  0.4675811E-010  0.4778727E+02  0.7816164E-02  0.1312668E+00
        -11   -1    0    0    0    0  0.00000000000E+00  0.00000000000E+00  0.45593999997E+02  0.45594000000E+02  0.51100000000E-03 0.  1.
         11   -1    0    0    0    0 -0.00000000000E+00 -0.00000000000E+00 -0.45593999997E+02  0.45594000000E+02  0.51100000000E-03 0. -1.
    9900012    2    1    2    0    0 -0.13787985305E+02 -0.40525911028E+02 -0.71529910100E+01  0.47787270930E+02  0.19999999480E+02 0.  0.
        -12    1    1    2    0    0  0.13787985305E+02  0.40525911028E+02  0.71529910100E+01  0.43400729070E+02  0.00000000000E+00 0.  1.
         11    1    3    3    0    0 -0.21184276342E+00 -0.49897292620E+01 -0.88083422772E+00  0.50713060115E+01  0.51100000000E-03 0. -1.
        -11    1    3    3    0    0  0.43562349471E+01 -0.38031882782E+01 -0.13223789817E+01  0.59320915727E+01  0.51100000000E-03 0.  1.
        -12    1    3    3    0    0 -0.17932377488E+02 -0.31732993488E+02 -0.49497778005E+01  0.36783873346E+02  0.00000000000E+00 0.  1.
</event>
<event>
 7    1  0.4675811E-010  0.4778727E+02  0.7816164E-02  0.1312668E+00
        -11   -1    0    0    0    0  0.00000000000E+00  0.00000000000E+00  0.45593999997E+02  0.45594000000E+02  0.51100000000E-03 0.  1.
         11   -1    0    0    0    0 -0.00000000000E+00 -0.00000000000E+00 -0.45593999997E+02  0.45594000000E+02  0.51100000000E-03 0. -1.
    9900012    2    1    2    0    0  0.21177167376E+02 -0.41361877952E+01 -0.37656910645E+02  0.47787269743E+02  0.19999994067E+02 0.  0.
        -12    1    1    2    0    0 -0.21177167376E+02  0.41361877952E+01  0.37656910645E+02  0.43400730257E+02  0.00000000000E+00 0.  1.
         11    1    3    3    0    0  0.11995914062E+02  0.52490296096E+01 -0.18971994550E+02  0.23051916265E+02  0.51100000000E-03 0. -1.
        -11    1    3    3    0    0  0.78888205051E+01 -0.13288061992E+01 -0.10211821390E+02  0.12972297840E+02  0.51100000000E-03 0.  1.
        -12    1    3    3    0    0  0.12924328083E+01 -0.80564112056E+01 -0.84730947044E+01  0.11763055638E+02  0.00000000000E+00 0.  1.
</event>
<event>
 7    1  0.4675811E-010  0.4778727E+02  0.7816164E-02  0.1312668E+00
        -11   -1    0    0    0    0  0.00000000000E+00  0.00000000000E+00  0.45593999997E+02  0.45594000000E+02  0.51100000000E-03 0.  1.
         11   -1    0    0    0    0 -0.00000000000E+00 -0.00000000000E+00 -0.45593999997E+02  0.45594000000E+02  0.51100000000E-03 0. -1.
    9900012    2    1    2    0    0  0.30761161015E+02 -0.26413144406E+02 -0.15482899521E+02  0.47787269569E+02  0.19999993272E+02 0.  0.
        -12    1    1    2    0    0 -0.30761161015E+02  0.26413144406E+02  0.15482899521E+02  0.43400730431E+02  0.00000000000E+00 0.  1.
         11    1    3    3    0    0  0.78735011369E+01  0.76444981789E+00 -0.17175666362E+01  0.80948402756E+01  0.51100000000E-03 0. -1.
        -11    1    3    3    0    0  0.87919367739E+01 -0.10535718174E+02  0.32746881177E+00  0.13726133678E+02  0.51100000000E-03 0.  1.
         12    1    3    3    0    0  0.14095723104E+02 -0.16641876050E+02 -0.14092801697E+02  0.25966295615E+02  0.00000000000E+00 0. -1.
</event>
<event>
 7    1  0.4675811E-010  0.4778726E+02  0.7816164E-02  0.1312668E+00
        -11   -1    0    0    0    0  0.00000000000E+00  0.00000000000E+00  0.45593999997E+02  0.45594000000E+02  0.51100000000E-03 0.  1.
         11   -1    0    0    0    0 -0.00000000000E+00 -0.00000000000E+00 -0.45593999997E+02  0.45594000000E+02  0.51100000000E-03 0. -1.
    9900012    2    1    2    0    0 -0.29932017183E+02 -0.29827509254E+02 -0.99004071881E+01  0.47787262409E+02  0.19999960628E+02 0.  0.
        -12    1    1    2    0    0  0.29932017183E+02  0.29827509254E+02  0.99004071881E+01  0.43400737591E+02  0.00000000000E+00 0.  1.
         11    1    3    3    0    0 -0.82861828114E+01 -0.10007319439E+02  0.78751258828E+00  0.13016429783E+02  0.51100000000E-03 0. -1.
        -11    1    3    3    0    0 -0.46348471085E+01 -0.26280528113E+01  0.38305747886E+01  0.65621469635E+01  0.51100000000E-03 0.  1.
         12    1    3    3    0    0 -0.17010987263E+02 -0.17192137004E+02 -0.14518494565E+02  0.28208685663E+02  0.00000000000E+00 0. -1.
</event>
<event>
 7    1  0.4675811E-010  0.4778726E+02  0.7816164E-02  0.1312668E+00
        -11   -1    0    0    0    0  0.00000000000E+00  0.00000000000E+00  0.45593999997E+02  0.45594000000E+02  0.51100000000E-03 0. -1.
         11   -1    0    0    0    0 -0.00000000000E+00 -0.00000000000E+00 -0.45593999997E+02  0.45594000000E+02  0.51100000000E-03 0.  1.
    9900012    2    1    2    0    0  0.35743978898E+02 -0.79454287668E+01  0.23299401418E+02  0.47787263000E+02  0.19999963320E+02 0.  0.
        -12    1    1    2    0    0 -0.35743978898E+02  0.79454287668E+01 -0.23299401418E+02  0.43400737000E+02  0.00000000000E+00 0.  1.
         11    1    3    3    0    0  0.15953615789E+02  0.31668985129E+00  0.19027546009E+02  0.24832753705E+02  0.51100000000E-03 0. -1.
        -11    1    3    3    0    0  0.44980586372E+01  0.10684105599E+01  0.12300371810E+01  0.47840384986E+01  0.51100000000E-03 0.  1.
        -12    1    3    3    0    0  0.15292304472E+02 -0.93305291779E+01  0.30418182277E+01  0.18170470796E+02  0.00000000000E+00 0.  1.
</event>
<event>
 7    1  0.4675811E-010  0.4778728E+02  0.7816164E-02  0.1312668E+00
        -11   -1    0    0    0    0  0.00000000000E+00  0.00000000000E+00  0.45593999997E+02  0.45594000000E+02  0.51100000000E-03 0. -1.
         11   -1    0    0    0    0 -0.00000000000E+00 -0.00000000000E+00 -0.45593999997E+02  0.45594000000E+02  0.51100000000E-03 0.  1.
    9900012    2    1    2    0    0  0.35993324716E+02 -0.94013957936E+01 -0.22354350075E+02  0.47787278413E+02  0.20000033596E+02 0.  0.
        -12    1    1    2    0    0 -0.35993324716E+02  0.94013957936E+01  0.22354350075E+02  0.43400721587E+02  0.00000000000E+00 0.  1.
         11    1    3    3    0    0  0.26169233481E+02 -0.23894144934E+01 -0.12671521375E+02  0.29173713113E+02  0.51100000000E-03 0. -1.
        -11    1    3    3    0    0  0.94724099350E+01 -0.42812891179E+01 -0.11353217528E+02  0.15393230167E+02  0.51100000000E-03 0.  1.
        -12    1    3    3    0    0  0.35168130013E+00 -0.27306921823E+01  0.16703888271E+01  0.32203351324E+01  0.00000000000E+00 0.  1.
</event>
<event>
 7    1  0.4675811E-010  0.4778727E+02  0.7816164E-02  0.1312668E+00
        -11   -1    0    0    0    0  0.00000000000E+00  0.00000000000E+00  0.45593999997E+02  0.45594000000E+02  0.51100000000E-03 0.  1.
         11   -1    0    0    0    0 -0.00000000000E+00 -0.00000000000E+00 -0.45593999997E+02  0.45594000000E+02  0.51100000000E-03 0. -1.
    9900012    2    1    2    0    0  0.29843523346E+01  0.21663061901E+02 -0.37489047615E+02  0.47787270734E+02  0.19999998583E+02 0.  0.
        -12    1    1    2    0    0 -0.29843523346E+01 -0.21663061901E+02  0.37489047615E+02  0.43400729266E+02  0.00000000000E+00 0.  1.
         11    1    3    3    0    0 -0.33738390113E-01  0.97686946005E+01 -0.18110183380E+02  0.20576862608E+02  0.51100000000E-03 0. -1.
        -11    1    3    3    0    0 -0.72667778844E+00  0.12496022319E+02 -0.71683868296E+01  0.14424437750E+02  0.51100000000E-03 0.  1.
        -12    1    3    3    0    0  0.37447685131E+01 -0.60165501847E+00 -0.12210477405E+02  0.12785970375E+02  0.00000000000E+00 0.  1.
</event>
<event>
 7    1  0.4675811E-010  0.4778728E+02  0.7816164E-02  0.1312668E+00
        -11   -1    0    0    0    0  0.00000000000E+00  0.00000000000E+00  0.45593999997E+02  0.45594000000E+02  0.51100000000E-03 0. -1.
         11   -1    0    0    0    0 -0.00000000000E+00 -0.00000000000E+00 -0.45593999997E+02  0.45594000000E+02  0.51100000000E-03 0.  1.
    9900012    2    1    2    0    0 -0.31836072699E+02  0.17191117392E+02  0.23969824167E+02  0.47787279814E+02  0.20000039984E+02 0.  0.
        -12    1    1    2    0    0  0.31836072699E+02 -0.17191117392E+02 -0.23969824167E+02  0.43400720186E+02  0.00000000000E+00 0.  1.
         11    1    3    3    0    0 -0.54700650025E+00  0.36756331722E+01  0.36030085709E+01  0.51760183878E+01  0.51100000000E-03 0. -1.
        -11    1    3    3    0    0 -0.28723094867E+02  0.14494126195E+02  0.22392727596E+02  0.39198598474E+02  0.51100000000E-03 0.  1.
        -12    1    3    3    0    0 -0.25659713320E+01 -0.97864197506E+00 -0.20259120001E+01  0.34126629521E+01  0.00000000000E+00 0.  1.
</event>
<event>
 7    1  0.4675811E-010  0.4778725E+02  0.7816164E-02  0.1312668E+00
        -11   -1    0    0    0    0  0.00000000000E+00  0.00000000000E+00  0.45593999997E+02  0.45594000000E+02  0.51100000000E-03 0.  1.
         11   -1    0    0    0    0 -0.00000000000E+00 -0.00000000000E+00 -0.45593999997E+02  0.45594000000E+02  0.51100000000E-03 0. -1.
    9900012    2    1    2    0    0 -0.17760613183E+01 -0.29629469087E+02 -0.31663306737E+02  0.47787253166E+02  0.19999918486E+02 0.  0.
        -12    1    1    2    0    0  0.17760613183E+01  0.29629469087E+02  0.31663306737E+02  0.43400746834E+02  0.00000000000E+00 0.  1.
         11    1    3    3    0    0 -0.10448060684E+01 -0.12457589319E+02 -0.15140495757E+02  0.19634606270E+02  0.51100000000E-03 0. -1.
        -11    1    3    3    0    0  0.20482085446E+01 -0.10491082081E+02 -0.17840598111E+02  0.20797713882E+02  0.51100000000E-03 0.  1.
        -12    1    3    3    0    0 -0.27794637945E+01 -0.66807976872E+01  0.13177871313E+01  0.73549330144E+01  0.00000000000E+00 0.  1.
</event>
<event>
 7    1 -0.4675811E-010  0.4778727E+02  0.7816164E-02  0.1312668E+00
        -11   -1    0    0    0    0  0.00000000000E+00  0.00000000000E+00  0.45593999997E+02  0.45594000000E+02  0.51100000000E-03 0.  1.
         11   -1    0    0    0    0 -0.00000000000E+00 -0.00000000000E+00 -0.45593999997E+02  0.45594000000E+02  0.51100000000E-03 0. -1.
    9900012    2    1    2    0    0 -0.30647585673E+02 -0.15404955461E+02 -0.26590149385E+02  0.47787271842E+02  0.20000003636E+02 0.  0.
        -12    1    1    2    0    0  0.30647585673E+02  0.15404955461E+02  0.26590149385E+02  0.43400728158E+02  0.00000000000E+00 0.  1.
         11    1    3    3    0    0 -0.12232937380E+02 -0.81688523373E+01 -0.63894621201E+01  0.16037460270E+02  0.51100000000E-03 0. -1.
        -11    1    3    3    0    0 -0.87479502855E+01 -0.87197832974E+01 -0.17823791319E+02  0.21685220594E+02  0.51100000000E-03 0.  1.
        -12    1    3    3    0    0 -0.96666980078E+01  0.14836801737E+01 -0.23768959457E+01  0.10064590979E+02  0.00000000000E+00 0.  1.
</event>
<event>
 7    1  0.4675811E-010  0.4778727E+02  0.7816164E-02  0.1312668E+00
        -11   -1    0    0    0    0  0.00000000000E+00  0.00000000000E+00  0.45593999997E+02  0.45594000000E+02  0.51100000000E-03 0. -1.
         11   -1    0    0    0    0 -0.00000000000E+00 -0.00000000000E+00 -0.45593999997E+02  0.45594000000E+02  0.51100000000E-03 0.  1.
    9900012    2    1    2    0    0  0.42334335915E+02  0.94770094186E+01  0.12703018495E+01  0.47787269918E+02  0.19999994863E+02 0.  0.
        -12    1    1    2    0    0 -0.42334335915E+02 -0.94770094186E+01 -0.12703018495E+01  0.43400730082E+02  0.00000000000E+00 0.  1.
         11    1    3    3    0    0  0.94559586868E+01 -0.19190810769E+01  0.17753714502E+00  0.96503651001E+01  0.51100000000E-03 0. -1.
        -11    1    3    3    0    0  0.19065785317E+02 -0.13136839463E+01 -0.15845879692E+01  0.19176570459E+02  0.51100000000E-03 0.  1.
         12    1    3    3    0    0  0.13812591911E+02  0.12709774442E+02  0.26773526736E+01  0.18960334359E+02  0.00000000000E+00 0. -1.
</event>
<event>
 7    1  0.4675811E-010  0.4778727E+02  0.7816164E-02  0.1312668E+00
        -11   -1    0    0    0    0  0.00000000000E+00  0.00000000000E+00  0.45593999997E+02  0.45594000000E+02  0.51100000000E-03 0.  1.
         11   -1    0    0    0    0 -0.00000000000E+00 -0.00000000000E+00 -0.45593999997E+02  0.45594000000E+02  0.51100000000E-03 0. -1.
    9900012    2    1    2    0    0  0.39248914277E+02  0.17779911103E+02  0.51981997797E+01  0.47787265079E+02  0.19999972801E+02 0.  0.
        -12    1    1    2    0    0 -0.39248914277E+02 -0.17779911103E+02 -0.51981997797E+01  0.43400734921E+02  0.00000000000E+00 0.  1.
         11    1    3    3    0    0  0.10451524358E+02 -0.97341312865E+00 -0.33375366133E+01  0.11014583307E+02  0.51100000000E-03 0. -1.
        -11    1    3    3    0    0  0.12505267532E+02  0.45324636563E+01 -0.55769752223E+00  0.13313000023E+02  0.51100000000E-03 0.  1.
        -12    1    3    3    0    0  0.16292122388E+02  0.14220860575E+02  0.90934339153E+01  0.23459681749E+02  0.00000000000E+00 0.  1.
</event>
<event>
 7    1  0.4675811E-010  0.4778727E+02  0.7816164E-02  0.1312668E+00
        -11   -1    0    0    0    0  0.00000000000E+00  0.00000000000E+00  0.45593999997E+02  0.45594000000E+02  0.51100000000E-03 0. -1.
         11   -1    0    0    0    0 -0.00000000000E+00 -0.00000000000E+00 -0.45593999997E+02  0.45594000000E+02  0.51100000000E-03 0.  1.
    9900012    2    1    2    0    0  0.26147906715E+02 -0.18793482058E+02  0.29098371066E+02  0.47787271986E+02  0.20000004295E+02 0.  0.
        -12    1    1    2    0    0 -0.26147906715E+02  0.18793482058E+02 -0.29098371066E+02  0.43400728014E+02  0.00000000000E+00 0.  1.
         11    1    3    3    0    0 -0.20383320248E+01 -0.56547273217E+00  0.11092891417E+01  0.23885308278E+01  0.51100000000E-03 0. -1.
        -11    1    3    3    0    0  0.77623699644E+01 -0.31420118318E+01  0.11512017579E+01  0.84529220725E+01  0.51100000000E-03 0.  1.
         12    1    3    3    0    0  0.20423868776E+02 -0.15085997494E+02  0.26837880166E+02  0.36945819086E+02  0.00000000000E+00 0. -1.
</event>
<event>
 7    1  0.4675811E-010  0.4778727E+02  0.7816164E-02  0.1312668E+00
        -11   -1    0    0    0    0  0.00000000000E+00  0.00000000000E+00  0.45593999997E+02  0.45594000000E+02  0.51100000000E-03 0.  1.
         11   -1    0    0    0    0 -0.00000000000E+00 -0.00000000000E+00 -0.45593999997E+02  0.45594000000E+02  0.51100000000E-03 0. -1.
    9900012    2    1    2    0    0 -0.89984076437E+01  0.10247388688E+02 -0.41202464910E+02  0.47787269249E+02  0.19999991814E+02 0.  0.
        -12    1    1    2    0    0  0.89984076437E+01 -0.10247388688E+02  0.41202464910E+02  0.43400730751E+02  0.00000000000E+00 0.  1.
         11    1    3    3    0    0  0.25848430442E+01  0.33050160689E+01 -0.21288533038E+01  0.47049507361E+01  0.51100000000E-03 0. -1.
        -11    1    3    3    0    0 -0.55255529064E+01 -0.66363133490E+00 -0.44688824068E+01  0.71374401362E+01  0.51100000000E-03 0.  1.
         12    1    3    3    0    0 -0.60576977815E+01  0.76060039543E+01 -0.34604729199E+02  0.35944878377E+02  0.00000000000E+00 0. -1.
</event>
<event>
 7    1  0.4675811E-010  0.4778727E+02  0.7816164E-02  0.1312668E+00
        -11   -1    0    0    0    0  0.00000000000E+00  0.00000000000E+00  0.45593999997E+02  0.45594000000E+02  0.51100000000E-03 0.  1.
         11   -1    0    0    0    0 -0.00000000000E+00 -0.00000000000E+00 -0.45593999997E+02  0.45594000000E+02  0.51100000000E-03 0. -1.
    9900012    2    1    2    0    0  0.41478162435E+02 -0.12727709247E+02  0.10912232294E+01  0.47787270631E+02  0.19999998113E+02 0.  0.
        -12    1    1    2    0    0 -0.41478162435E+02  0.12727709247E+02 -0.10912232294E+01  0.43400729369E+02  0.00000000000E+00 0.  1.
         11    1    3    3    0    0  0.56053916355E+01  0.11413009465E+01 -0.23081922256E+01  0.61685277700E+01  0.51100000000E-03 0. -1.
        -11    1    3    3    0    0  0.33525251112E+00 -0.35948266880E+01 -0.21648465941E+01  0.42097190167E+01  0.51100000000E-03 0.  1.
         12    1    3    3    0    0  0.35537518288E+02 -0.10274183505E+02  0.55642620491E+01  0.37409023844E+02  0.00000000000E+00 0. -1.
</event>
<event>
 7    1  0.4675811E-010  0.4778727E+02  0.7816164E-02  0.1312668E+00
        -11   -1    0    0    0    0  0.00000000000E+00  0.00000000000E+00  0.45593999997E+02  0.45594000000E+02  0.51100000000E-03 0. -1.
         11   -1    0    0    0    0 -0.00000000000E+00 -0.00000000000E+00 -0.45593999997E+02  0.45594000000E+02  0.51100000000E-03 0.  1.
    9900012    2    1    2    0    0 -0.34767512092E+02 -0.56627619044E+01  0.25353034749E+02  0.47787272582E+02  0.20000007008E+02 0.  0.
        -12    1    1    2    0    0  0.34767512092E+02  0.56627619044E+01 -0.25353034749E+02  0.43400727418E+02  0.00000000000E+00 0.  1.
         11    1    3    3    0    0 -0.19779119251E+02 -0.12246514123E+02  0.13573445552E+02  0.26933790875E+02  0.51100000000E-03 0. -1.
        -11    1    3    3    0    0 -0.87674606991E+01  0.16259450854E+01  0.41654635946E+01  0.98419079324E+01  0.51100000000E-03 0.  1.
         12    1    3    3    0    0 -0.62209321428E+01  0.49578071331E+01  0.76141256023E+01  0.11011573774E+02  0.00000000000E+00 0. -1.
</event>
<event>
 7    1  0.4675811E-010  0.4778727E+02  0.7816164E-02  0.1312668E+00
        -11   -1    0    0    0    0  0.00000000000E+00  0.00000000000E+00  0.45593999997E+02  0.45594000000E+02  0.51100000000E-03 0. -1.
         11   -1    0    0    0    0 -0.00000000000E+00 -0.00000000000E+00 -0.45593999997E+02  0.45594000000E+02  0.51100000000E-03 0.  1.
    9900012    2    1    2    0    0 -0.35985620492E+02  0.13379018007E+02  0.20240057518E+02  0.47787274967E+02  0.20000017886E+02 0.  0.
        -12    1    1    2    0    0  0.35985620492E+02 -0.13379018007E+02 -0.20240057518E+02  0.43400725033E+02  0.00000000000E+00 0.  1.
         11    1    3    3    0    0 -0.11239013224E+02 -0.20268354938E+01  0.72034981026E+01  0.13502365184E+02  0.51100000000E-03 0. -1.
        -11    1    3    3    0    0 -0.13419792931E+02  0.18726533801E+01  0.87320469185E+01  0.16119749273E+02  0.51100000000E-03 0.  1.
        -12    1    3    3    0    0 -0.11326814336E+02  0.13533200121E+02  0.43045124973E+01  0.18165160510E+02  0.00000000000E+00 0.  1.
</event>
<event>
 7    1  0.4675811E-010  0.4778727E+02  0.7816164E-02  0.1312668E+00
        -11   -1    0    0    0    0  0.00000000000E+00  0.00000000000E+00  0.45593999997E+02  0.45594000000E+02  0.51100000000E-03 0.  1.
         11   -1    0    0    0    0 -0.00000000000E+00 -0.00000000000E+00 -0.45593999997E+02  0.45594000000E+02  0.51100000000E-03 0. -1.
    9900012    2    1    2    0    0  0.17841871046E+02  0.80701100240E+01 -0.38731956095E+02  0.47787268887E+02  0.19999990161E+02 0.  0.
        -12    1    1    2    0    0 -0.17841871046E+02 -0.80701100240E+01  0.38731956095E+02  0.43400731113E+02  0.00000000000E+00 0.  1.
         11    1    3    3    0    0  0.37671431209E-01 -0.26977426067E+01 -0.54720054768E+01  0.61009899613E+01  0.51100000000E-03 0. -1.
        -11    1    3    3    0    0 -0.15409806265E+01  0.16522994124E+01 -0.93009583322E+01  0.95714440289E+01  0.51100000000E-03 0.  1.
         12    1    3    3    0    0  0.19345180242E+02  0.91155532183E+01 -0.23958992286E+02  0.32114834896E+02  0.00000000000E+00 0. -1.
</event>
<event>
 7    1  0.4675811E-010  0.4778727E+02  0.7816164E-02  0.1312668E+00
        -11   -1    0    0    0    0  0.00000000000E+00  0.00000000000E+00  0.45593999997E+02  0.45594000000E+02  0.51100000000E-03 0.  1.
         11   -1    0    0    0    0 -0.00000000000E+00 -0.00000000000E+00 -0.45593999997E+02  0.45594000000E+02  0.51100000000E-03 0. -1.
    9900012    2    1    2    0    0 -0.91680625889E+01 -0.33794674324E+02 -0.25641568845E+02  0.47787269164E+02  0.19999991426E+02 0.  0.
        -12    1    1    2    0    0  0.91680625889E+01  0.33794674324E+02  0.25641568845E+02  0.43400730836E+02  0.00000000000E+00 0.  1.
         11    1    3    3    0    0 -0.37569467180E+01 -0.74708317985E+00 -0.19653761646E+01  0.43052857802E+01  0.51100000000E-03 0. -1.
        -11    1    3    3    0    0 -0.11917902016E+01 -0.17729093427E+01 -0.79319444975E+01  0.82145794289E+01  0.51100000000E-03 0.  1.
         12    1    3    3    0    0 -0.42193256693E+01 -0.31274681801E+02 -0.15744248183E+02  0.35267403955E+02  0.00000000000E+00 0. -1.
</event>
<event>
 7    1  0.4675811E-010  0.4778727E+02  0.7816164E-02  0.1312668E+00
        -11   -1    0    0    0    0  0.00000000000E+00  0.00000000000E+00  0.45593999997E+02  0.45594000000E+02  0.51100000000E-03 0.  1.
         11   -1    0    0    0    0 -0.00000000000E+00 -0.00000000000E+00 -0.45593999997E+02  0.45594000000E+02  0.51100000000E-03 0. -1.
    9900012    2    1    2    0    0  0.38449341218E+02 -0.22401698645E+01  0.20006325435E+02  0.47787271221E+02  0.20000000805E+02 0.  0.
        -12    1    1    2    0    0 -0.38449341218E+02  0.22401698645E+01 -0.20006325435E+02  0.43400728779E+02  0.00000000000E+00 0.  1.
         11    1    3    3    0    0  0.22847082256E-01 -0.82139553022E+00 -0.15855604101E+01  0.17858372494E+01  0.51100000000E-03 0. -1.
        -11    1    3    3    0    0  0.75583822154E+01  0.46461289672E+00  0.10915118065E+02  0.13284758541E+02  0.51100000000E-03 0.  1.
         12    1    3    3    0    0  0.30868111920E+02 -0.18833872309E+01  0.10676767780E+02  0.32716675430E+02  0.00000000000E+00 0. -1.
</event>
<event>
 7    1  0.4675811E-010  0.4778728E+02  0.7816164E-02  0.1312668E+00
        -11   -1    0    0    0    0  0.00000000000E+00  0.00000000000E+00  0.45593999997E+02  0.45594000000E+02  0.51100000000E-03 0. -1.
         11   -1    0    0    0    0 -0.00000000000E+00 -0.00000000000E+00 -0.45593999997E+02  0.45594000000E+02  0.51100000000E-03 0.  1.
    9900012    2    1    2    0    0  0.42280482024E+02  0.54599830806E+01  0.81346221421E+01  0.47787278199E+02  0.20000032622E+02 0.  0.
        -12    1    1    2    0    0 -0.42280482024E+02 -0.54599830806E+01 -0.81346221421E+01  0.43400721801E+02  0.00000000000E+00 0.  1.
         11    1    3    3    0    0  0.16118759472E+01 -0.57281318598E+00 -0.40591934213E+00  0.17581324719E+01  0.51100000000E-03 0. -1.
        -11    1    3    3    0    0  0.19904763095E+02  0.73792323919E+01 -0.41872720219E+01  0.21637604115E+02  0.51100000000E-03 0.  1.
        -12    1    3    3    0    0  0.20763842982E+02 -0.13464361253E+01  0.12727813506E+02  0.24391541613E+02  0.00000000000E+00 0.  1.
</event>
<event>
 7    1  0.4675811E-010  0.4778727E+02  0.7816164E-02  0.1312668E+00
        -11   -1    0    0    0    0  0.00000000000E+00  0.00000000000E+00  0.45593999997E+02  0.45594000000E+02  0.51100000000E-03 0.  1.
         11   -1    0    0    0    0 -0.00000000000E+00 -0.00000000000E+00 -0.45593999997E+02  0.45594000000E+02  0.51100000000E-03 0. -1.
    9900012    2    1    2    0    0  0.10619905549E+02 -0.26232338163E+02 -0.32904492193E+02  0.47787267680E+02  0.19999984662E+02 0.  0.
        -12    1    1    2    0    0 -0.10619905549E+02  0.26232338163E+02  0.32904492193E+02  0.43400732320E+02  0.00000000000E+00 0.  1.
         11    1    3    3    0    0  0.77040163832E+01 -0.15264854386E+02 -0.26182374775E+02  0.31271143199E+02  0.51100000000E-03 0. -1.
        -11    1    3    3    0    0  0.54266540084E+01 -0.55011944590E+01 -0.70932871299E+01  0.10489348730E+02  0.51100000000E-03 0.  1.
        -12    1    3    3    0    0 -0.25107648424E+01 -0.54662893186E+01  0.37116971156E+00  0.60267757518E+01  0.00000000000E+00 0.  1.
</event>
<event>
 7    1  0.4675811E-010  0.4778727E+02  0.7816164E-02  0.1312668E+00
        -11   -1    0    0    0    0  0.00000000000E+00  0.00000000000E+00  0.45593999997E+02  0.45594000000E+02  0.51100000000E-03 0. -1.
         11   -1    0    0    0    0 -0.00000000000E+00 -0.00000000000E+00 -0.45593999997E+02  0.45594000000E+02  0.51100000000E-03 0.  1.
    9900012    2    1    2    0    0 -0.22761892274E+02  0.28947740550E+02  0.22968412724E+02  0.47787269524E+02  0.19999993066E+02 0.  0.
        -12    1    1    2    0    0  0.22761892274E+02 -0.28947740550E+02 -0.22968412724E+02  0.43400730476E+02  0.00000000000E+00 0.  1.
         11    1    3    3    0    0 -0.42488472078E+00  0.32342670899E+01 -0.28756677446E+00  0.32747069404E+01  0.51100000000E-03 0.  1.
        -11    1    3    3    0    0 -0.47042753717E+01  0.14438701603E+02  0.31880216492E+01  0.15516758459E+02  0.51100000000E-03 0. -1.
         12    1    3    3    0    0 -0.17632732181E+02  0.11274771857E+02  0.20067957849E+02  0.28995804125E+02  0.00000000000E+00 0. -1.
</event>
<event>
 7    1  0.4675811E-010  0.4778728E+02  0.7816164E-02  0.1312668E+00
        -11   -1    0    0    0    0  0.00000000000E+00  0.00000000000E+00  0.45593999997E+02  0.45594000000E+02  0.51100000000E-03 0.  1.
         11   -1    0    0    0    0 -0.00000000000E+00 -0.00000000000E+00 -0.45593999997E+02  0.45594000000E+02  0.51100000000E-03 0. -1.
    9900012    2    1    2    0    0  0.57887666085E+00 -0.43391748754E+02 -0.66626958258E+00  0.47787275659E+02  0.20000021041E+02 0.  0.
        -12    1    1    2    0    0 -0.57887666085E+00  0.43391748754E+02  0.66626958258E+00  0.43400724341E+02  0.00000000000E+00 0.  1.
         11    1    3    3    0    0  0.50307662442E+01 -0.24360578849E+02 -0.29273671650E+01  0.25046274965E+02  0.51100000000E-03 0. -1.
        -11    1    3    3    0    0  0.25336471777E+01 -0.14972031319E+01  0.25056816780E+01  0.38651553878E+01  0.51100000000E-03 0.  1.
         12    1    3    3    0    0 -0.69855367611E+01 -0.17533966774E+02 -0.24458409551E+00  0.18875845307E+02  0.00000000000E+00 0. -1.
</event>
<event>
 7    1  0.4675811E-010  0.4778727E+02  0.7816164E-02  0.1312668E+00
        -11   -1    0    0    0    0  0.00000000000E+00  0.00000000000E+00  0.45593999997E+02  0.45594000000E+02  0.51100000000E-03 0.  1.
         11   -1    0    0    0    0 -0.00000000000E+00 -0.00000000000E+00 -0.45593999997E+02  0.45594000000E+02  0.51100000000E-03 0. -1.
    9900012    2    1    2    0    0 -0.15173779456E+02  0.29943914605E+02 -0.27508935252E+02  0.47787272776E+02  0.20000007897E+02 0.  0.
        -12    1    1    2    0    0  0.15173779456E+02 -0.29943914605E+02  0.27508935252E+02  0.43400727224E+02  0.00000000000E+00 0.  1.
         11    1    3    3    0    0 -0.43062780916E+01  0.17019308029E+02 -0.23276757601E+02  0.29154902186E+02  0.51100000000E-03 0. -1.
        -11    1    3    3    0    0  0.66870642535E-01  0.25785829560E+01 -0.22993792313E+01  0.34555327887E+01  0.51100000000E-03 0.  1.
        -12    1    3    3    0    0 -0.10934372006E+02  0.10346023621E+02 -0.19327984191E+01  0.15176837802E+02  0.00000000000E+00 0.  1.
</event>
<event>
 7    1  0.4675811E-010  0.4778727E+02  0.7816164E-02  0.1312668E+00
        -11   -1    0    0    0    0  0.00000000000E+00  0.00000000000E+00  0.45593999997E+02  0.45594000000E+02  0.51100000000E-03 0.  1.
         11   -1    0    0    0    0 -0.00000000000E+00 -0.00000000000E+00 -0.45593999997E+02  0.45594000000E+02  0.51100000000E-03 0. -1.
    9900012    2    1    2    0    0  0.42010522444E+02  0.97490386702E+01  0.48678311523E+01  0.47787268081E+02  0.19999986488E+02 0.  0.
        -12    1    1    2    0    0 -0.42010522444E+02 -0.97490386702E+01 -0.48678311523E+01  0.43400731919E+02  0.00000000000E+00 0.  1.
         11    1    3    3    0    0  0.14241635789E+02  0.23404930569E+01  0.24720301962E+01  0.14642849151E+02  0.51100000000E-03 0. -1.
        -11    1    3    3    0    0  0.18854765216E+02 -0.28234005216E+01 -0.12095128725E+01  0.19103316034E+02  0.51100000000E-03 0.  1.
         12    1    3    3    0    0  0.89141214391E+01  0.10231946135E+02  0.36053138286E+01  0.14041102896E+02  0.00000000000E+00 0. -1.
</event>
<event>
 7    1  0.4675811E-010  0.4778727E+02  0.7816164E-02  0.1312668E+00
        -11   -1    0    0    0    0  0.00000000000E+00  0.00000000000E+00  0.45593999997E+02  0.45594000000E+02  0.51100000000E-03 0. -1.
         11   -1    0    0    0    0 -0.00000000000E+00 -0.00000000000E+00 -0.45593999997E+02  0.45594000000E+02  0.51100000000E-03 0.  1.
    9900012    2    1    2    0    0 -0.23392754417E+01 -0.13408733356E+01  0.43316894337E+02  0.47787268602E+02  0.19999988863E+02 0.  0.
        -12    1    1    2    0    0  0.23392754417E+01  0.13408733356E+01 -0.43316894337E+02  0.43400731398E+02  0.00000000000E+00 0.  1.
         11    1    3    3    0    0  0.78161594483E+01 -0.33824273084E+00  0.21418731181E+02  0.22802824438E+02  0.51100000000E-03 0. -1.
        -11    1    3    3    0    0 -0.16703305607E+01  0.64338771007E+00  0.42887993488E+00  0.18406222282E+01  0.51100000000E-03 0.  1.
         12    1    3    3    0    0 -0.84851043293E+01 -0.16460183149E+01  0.21469283221E+02  0.23143821936E+02  0.00000000000E+00 0. -1.
</event>
<event>
 7    1  0.4675811E-010  0.4778726E+02  0.7816164E-02  0.1312668E+00
        -11   -1    0    0    0    0  0.00000000000E+00  0.00000000000E+00  0.45593999997E+02  0.45594000000E+02  0.51100000000E-03 0. -1.
         11   -1    0    0    0    0 -0.00000000000E+00 -0.00000000000E+00 -0.45593999997E+02  0.45594000000E+02  0.51100000000E-03 0.  1.
    9900012    2    1    2    0    0  0.56049164505E+01  0.42787511104E+02 -0.46301680803E+01  0.47787255175E+02  0.19999927644E+02 0.  0.
        -12    1    1    2    0    0 -0.56049164505E+01 -0.42787511104E+02  0.46301680803E+01  0.43400744825E+02  0.00000000000E+00 0.  1.
         11    1    3    3    0    0  0.32633149092E+01  0.13767011698E+02  0.96261134928E+00  0.14181200801E+02  0.51100000000E-03 0. -1.
        -11    1    3    3    0    0 -0.20642489983E+01  0.26001746943E+02 -0.86149818185E+01  0.27469435379E+02  0.51100000000E-03 0.  1.
        -12    1    3    3    0    0  0.44058505396E+01  0.30187524632E+01  0.30222023889E+01  0.61366189951E+01  0.00000000000E+00 0.  1.
</event>
<event>
 7    1  0.4675811E-010  0.4778727E+02  0.7816164E-02  0.1312668E+00
        -11   -1    0    0    0    0  0.00000000000E+00  0.00000000000E+00  0.45593999997E+02  0.45594000000E+02  0.51100000000E-03 0.  1.
         11   -1    0    0    0    0 -0.00000000000E+00 -0.00000000000E+00 -0.45593999997E+02  0.45594000000E+02  0.51100000000E-03 0. -1.
    9900012    2    1    2    0    0 -0.17577306933E+02 -0.57263038372E+01 -0.39266668950E+02  0.47787267689E+02  0.19999984703E+02 0.  0.
        -12    1    1    2    0    0  0.17577306933E+02  0.57263038372E+01  0.39266668950E+02  0.43400732311E+02  0.00000000000E+00 0.  1.
         11    1    3    3    0    0 -0.63758668924E+01 -0.37913005000E+01 -0.10181420733E+02  0.12597101512E+02  0.51100000000E-03 0. -1.
        -11    1    3    3    0    0 -0.13873814067E+02 -0.48594440037E+01 -0.26928289787E+02  0.30679467139E+02  0.51100000000E-03 0.  1.
        -12    1    3    3    0    0  0.26723740260E+01  0.29244406664E+01 -0.21569584301E+01  0.45106990385E+01  0.00000000000E+00 0.  1.
</event>
<event>
 7    1  0.4675811E-010  0.4778725E+02  0.7816164E-02  0.1312668E+00
        -11   -1    0    0    0    0  0.00000000000E+00  0.00000000000E+00  0.45593999997E+02  0.45594000000E+02  0.51100000000E-03 0.  1.
         11   -1    0    0    0    0 -0.00000000000E+00 -0.00000000000E+00 -0.45593999997E+02  0.45594000000E+02  0.51100000000E-03 0. -1.
    9900012    2    1    2    0    0 -0.11576945829E+02  0.33583723654E+00 -0.41826867382E+02  0.47787247744E+02  0.19999893765E+02 0.  0.
        -12    1    1    2    0    0  0.11576945829E+02 -0.33583723654E+00  0.41826867382E+02  0.43400752256E+02  0.00000000000E+00 0.  1.
         11    1    3    3    0    0 -0.10959755509E+02 -0.17690711172E+01 -0.19372701073E+02  0.22328175039E+02  0.51100000000E-03 0. -1.
        -11    1    3    3    0    0 -0.99726561452E+00 -0.15225617641E+01  0.75105409956E+00  0.19689630654E+01  0.51100000000E-03 0.  1.
         12    1    3    3    0    0  0.38007529454E+00  0.36274701178E+01 -0.23205220409E+02  0.23490109640E+02  0.00000000000E+00 0. -1.
</event>
<event>
 7    1  0.4675811E-010  0.4778727E+02  0.7816164E-02  0.1312668E+00
        -11   -1    0    0    0    0  0.00000000000E+00  0.00000000000E+00  0.45593999997E+02  0.45594000000E+02  0.51100000000E-03 0.  1.
         11   -1    0    0    0    0 -0.00000000000E+00 -0.00000000000E+00 -0.45593999997E+02  0.45594000000E+02  0.51100000000E-03 0. -1.
    9900012    2    1    2    0    0 -0.44022814840E+01  0.37811738728E+02 -0.20845037968E+02  0.47787271022E+02  0.19999999899E+02 0.  0.
        -12    1    1    2    0    0  0.44022814840E+01 -0.37811738728E+02  0.20845037968E+02  0.43400728978E+02  0.00000000000E+00 0.  1.
         11    1    3    3    0    0 -0.12041251388E+01  0.32370294492E+01 -0.85967946343E+00  0.35591187176E+01  0.51100000000E-03 0. -1.
        -11    1    3    3    0    0  0.23156026779E+01  0.31480201944E+02 -0.11389211339E+02  0.33557104544E+02  0.51100000000E-03 0.  1.
        -12    1    3    3    0    0 -0.55137590231E+01  0.30945073350E+01 -0.85961471660E+01  0.10671047761E+02  0.00000000000E+00 0.  1.
</event>
<event>
 7    1  0.4675811E-010  0.4778728E+02  0.7816164E-02  0.1312668E+00
        -11   -1    0    0    0    0  0.00000000000E+00  0.00000000000E+00  0.45593999997E+02  0.45594000000E+02  0.51100000000E-03 0.  1.
         11   -1    0    0    0    0 -0.00000000000E+00 -0.00000000000E+00 -0.45593999997E+02  0.45594000000E+02  0.51100000000E-03 0. -1.
    9900012    2    1    2    0    0  0.11815080729E+02 -0.17176922195E+02 -0.38065470668E+02  0.47787275975E+02  0.20000022481E+02 0.  0.
        -12    1    1    2    0    0 -0.11815080729E+02  0.17176922195E+02  0.38065470668E+02  0.43400724025E+02  0.00000000000E+00 0.  1.
         11    1    3    3    0    0  0.70808424176E+01 -0.10411592536E+02 -0.13148220677E+02  0.18204815180E+02  0.51100000000E-03 0. -1.
        -11    1    3    3    0    0  0.65769771209E+00 -0.15954743168E+01  0.15433046306E+01  0.23151444922E+01  0.51100000000E-03 0.  1.
         12    1    3    3    0    0  0.40765405989E+01 -0.51698553420E+01 -0.26460554621E+02  0.27267316303E+02  0.00000000000E+00 0. -1.
</event>
<event>
 7    1  0.4675811E-010  0.4778727E+02  0.7816164E-02  0.1312668E+00
        -11   -1    0    0    0    0  0.00000000000E+00  0.00000000000E+00  0.45593999997E+02  0.45594000000E+02  0.51100000000E-03 0.  1.
         11   -1    0    0    0    0 -0.00000000000E+00 -0.00000000000E+00 -0.45593999997E+02  0.45594000000E+02  0.51100000000E-03 0. -1.
    9900012    2    1    2    0    0  0.19122804627E+02 -0.38610567524E+02 -0.52120416660E+01  0.47787274665E+02  0.20000016506E+02 0.  0.
        -12    1    1    2    0    0 -0.19122804627E+02  0.38610567524E+02  0.52120416660E+01  0.43400725335E+02  0.00000000000E+00 0.  1.
         11    1    3    3    0    0  0.14408447720E+02 -0.20983404465E+02  0.67873603029E+00  0.25463057780E+02  0.51100000000E-03 0. -1.
        -11    1    3    3    0    0  0.31257365148E+01 -0.62467728306E+00 -0.40423660142E+01  0.51479290712E+01  0.51100000000E-03 0.  1.
        -12    1    3    3    0    0  0.15886203919E+01 -0.17002485776E+02 -0.18484116821E+01  0.17176287813E+02  0.00000000000E+00 0.  1.
</event>
<event>
 7    1  0.4675811E-010  0.4778727E+02  0.7816164E-02  0.1312668E+00
        -11   -1    0    0    0    0  0.00000000000E+00  0.00000000000E+00  0.45593999997E+02  0.45594000000E+02  0.51100000000E-03 0. -1.
         11   -1    0    0    0    0 -0.00000000000E+00 -0.00000000000E+00 -0.45593999997E+02  0.45594000000E+02  0.51100000000E-03 0.  1.
    9900012    2    1    2    0    0  0.37777422399E+02  0.19797193094E+02  0.80349627730E+01  0.47787272768E+02  0.20000007860E+02 0.  0.
        -12    1    1    2    0    0 -0.37777422399E+02 -0.19797193094E+02 -0.80349627730E+01  0.43400727232E+02  0.00000000000E+00 0.  1.
         11    1    3    3    0    0  0.18825381471E+02  0.17691897520E+02  0.99183505172E+01  0.27672583953E+02  0.51100000000E-03 0. -1.
        -11    1    3    3    0    0  0.96883180683E+01  0.35732582917E+01  0.80529569472E+00  0.10357614746E+02  0.51100000000E-03 0.  1.
        -12    1    3    3    0    0  0.92637228594E+01 -0.14679627181E+01 -0.26886834390E+01  0.97570740692E+01  0.00000000000E+00 0.  1.
</event>
<event>
 7    1  0.4675811E-010  0.4778727E+02  0.7816164E-02  0.1312668E+00
        -11   -1    0    0    0    0  0.00000000000E+00  0.00000000000E+00  0.45593999997E+02  0.45594000000E+02  0.51100000000E-03 0. -1.
         11   -1    0    0    0    0 -0.00000000000E+00 -0.00000000000E+00 -0.45593999997E+02  0.45594000000E+02  0.51100000000E-03 0.  1.
    9900012    2    1    2    0    0 -0.35017502818E+02  0.25315591362E+02  0.40643471774E+01  0.47787267430E+02  0.19999983521E+02 0.  0.
        -12    1    1    2    0    0  0.35017502818E+02 -0.25315591362E+02 -0.40643471774E+01  0.43400732570E+02  0.00000000000E+00 0.  1.
         11    1    3    3    0    0 -0.13689166877E+02  0.10140811576E+02 -0.34436615307E+01  0.17380683364E+02  0.51100000000E-03 0. -1.
        -11    1    3    3    0    0 -0.89591375320E+01  0.14021635336E+02  0.18045570064E+01  0.16737049593E+02  0.51100000000E-03 0.  1.
         12    1    3    3    0    0 -0.12369198409E+02  0.11531444500E+01  0.57034517017E+01  0.13669534473E+02  0.00000000000E+00 0. -1.
</event>
<event>
 7    1  0.4675811E-010  0.4778728E+02  0.7816164E-02  0.1312668E+00
        -11   -1    0    0    0    0  0.00000000000E+00  0.00000000000E+00  0.45593999997E+02  0.45594000000E+02  0.51100000000E-03 0.  1.
         11   -1    0    0    0    0 -0.00000000000E+00 -0.00000000000E+00 -0.45593999997E+02  0.45594000000E+02  0.51100000000E-03 0. -1.
    9900012    2    1    2    0    0 -0.11206412463E+02  0.36911959714E+02 -0.19888343708E+02  0.47787278051E+02  0.20000031946E+02 0.  0.
        -12    1    1    2    0    0  0.11206412463E+02 -0.36911959714E+02  0.19888343708E+02  0.43400721949E+02  0.00000000000E+00 0.  1.
         11    1    3    3    0    0  0.33662400868E+01  0.12535926378E+02 -0.83449078833E+01  0.15431089084E+02  0.51100000000E-03 0. -1.
        -11    1    3    3    0    0 -0.15591115426E+01 -0.87847790685E+00 -0.10181310252E+01  0.20589179879E+01  0.51100000000E-03 0.  1.
         12    1    3    3    0    0 -0.13013541007E+02  0.25254511243E+02 -0.10525304800E+02  0.30297270979E+02  0.00000000000E+00 0. -1.
</event>
<event>
 7    1  0.4675811E-010  0.4778727E+02  0.7816164E-02  0.1312668E+00
        -11   -1    0    0    0    0  0.00000000000E+00  0.00000000000E+00  0.45593999997E+02  0.45594000000E+02  0.51100000000E-03 0.  1.
         11   -1    0    0    0    0 -0.00000000000E+00 -0.00000000000E+00 -0.45593999997E+02  0.45594000000E+02  0.51100000000E-03 0. -1.
    9900012    2    1    2    0    0  0.39931320947E+02  0.16968712946E+02 -0.10842580780E+01  0.47787271583E+02  0.20000002454E+02 0.  0.
        -12    1    1    2    0    0 -0.39931320947E+02 -0.16968712946E+02  0.10842580780E+01  0.43400728417E+02  0.00000000000E+00 0.  1.
         11    1    3    3    0    0  0.98147954064E+01  0.75712504535E+01 -0.81558743738E+01  0.14838205059E+02  0.51100000000E-03 0. -1.
        -11    1    3    3    0    0  0.91514737259E+01  0.52126410623E+01  0.34648312966E+00  0.10537606418E+02  0.51100000000E-03 0.  1.
        -12    1    3    3    0    0  0.20965051814E+02  0.41848214303E+01  0.67251331662E+01  0.22411460106E+02  0.00000000000E+00 0.  1.
</event>
<event>
 7    1  0.4675811E-010  0.4778727E+02  0.7816164E-02  0.1312668E+00
        -11   -1    0    0    0    0  0.00000000000E+00  0.00000000000E+00  0.45593999997E+02  0.45594000000E+02  0.51100000000E-03 0.  1.
         11   -1    0    0    0    0 -0.00000000000E+00 -0.00000000000E+00 -0.45593999997E+02  0.45594000000E+02  0.51100000000E-03 0. -1.
    9900012    2    1    2    0    0  0.98534767288E+01 -0.40069932228E+02 -0.13451126243E+02  0.47787271094E+02  0.20000000224E+02 0.  0.
        -12    1    1    2    0    0 -0.98534767288E+01  0.40069932228E+02  0.13451126243E+02  0.43400728906E+02  0.00000000000E+00 0.  1.
         11    1    3    3    0    0 -0.14289531874E+01  0.44058131601E+00  0.10214311862E+01  0.18108950927E+01  0.51100000000E-03 0. -1.
        -11    1    3    3    0    0  0.59404185009E+01 -0.52168150308E+01 -0.33666893011E+01  0.85929231431E+01  0.51100000000E-03 0.  1.
         12    1    3    3    0    0  0.53420114153E+01 -0.35293698513E+02 -0.11105868128E+02  0.37383452858E+02  0.00000000000E+00 0. -1.
</event>
<event>
 7    1  0.4675811E-010  0.4778727E+02  0.7816164E-02  0.1312668E+00
        -11   -1    0    0    0    0  0.00000000000E+00  0.00000000000E+00  0.45593999997E+02  0.45594000000E+02  0.51100000000E-03 0.  1.
         11   -1    0    0    0    0 -0.00000000000E+00 -0.00000000000E+00 -0.45593999997E+02  0.45594000000E+02  0.51100000000E-03 0. -1.
    9900012    2    1    2    0    0 -0.23596619025E+02 -0.92004159104E+01 -0.35244502619E+02  0.47787273656E+02  0.20000011907E+02 0.  0.
        -12    1    1    2    0    0  0.23596619025E+02  0.92004159104E+01  0.35244502619E+02  0.43400726344E+02  0.00000000000E+00 0.  1.
         11    1    3    3    0    0 -0.64100774203E+01  0.35783718657E+01 -0.35913063330E+01  0.81725956208E+01  0.51100000000E-03 0. -1.
        -11    1    3    3    0    0 -0.84556954334E+01 -0.66973535689E+01 -0.72612158200E+01  0.13003022169E+02  0.51100000000E-03 0.  1.
        -12    1    3    3    0    0 -0.87308461716E+01 -0.60814342072E+01 -0.24391980466E+02  0.26611655866E+02  0.00000000000E+00 0.  1.
</event>
<event>
 7    1  0.4675811E-010  0.4778727E+02  0.7816164E-02  0.1312668E+00
        -11   -1    0    0    0    0  0.00000000000E+00  0.00000000000E+00  0.45593999997E+02  0.45594000000E+02  0.51100000000E-03 0.  1.
         11   -1    0    0    0    0 -0.00000000000E+00 -0.00000000000E+00 -0.45593999997E+02  0.45594000000E+02  0.51100000000E-03 0. -1.
    9900012    2    1    2    0    0 -0.16496955246E+02  0.30085494865E+02 -0.26577002337E+02  0.47787267438E+02  0.19999983559E+02 0.  0.
        -12    1    1    2    0    0  0.16496955246E+02 -0.30085494865E+02  0.26577002337E+02  0.43400732562E+02  0.00000000000E+00 0.  1.
         11    1    3    3    0    0 -0.17818265647E+02  0.18320180605E+02 -0.18378858892E+02  0.31478596895E+02  0.51100000000E-03 0. -1.
        -11    1    3    3    0    0 -0.10612511510E+01 -0.74423415104E+00 -0.32272067887E+00  0.13357722017E+01  0.51100000000E-03 0.  1.
        -12    1    3    3    0    0  0.23825615519E+01  0.12509548411E+02 -0.78754227668E+01  0.14972898342E+02  0.00000000000E+00 0.  1.
</event>
<event>
 7    1  0.4675811E-010  0.4778727E+02  0.7816164E-02  0.1312668E+00
        -11   -1    0    0    0    0  0.00000000000E+00  0.00000000000E+00  0.45593999997E+02  0.45594000000E+02  0.51100000000E-03 0. -1.
         11   -1    0    0    0    0 -0.00000000000E+00 -0.00000000000E+00 -0.45593999997E+02  0.45594000000E+02  0.51100000000E-03 0.  1.
    9900012    2    1    2    0    0 -0.11327315843E+01 -0.41554344569E+02  0.12473041904E+02  0.47787269502E+02  0.19999992967E+02 0.  0.
        -12    1    1    2    0    0  0.11327315843E+01  0.41554344569E+02 -0.12473041904E+02  0.43400730498E+02  0.00000000000E+00 0.  1.
         11    1    3    3    0    0 -0.93004435030E+00 -0.20212253829E+02  0.76132276117E+01  0.21618543482E+02  0.51100000000E-03 0. -1.
        -11    1    3    3    0    0  0.42863910928E+01 -0.17000210331E+02  0.78915373498E+01  0.19226457342E+02  0.51100000000E-03 0.  1.
        -12    1    3    3    0    0 -0.44890783268E+01 -0.43418804090E+01 -0.30317230572E+01  0.69422686786E+01  0.00000000000E+00 0.  1.
</event>
<event>
 7    1  0.4675811E-010  0.4778727E+02  0.7816164E-02  0.1312668E+00
        -11   -1    0    0    0    0  0.00000000000E+00  0.00000000000E+00  0.45593999997E+02  0.45594000000E+02  0.51100000000E-03 0.  1.
         11   -1    0    0    0    0 -0.00000000000E+00 -0.00000000000E+00 -0.45593999997E+02  0.45594000000E+02  0.51100000000E-03 0. -1.
    9900012    2    1    2    0    0  0.15309334359E+02  0.13839217848E+02 -0.38180146682E+02  0.47787271092E+02  0.20000000215E+02 0.  0.
        -12    1    1    2    0    0 -0.15309334359E+02 -0.13839217848E+02  0.38180146682E+02  0.43400728908E+02  0.00000000000E+00 0.  1.
         11    1    3    3    0    0  0.84992491895E+01  0.18509710332E+01 -0.99063387786E+01  0.13183280275E+02  0.51100000000E-03 0. -1.
        -11    1    3    3    0    0 -0.11750076487E+01 -0.28282924694E+01 -0.34648535152E+01  0.46244017354E+01  0.51100000000E-03 0.  1.
        -12    1    3    3    0    0  0.79850928179E+01  0.14816539284E+02 -0.24808954388E+02  0.29979589081E+02  0.00000000000E+00 0.  1.
</event>
<event>
 7    1  0.4675811E-010  0.4778727E+02  0.7816164E-02  0.1312668E+00
        -11   -1    0    0    0    0  0.00000000000E+00  0.00000000000E+00  0.45593999997E+02  0.45594000000E+02  0.51100000000E-03 0.  1.
         11   -1    0    0    0    0 -0.00000000000E+00 -0.00000000000E+00 -0.45593999997E+02  0.45594000000E+02  0.51100000000E-03 0. -1.
    9900012    2    1    2    0    0 -0.16793405352E+02 -0.10650071969E+01 -0.40005883145E+02  0.47787269708E+02  0.19999993908E+02 0.  0.
        -12    1    1    2    0    0  0.16793405352E+02  0.10650071969E+01  0.40005883145E+02  0.43400730292E+02  0.00000000000E+00 0.  1.
         11    1    3    3    0    0 -0.71474798825E+01 -0.15364801318E+01 -0.19498915371E+02  0.20824383322E+02  0.51100000000E-03 0. -1.
        -11    1    3    3    0    0  0.21259050208E+00  0.15448877489E+00 -0.16196362610E+02  0.16198494485E+02  0.51100000000E-03 0.  1.
        -12    1    3    3    0    0 -0.98585159717E+01  0.31698415998E+00 -0.43106051638E+01  0.10764391901E+02  0.00000000000E+00 0.  1.
</event>
<event>
 7    1  0.4675811E-010  0.4778728E+02  0.7816164E-02  0.1312668E+00
        -11   -1    0    0    0    0  0.00000000000E+00  0.00000000000E+00  0.45593999997E+02  0.45594000000E+02  0.51100000000E-03 0.  1.
         11   -1    0    0    0    0 -0.00000000000E+00 -0.00000000000E+00 -0.45593999997E+02  0.45594000000E+02  0.51100000000E-03 0. -1.
    9900012    2    1    2    0    0 -0.49744127538E+01  0.23003690407E+02 -0.36465163535E+02  0.47787277585E+02  0.20000029820E+02 0.  0.
        -12    1    1    2    0    0  0.49744127538E+01 -0.23003690407E+02  0.36465163535E+02  0.43400722415E+02  0.00000000000E+00 0.  1.
         11    1    3    3    0    0 -0.34798287010E+01  0.91863369845E+01 -0.61848213730E+01  0.11608187225E+02  0.51100000000E-03 0. -1.
        -11    1    3    3    0    0  0.93622478414E+00  0.10704490455E+02 -0.76097505170E+01  0.13167039756E+02  0.51100000000E-03 0.  1.
         12    1    3    3    0    0 -0.24308088370E+01  0.31128629671E+01 -0.22670591644E+02  0.23012050603E+02  0.00000000000E+00 0. -1.
</event>
<event>
 7    1  0.4675811E-010  0.4778727E+02  0.7816164E-02  0.1312668E+00
        -11   -1    0    0    0    0  0.00000000000E+00  0.00000000000E+00  0.45593999997E+02  0.45594000000E+02  0.51100000000E-03 0.  1.
         11   -1    0    0    0    0 -0.00000000000E+00 -0.00000000000E+00 -0.45593999997E+02  0.45594000000E+02  0.51100000000E-03 0. -1.
    9900012    2    1    2    0    0 -0.29716507980E+02  0.15641271185E+02 -0.27493696479E+02  0.47787267784E+02  0.19999985135E+02 0.  0.
        -12    1    1    2    0    0  0.29716507980E+02 -0.15641271185E+02  0.27493696479E+02  0.43400732216E+02  0.00000000000E+00 0.  1.
         11    1    3    3    0    0 -0.20980128884E+02  0.11137335798E+02 -0.13777937616E+02  0.27459745481E+02  0.51100000000E-03 0. -1.
        -11    1    3    3    0    0 -0.34394714062E+01  0.77258724028E+01 -0.57198795787E+01  0.10209607759E+02  0.51100000000E-03 0.  1.
         12    1    3    3    0    0 -0.52969076897E+01 -0.32219370149E+01 -0.79958792843E+01  0.10117914545E+02  0.00000000000E+00 0. -1.
</event>
<event>
 7    1  0.4675811E-010  0.4778727E+02  0.7816164E-02  0.1312668E+00
        -11   -1    0    0    0    0  0.00000000000E+00  0.00000000000E+00  0.45593999997E+02  0.45594000000E+02  0.51100000000E-03 0.  1.
         11   -1    0    0    0    0 -0.00000000000E+00 -0.00000000000E+00 -0.45593999997E+02  0.45594000000E+02  0.51100000000E-03 0. -1.
    9900012    2    1    2    0    0 -0.22284309409E+02  0.23715667478E+02 -0.28715852648E+02  0.47787268173E+02  0.19999986908E+02 0.  0.
        -12    1    1    2    0    0  0.22284309409E+02 -0.23715667478E+02  0.28715852648E+02  0.43400731827E+02  0.00000000000E+00 0.  1.
         11    1    3    3    0    0 -0.28238756070E+01  0.63780503422E+00 -0.70091251008E+00  0.29786485717E+01  0.51100000000E-03 0. -1.
        -11    1    3    3    0    0 -0.85203316441E+01  0.12520152517E+02 -0.28539387315E+01  0.15410880472E+02  0.51100000000E-03 0.  1.
         12    1    3    3    0    0 -0.10940102158E+02  0.10557709927E+02 -0.25161001407E+02  0.29397739130E+02  0.00000000000E+00 0. -1.
</event>
<event>
 7    1  0.4675811E-010  0.4778727E+02  0.7816164E-02  0.1312668E+00
        -11   -1    0    0    0    0  0.00000000000E+00  0.00000000000E+00  0.45593999997E+02  0.45594000000E+02  0.51100000000E-03 0.  1.
         11   -1    0    0    0    0 -0.00000000000E+00 -0.00000000000E+00 -0.45593999997E+02  0.45594000000E+02  0.51100000000E-03 0. -1.
    9900012    2    1    2    0    0 -0.53939355214E+01 -0.43053329723E+02  0.96918908585E+00  0.47787273414E+02  0.20000010805E+02 0.  0.
        -12    1    1    2    0    0  0.53939355214E+01  0.43053329723E+02 -0.96918908585E+00  0.43400726586E+02  0.00000000000E+00 0.  1.
         11    1    3    3    0    0  0.61059964195E+00 -0.31338305252E+02 -0.38051625333E+01  0.31574379964E+02  0.51100000000E-03 0.  1.
        -11    1    3    3    0    0 -0.54914672312E+01 -0.79554212887E+01 -0.54136213240E+00  0.96818393630E+01  0.51100000000E-03 0. -1.
        -12    1    3    3    0    0 -0.51306793211E+00 -0.37596031831E+01  0.53157137515E+01  0.65310540868E+01  0.00000000000E+00 0.  1.
</event>
<event>
 7    1  0.4675811E-010  0.4778725E+02  0.7816164E-02  0.1312668E+00
        -11   -1    0    0    0    0  0.00000000000E+00  0.00000000000E+00  0.45593999997E+02  0.45594000000E+02  0.51100000000E-03 0.  1.
         11   -1    0    0    0    0 -0.00000000000E+00 -0.00000000000E+00 -0.45593999997E+02  0.45594000000E+02  0.51100000000E-03 0. -1.
    9900012    2    1    2    0    0  0.32366034724E+02  0.15411782084E+02 -0.24465118921E+02  0.47787247995E+02  0.19999894907E+02 0.  0.
        -12    1    1    2    0    0 -0.32366034724E+02 -0.15411782084E+02  0.24465118921E+02  0.43400752005E+02  0.00000000000E+00 0.  1.
         11    1    3    3    0    0  0.44272229661E+01  0.23130815360E+01 -0.51879038682E-01  0.49953319289E+01  0.51100000000E-03 0. -1.
        -11    1    3    3    0    0  0.33419476131E+01  0.64889805187E+00  0.25319094103E+01  0.42426699204E+01  0.51100000000E-03 0.  1.
         12    1    3    3    0    0  0.24596864145E+02  0.12449802496E+02 -0.26945149293E+02  0.38549246145E+02  0.00000000000E+00 0. -1.
</event>
<event>
 7    1  0.4675811E-010  0.4778725E+02  0.7816164E-02  0.1312668E+00
        -11   -1    0    0    0    0  0.00000000000E+00  0.00000000000E+00  0.45593999997E+02  0.45594000000E+02  0.51100000000E-03 0.  1.
         11   -1    0    0    0    0 -0.00000000000E+00 -0.00000000000E+00 -0.45593999997E+02  0.45594000000E+02  0.51100000000E-03 0. -1.
    9900012    2    1    2    0    0 -0.19572043657E+02  0.16529321313E+02  0.35033434828E+02  0.47787252175E+02  0.19999913964E+02 0.  0.
        -12    1    1    2    0    0  0.19572043657E+02 -0.16529321313E+02 -0.35033434828E+02  0.43400747825E+02  0.00000000000E+00 0.  1.
         11    1    3    3    0    0  0.19686100023E+00  0.10531221879E+02  0.10193625083E+02  0.14657946006E+02  0.51100000000E-03 0. -1.
        -11    1    3    3    0    0 -0.29343735768E+01 -0.16199034107E+01  0.27923089323E+01  0.43625250467E+01  0.51100000000E-03 0.  1.
         12    1    3    3    0    0 -0.16834531081E+02  0.76180028443E+01  0.22047500813E+02  0.28766781122E+02  0.00000000000E+00 0. -1.
</event>
<event>
 7    1  0.4675811E-010  0.4778727E+02  0.7816164E-02  0.1312668E+00
        -11   -1    0    0    0    0  0.00000000000E+00  0.00000000000E+00  0.45593999997E+02  0.45594000000E+02  0.51100000000E-03 0.  1.
         11   -1    0    0    0    0 -0.00000000000E+00 -0.00000000000E+00 -0.45593999997E+02  0.45594000000E+02  0.51100000000E-03 0. -1.
    9900012    2    1    2    0    0 -0.35195924055E+02  0.60210110910E+01 -0.24670171829E+02  0.47787273937E+02  0.20000013190E+02 0.  0.
        -12    1    1    2    0    0  0.35195924055E+02 -0.60210110910E+01  0.24670171829E+02  0.43400726063E+02  0.00000000000E+00 0.  1.
         11    1    3    3    0    0 -0.71461293866E+01  0.44324197773E+01 -0.90039761781E+01  0.12320109479E+02  0.51100000000E-03 0. -1.
        -11    1    3    3    0    0 -0.75064728614E+01  0.70229520396E+01 -0.74000178538E+01  0.12666067056E+02  0.51100000000E-03 0.  1.
         12    1    3    3    0    0 -0.20543321807E+02 -0.54343607259E+01 -0.82661777976E+01  0.22801097403E+02  0.00000000000E+00 0. -1.
</event>
<event>
 7    1  0.4675811E-010  0.4778728E+02  0.7816164E-02  0.1312668E+00
        -11   -1    0    0    0    0  0.00000000000E+00  0.00000000000E+00  0.45593999997E+02  0.45594000000E+02  0.51100000000E-03 0.  1.
         11   -1    0    0    0    0 -0.00000000000E+00 -0.00000000000E+00 -0.45593999997E+02  0.45594000000E+02  0.51100000000E-03 0. -1.
    9900012    2    1    2    0    0 -0.24935776373E+02 -0.35509396279E+02  0.95531939673E+00  0.47787276474E+02  0.20000024755E+02 0.  0.
        -12    1    1    2    0    0  0.24935776373E+02  0.35509396279E+02 -0.95531939673E+00  0.43400723526E+02  0.00000000000E+00 0.  1.
         11    1    3    3    0    0 -0.30761266857E+00 -0.46001586587E+01  0.16460147441E+01  0.48954519749E+01  0.51100000000E-03 0. -1.
        -11    1    3    3    0    0 -0.21193435243E+02 -0.28150434422E+02  0.51129512679E+01  0.35605490117E+02  0.51100000000E-03 0.  1.
        -12    1    3    3    0    0 -0.34347284614E+01 -0.27588031987E+01 -0.58036466153E+01  0.72863343821E+01  0.00000000000E+00 0.  1.
</event>
<event>
 7    1  0.4675811E-010  0.4778727E+02  0.7816164E-02  0.1312668E+00
        -11   -1    0    0    0    0  0.00000000000E+00  0.00000000000E+00  0.45593999997E+02  0.45594000000E+02  0.51100000000E-03 0.  1.
         11   -1    0    0    0    0 -0.00000000000E+00 -0.00000000000E+00 -0.45593999997E+02  0.45594000000E+02  0.51100000000E-03 0. -1.
    9900012    2    1    2    0    0  0.39341314602E+02 -0.13111730413E+01 -0.18280194826E+02  0.47787265764E+02  0.19999975924E+02 0.  0.
        -12    1    1    2    0    0 -0.39341314602E+02  0.13111730413E+01  0.18280194826E+02  0.43400734236E+02  0.00000000000E+00 0.  1.
         11    1    3    3    0    0  0.10592594431E+02 -0.42538384495E+01 -0.50725912170E+01  0.12491172093E+02  0.51100000000E-03 0.  1.
        -11    1    3    3    0    0 -0.33553214083E-01 -0.47740732070E+00  0.23511899166E+01  0.23994036453E+01  0.51100000000E-03 0. -1.
         12    1    3    3    0    0  0.28782273385E+02  0.34200727289E+01 -0.15558793525E+02  0.32896690026E+02  0.00000000000E+00 0. -1.
</event>
<event>
 7    1  0.4675811E-010  0.4778727E+02  0.7816164E-02  0.1312668E+00
        -11   -1    0    0    0    0  0.00000000000E+00  0.00000000000E+00  0.45593999997E+02  0.45594000000E+02  0.51100000000E-03 0. -1.
         11   -1    0    0    0    0 -0.00000000000E+00 -0.00000000000E+00 -0.45593999997E+02  0.45594000000E+02  0.51100000000E-03 0.  1.
    9900012    2    1    2    0    0 -0.35858719897E+02  0.10066367178E+02 -0.22281023264E+02  0.47787267996E+02  0.19999986101E+02 0.  0.
        -12    1    1    2    0    0  0.35858719897E+02 -0.10066367178E+02  0.22281023264E+02  0.43400732004E+02  0.00000000000E+00 0.  1.
         11    1    3    3    0    0 -0.69462604583E+01  0.12291656463E+00  0.80876255966E+00  0.69942647917E+01  0.51100000000E-03 0. -1.
        -11    1    3    3    0    0  0.62711412102E+00 -0.17358341035E+01 -0.15928971151E+01  0.24379732640E+01  0.51100000000E-03 0.  1.
        -12    1    3    3    0    0 -0.29539573559E+02  0.11679284717E+02 -0.21496888709E+02  0.38355029940E+02  0.00000000000E+00 0.  1.
</event>
<event>
 7    1  0.4675811E-010  0.4778727E+02  0.7816164E-02  0.1312668E+00
        -11   -1    0    0    0    0  0.00000000000E+00  0.00000000000E+00  0.45593999997E+02  0.45594000000E+02  0.51100000000E-03 0.  1.
         11   -1    0    0    0    0 -0.00000000000E+00 -0.00000000000E+00 -0.45593999997E+02  0.45594000000E+02  0.51100000000E-03 0. -1.
    9900012    2    1    2    0    0  0.73405170210E+01 -0.12031688457E+02 -0.41048491963E+02  0.47787269480E+02  0.19999992866E+02 0.  0.
        -12    1    1    2    0    0 -0.73405170210E+01  0.12031688457E+02  0.41048491963E+02  0.43400730520E+02  0.00000000000E+00 0.  1.
         11    1    3    3    0    0  0.15555727831E+01  0.26759143128E+01 -0.29802291477E+01  0.42967534403E+01  0.51100000000E-03 0. -1.
        -11    1    3    3    0    0 -0.73412881647E+00  0.24982601177E+01 -0.40415985651E+01  0.48077820206E+01  0.51100000000E-03 0.  1.
         12    1    3    3    0    0  0.65190730544E+01 -0.17205862888E+02 -0.34026664250E+02  0.38682734019E+02  0.00000000000E+00 0. -1.
</event>
<event>
 7    1  0.4675811E-010  0.4778727E+02  0.7816164E-02  0.1312668E+00
        -11   -1    0    0    0    0  0.00000000000E+00  0.00000000000E+00  0.45593999997E+02  0.45594000000E+02  0.51100000000E-03 0.  1.
         11   -1    0    0    0    0 -0.00000000000E+00 -0.00000000000E+00 -0.45593999997E+02  0.45594000000E+02  0.51100000000E-03 0. -1.
    9900012    2    1    2    0    0  0.91809478252E+01 -0.37126662789E+02 -0.20516933054E+02  0.47787269191E+02  0.19999991548E+02 0.  0.
        -12    1    1    2    0    0 -0.91809478252E+01  0.37126662789E+02  0.20516933054E+02  0.43400730809E+02  0.00000000000E+00 0.  1.
         11    1    3    3    0    0  0.72531401345E+01 -0.21539179573E+02 -0.17265360161E+02  0.28541845775E+02  0.51100000000E-03 0. -1.
        -11    1    3    3    0    0  0.53999203703E+01 -0.43965685899E+01 -0.28421830063E+01  0.75211009748E+01  0.51100000000E-03 0.  1.
        -12    1    3    3    0    0 -0.34721126797E+01 -0.11190914626E+02 -0.40938988756E+00  0.11724322441E+02  0.00000000000E+00 0.  1.
</event>
<event>
 7    1  0.4675811E-010  0.4778726E+02  0.7816164E-02  0.1312668E+00
        -11   -1    0    0    0    0  0.00000000000E+00  0.00000000000E+00  0.45593999997E+02  0.45594000000E+02  0.51100000000E-03 0. -1.
         11   -1    0    0    0    0 -0.00000000000E+00 -0.00000000000E+00 -0.45593999997E+02  0.45594000000E+02  0.51100000000E-03 0.  1.
    9900012    2    1    2    0    0 -0.16497805821E+02  0.96370594685E+01  0.38968878793E+02  0.47787262374E+02  0.19999960468E+02 0.  0.
        -12    1    1    2    0    0  0.16497805821E+02 -0.96370594685E+01 -0.38968878793E+02  0.43400737626E+02  0.00000000000E+00 0.  1.
         11    1    3    3    0    0 -0.53988705858E+01  0.89774517118E+00  0.43483483161E+01  0.69901275621E+01  0.51100000000E-03 0.  1.
        -11    1    3    3    0    0  0.36521626445E+00 -0.38795892198E+01  0.10974905085E+02  0.11646164060E+02  0.51100000000E-03 0. -1.
         12    1    3    3    0    0 -0.11464151500E+02  0.12618903517E+02  0.23645625392E+02  0.29150970752E+02  0.00000000000E+00 0. -1.
</event>
<event>
 7    1  0.4675811E-010  0.4778727E+02  0.7816164E-02  0.1312668E+00
        -11   -1    0    0    0    0  0.00000000000E+00  0.00000000000E+00  0.45593999997E+02  0.45594000000E+02  0.51100000000E-03 0.  1.
         11   -1    0    0    0    0 -0.00000000000E+00 -0.00000000000E+00 -0.45593999997E+02  0.45594000000E+02  0.51100000000E-03 0. -1.
    9900012    2    1    2    0    0  0.15057900396E+02  0.16281370392E+01 -0.40672253307E+02  0.47787269781E+02  0.19999994237E+02 0.  0.
        -12    1    1    2    0    0 -0.15057900396E+02 -0.16281370392E+01  0.40672253307E+02  0.43400730219E+02  0.00000000000E+00 0.  1.
         11    1    3    3    0    0  0.47857700293E+00  0.29517851823E+01 -0.56652747375E+00  0.30435218662E+01  0.51100000000E-03 0. -1.
        -11    1    3    3    0    0 -0.14895844919E+01  0.27207696731E+01 -0.86713582132E+01  0.92094464054E+01  0.51100000000E-03 0.  1.
        -12    1    3    3    0    0  0.16068907884E+02 -0.40444178163E+01 -0.31434367620E+02  0.35534301509E+02  0.00000000000E+00 0.  1.
</event>
<event>
 7    1  0.4675811E-010  0.4778727E+02  0.7816164E-02  0.1312668E+00
        -11   -1    0    0    0    0  0.00000000000E+00  0.00000000000E+00  0.45593999997E+02  0.45594000000E+02  0.51100000000E-03 0.  1.
         11   -1    0    0    0    0 -0.00000000000E+00 -0.00000000000E+00 -0.45593999997E+02  0.45594000000E+02  0.51100000000E-03 0. -1.
    9900012    2    1    2    0    0 -0.31356874798E+02 -0.20210058875E+02 -0.22179344142E+02  0.47787269783E+02  0.19999994246E+02 0.  0.
        -12    1    1    2    0    0  0.31356874798E+02  0.20210058875E+02  0.22179344142E+02  0.43400730217E+02  0.00000000000E+00 0.  1.
         11    1    3    3    0    0 -0.16111019185E+02 -0.11777526458E+02 -0.18163076347E+02  0.26984669931E+02  0.51100000000E-03 0. -1.
        -11    1    3    3    0    0 -0.44547016725E+01  0.15098964976E+01 -0.39297654853E+01  0.61292096925E+01  0.51100000000E-03 0.  1.
        -12    1    3    3    0    0 -0.10791153940E+02 -0.99424289153E+01 -0.86502309377E-01  0.14673390159E+02  0.00000000000E+00 0.  1.
</event>
<event>
 7    1  0.4675811E-010  0.4778727E+02  0.7816164E-02  0.1312668E+00
        -11   -1    0    0    0    0  0.00000000000E+00  0.00000000000E+00  0.45593999997E+02  0.45594000000E+02  0.51100000000E-03 0.  1.
         11   -1    0    0    0    0 -0.00000000000E+00 -0.00000000000E+00 -0.45593999997E+02  0.45594000000E+02  0.51100000000E-03 0. -1.
    9900012    2    1    2    0    0  0.93020886148E+01 -0.11976951735E+02 -0.40665059788E+02  0.47787270593E+02  0.19999997942E+02 0.  0.
        -12    1    1    2    0    0 -0.93020886148E+01  0.11976951735E+02  0.40665059788E+02  0.43400729407E+02  0.00000000000E+00 0.  1.
         11    1    3    3    0    0  0.98946664489E+01 -0.42178832267E+01 -0.20039996554E+02  0.22744151451E+02  0.51100000000E-03 0. -1.
        -11    1    3    3    0    0  0.39035766282E+01 -0.86241853437E+00 -0.15869763509E+01  0.43011824444E+01  0.51100000000E-03 0.  1.
         12    1    3    3    0    0 -0.44961544622E+01 -0.68966499742E+01 -0.19038086883E+02  0.20741936698E+02  0.00000000000E+00 0. -1.
</event>
<event>
 7    1  0.4675811E-010  0.4778727E+02  0.7816164E-02  0.1312668E+00
        -11   -1    0    0    0    0  0.00000000000E+00  0.00000000000E+00  0.45593999997E+02  0.45594000000E+02  0.51100000000E-03 0.  1.
         11   -1    0    0    0    0 -0.00000000000E+00 -0.00000000000E+00 -0.45593999997E+02  0.45594000000E+02  0.51100000000E-03 0. -1.
    9900012    2    1    2    0    0 -0.93670021509E+00  0.40456608213E+02 -0.15684670894E+02  0.47787268941E+02  0.19999990411E+02 0.  0.
        -12    1    1    2    0    0  0.93670021509E+00 -0.40456608213E+02  0.15684670894E+02  0.43400731059E+02  0.00000000000E+00 0.  1.
         11    1    3    3    0    0  0.48664531061E+01  0.63773012062E+01 -0.76096182132E-01  0.80223517374E+01  0.51100000000E-03 0. -1.
        -11    1    3    3    0    0 -0.20643054810E+00  0.88224976411E+00  0.16881541328E+01  0.19159443767E+01  0.51100000000E-03 0.  1.
         12    1    3    3    0    0 -0.55967227731E+01  0.33197057242E+02 -0.17296728845E+02  0.37848972827E+02  0.00000000000E+00 0. -1.
</event>
<event>
 7    1  0.4675811E-010  0.4778727E+02  0.7816164E-02  0.1312668E+00
        -11   -1    0    0    0    0  0.00000000000E+00  0.00000000000E+00  0.45593999997E+02  0.45594000000E+02  0.51100000000E-03 0.  1.
         11   -1    0    0    0    0 -0.00000000000E+00 -0.00000000000E+00 -0.45593999997E+02  0.45594000000E+02  0.51100000000E-03 0. -1.
    9900012    2    1    2    0    0  0.17589059293E+02  0.23582375426E+02 -0.31907989657E+02  0.47787271418E+02  0.20000001701E+02 0.  0.
        -12    1    1    2    0    0 -0.17589059293E+02 -0.23582375426E+02  0.31907989657E+02  0.43400728582E+02  0.00000000000E+00 0.  1.
         11    1    3    3    0    0  0.13805981803E+02  0.11359762961E+02 -0.28214081290E+02  0.33401852215E+02  0.51100000000E-03 0. -1.
        -11    1    3    3    0    0 -0.60048573678E+00  0.33029616053E+00 -0.13245754267E+01  0.14913681624E+01  0.51100000000E-03 0.  1.
        -12    1    3    3    0    0  0.43835632258E+01  0.11892316304E+02 -0.23693329398E+01  0.12894051040E+02  0.00000000000E+00 0.  1.
</event>
<event>
 7    1  0.4675811E-010  0.4778727E+02  0.7816164E-02  0.1312668E+00
        -11   -1    0    0    0    0  0.00000000000E+00  0.00000000000E+00  0.45593999997E+02  0.45594000000E+02  0.51100000000E-03 0. -1.
         11   -1    0    0    0    0 -0.00000000000E+00 -0.00000000000E+00 -0.45593999997E+02  0.45594000000E+02  0.51100000000E-03 0.  1.
    9900012    2    1    2    0    0 -0.10075296444E+02 -0.26596460864E+02  0.32783232697E+02  0.47787266423E+02  0.19999978928E+02 0.  0.
        -12    1    1    2    0    0  0.10075296444E+02  0.26596460864E+02 -0.32783232697E+02  0.43400733577E+02  0.00000000000E+00 0.  1.
         11    1    3    3    0    0 -0.83187920041E+00 -0.49118454505E+01  0.24631570157E+01  0.55574626835E+01  0.51100000000E-03 0. -1.
        -11    1    3    3    0    0  0.50502283583E+01 -0.30984565688E+01  0.67997758303E+01  0.90189905856E+01  0.51100000000E-03 0.  1.
        -12    1    3    3    0    0 -0.14293645602E+02 -0.18586158845E+02  0.23520299851E+02  0.33210813154E+02  0.00000000000E+00 0.  1.
</event>
<event>
 7    1  0.4675811E-010  0.4778727E+02  0.7816164E-02  0.1312668E+00
        -11   -1    0    0    0    0  0.00000000000E+00  0.00000000000E+00  0.45593999997E+02  0.45594000000E+02  0.51100000000E-03 0. -1.
         11   -1    0    0    0    0 -0.00000000000E+00 -0.00000000000E+00 -0.45593999997E+02  0.45594000000E+02  0.51100000000E-03 0.  1.
    9900012    2    1    2    0    0 -0.26484543253E+02 -0.33850402647E+02 -0.60285122704E+01  0.47787265549E+02  0.19999974943E+02 0.  0.
        -12    1    1    2    0    0  0.26484543253E+02  0.33850402647E+02  0.60285122704E+01  0.43400734451E+02  0.00000000000E+00 0.  1.
         11    1    3    3    0    0 -0.14268093974E+02 -0.27681126090E+02 -0.20251866334E+01  0.31207765514E+02  0.51100000000E-03 0. -1.
        -11    1    3    3    0    0  0.11867389914E+01 -0.13222508643E+01 -0.90505283284E+00  0.19939452533E+01  0.51100000000E-03 0.  1.
        -12    1    3    3    0    0 -0.13403188271E+02 -0.48470256933E+01 -0.30982728041E+01  0.14585554781E+02  0.00000000000E+00 0.  1.
</event>
<event>
 7    1  0.4675811E-010  0.4778727E+02  0.7816164E-02  0.1312668E+00
        -11   -1    0    0    0    0  0.00000000000E+00  0.00000000000E+00  0.45593999997E+02  0.45594000000E+02  0.51100000000E-03 0.  1.
         11   -1    0    0    0    0 -0.00000000000E+00 -0.00000000000E+00 -0.45593999997E+02  0.45594000000E+02  0.51100000000E-03 0. -1.
    9900012    2    1    2    0    0  0.16573047464E+02 -0.38549031027E+01 -0.39926141789E+02  0.47787274449E+02  0.20000015524E+02 0.  0.
        -12    1    1    2    0    0 -0.16573047464E+02  0.38549031027E+01  0.39926141789E+02  0.43400725551E+02  0.00000000000E+00 0.  1.
         11    1    3    3    0    0  0.18021790312E+02  0.46009187661E+00 -0.27410465581E+02  0.32807472231E+02  0.51100000000E-03 0. -1.
        -11    1    3    3    0    0  0.26373184459E+01 -0.28471605726E+01 -0.55677157554E+01  0.67868424842E+01  0.51100000000E-03 0.  1.
        -12    1    3    3    0    0 -0.40860612940E+01 -0.14678344068E+01 -0.69479604527E+01  0.81929597336E+01  0.00000000000E+00 0.  1.
</event>
<event>
 7    1  0.4675811E-010  0.4778728E+02  0.7816164E-02  0.1312668E+00
        -11   -1    0    0    0    0  0.00000000000E+00  0.00000000000E+00  0.45593999997E+02  0.45594000000E+02  0.51100000000E-03 0.  1.
         11   -1    0    0    0    0 -0.00000000000E+00 -0.00000000000E+00 -0.45593999997E+02  0.45594000000E+02  0.51100000000E-03 0. -1.
    9900012    2    1    2    0    0 -0.33434508556E+02  0.17273811216E+02 -0.21618785281E+02  0.47787276581E+02  0.20000025241E+02 0.  0.
        -12    1    1    2    0    0  0.33434508556E+02 -0.17273811216E+02  0.21618785281E+02  0.43400723419E+02  0.00000000000E+00 0.  1.
         11    1    3    3    0    0  0.50669603116E+00  0.18143362781E+01 -0.17120296924E+00  0.18915252353E+01  0.51100000000E-03 0. -1.
        -11    1    3    3    0    0 -0.64099049044E+01  0.78628971934E+01 -0.12219704176E+02  0.15881851390E+02  0.51100000000E-03 0.  1.
         12    1    3    3    0    0 -0.27531299683E+02  0.75965777448E+01 -0.92278781358E+01  0.30013899955E+02  0.00000000000E+00 0. -1.
</event>
<event>
 7    1  0.4675811E-010  0.4778728E+02  0.7816164E-02  0.1312668E+00
        -11   -1    0    0    0    0  0.00000000000E+00  0.00000000000E+00  0.45593999997E+02  0.45594000000E+02  0.51100000000E-03 0.  1.
         11   -1    0    0    0    0 -0.00000000000E+00 -0.00000000000E+00 -0.45593999997E+02  0.45594000000E+02  0.51100000000E-03 0. -1.
    9900012    2    1    2    0    0 -0.72003466634E+01 -0.31844001642E+02 -0.28596107526E+02  0.47787276524E+02  0.20000024983E+02 0.  0.
        -12    1    1    2    0    0  0.72003466634E+01  0.31844001642E+02  0.28596107526E+02  0.43400723476E+02  0.00000000000E+00 0.  1.
         11    1    3    3    0    0 -0.21190313700E+01 -0.11143646239E+02 -0.12418240681E+02  0.16819151207E+02  0.51100000000E-03 0. -1.
        -11    1    3    3    0    0 -0.49091758754E+01 -0.19842704382E+02 -0.67894201683E+01  0.21539014635E+02  0.51100000000E-03 0.  1.
         12    1    3    3    0    0 -0.17213941800E+00 -0.85765102067E+00 -0.93884466767E+01  0.94291106820E+01  0.00000000000E+00 0. -1.
</event>
<event>
 7    1  0.4675811E-010  0.4778728E+02  0.7816164E-02  0.1312668E+00
        -11   -1    0    0    0    0  0.00000000000E+00  0.00000000000E+00  0.45593999997E+02  0.45594000000E+02  0.51100000000E-03 0.  1.
         11   -1    0    0    0    0 -0.00000000000E+00 -0.00000000000E+00 -0.45593999997E+02  0.45594000000E+02  0.51100000000E-03 0. -1.
    9900012    2    1    2    0    0  0.26746243699E+02  0.18605730050E+02 -0.28672071685E+02  0.47787280680E+02  0.20000043935E+02 0.  0.
        -12    1    1    2    0    0 -0.26746243699E+02 -0.18605730050E+02  0.28672071685E+02  0.43400719320E+02  0.00000000000E+00 0.  1.
         11    1    3    3    0    0 -0.55990861427E+00  0.17793346131E+01 -0.55123173726E+00  0.19450928027E+01  0.51100000000E-03 0. -1.
        -11    1    3    3    0    0  0.94384039709E+01  0.41895964090E+01 -0.19982713285E+02  0.22493221603E+02  0.51100000000E-03 0.  1.
         12    1    3    3    0    0  0.17867748343E+02  0.12636799028E+02 -0.81381266628E+01  0.23348966275E+02  0.00000000000E+00 0. -1.
</event>
<event>
 7    1  0.4675811E-010  0.4778727E+02  0.7816164E-02  0.1312668E+00
        -11   -1    0    0    0    0  0.00000000000E+00  0.00000000000E+00  0.45593999997E+02  0.45594000000E+02  0.51100000000E-03 0.  1.
         11   -1    0    0    0    0 -0.00000000000E+00 -0.00000000000E+00 -0.45593999997E+02  0.45594000000E+02  0.51100000000E-03 0. -1.
    9900012    2    1    2    0    0  0.36776186673E+02  0.22469047163E+02 -0.51261517241E+01  0.47787269383E+02  0.19999992423E+02 0.  0.
        -12    1    1    2    0    0 -0.36776186673E+02 -0.22469047163E+02  0.51261517241E+01  0.43400730617E+02  0.00000000000E+00 0.  1.
         11    1    3    3    0    0  0.16914844057E+02  0.41760838415E+01 -0.72161362973E+01  0.18858002255E+02  0.51100000000E-03 0. -1.
        -11    1    3    3    0    0  0.88026846811E+01  0.28739538855E+01 -0.21053688456E+01  0.94962859460E+01  0.51100000000E-03 0.  1.
         12    1    3    3    0    0  0.11058657935E+02  0.15419009436E+02  0.41953534188E+01  0.19432981182E+02  0.00000000000E+00 0. -1.
</event>
<event>
 7    1  0.4675811E-010  0.4778726E+02  0.7816164E-02  0.1312668E+00
        -11   -1    0    0    0    0  0.00000000000E+00  0.00000000000E+00  0.45593999997E+02  0.45594000000E+02  0.51100000000E-03 0.  1.
         11   -1    0    0    0    0 -0.00000000000E+00 -0.00000000000E+00 -0.45593999997E+02  0.45594000000E+02  0.51100000000E-03 0. -1.
    9900012    2    1    2    0    0 -0.28092109661E+02 -0.83689947431E+01 -0.32006523278E+02  0.47787260023E+02  0.19999949748E+02 0.  0.
        -12    1    1    2    0    0  0.28092109661E+02  0.83689947431E+01  0.32006523278E+02  0.43400739977E+02  0.00000000000E+00 0.  1.
         11    1    3    3    0    0  0.40144892273E+00 -0.33756201543E+00 -0.38258702914E+01  0.38616567817E+01  0.51100000000E-03 0. -1.
        -11    1    3    3    0    0 -0.29308892580E+01  0.40056303969E+01 -0.71461913368E+01  0.87007607485E+01  0.51100000000E-03 0.  1.
         12    1    3    3    0    0 -0.25562669326E+02 -0.12037063125E+02 -0.21034461650E+02  0.35224842493E+02  0.00000000000E+00 0. -1.
</event>
<event>
 7    1  0.4675811E-010  0.4778726E+02  0.7816164E-02  0.1312668E+00
        -11   -1    0    0    0    0  0.00000000000E+00  0.00000000000E+00  0.45593999997E+02  0.45594000000E+02  0.51100000000E-03 0. -1.
         11   -1    0    0    0    0 -0.00000000000E+00 -0.00000000000E+00 -0.45593999997E+02  0.45594000000E+02  0.51100000000E-03 0.  1.
    9900012    2    1    2    0    0  0.37781933094E+02 -0.10346958893E+02 -0.18683948502E+02  0.47787263160E+02  0.19999964052E+02 0.  0.
        -12    1    1    2    0    0 -0.37781933094E+02  0.10346958893E+02  0.18683948502E+02  0.43400736840E+02  0.00000000000E+00 0.  1.
         11    1    3    3    0    0  0.35359076406E+00 -0.33956924739E+01 -0.11665265599E+01  0.36078439935E+01  0.51100000000E-03 0. -1.
        -11    1    3    3    0    0  0.15149734967E+01  0.26327107973E+01 -0.30163998935E+01  0.42807685544E+01  0.51100000000E-03 0.  1.
         12    1    3    3    0    0  0.35913368833E+02 -0.95839772160E+01 -0.14501022048E+02  0.39898650612E+02  0.00000000000E+00 0. -1.
</event>
<event>
 7    1  0.4675811E-010  0.4778727E+02  0.7816164E-02  0.1312668E+00
        -11   -1    0    0    0    0  0.00000000000E+00  0.00000000000E+00  0.45593999997E+02  0.45594000000E+02  0.51100000000E-03 0. -1.
         11   -1    0    0    0    0 -0.00000000000E+00 -0.00000000000E+00 -0.45593999997E+02  0.45594000000E+02  0.51100000000E-03 0.  1.
    9900012    2    1    2    0    0 -0.29008506417E+02 -0.31841166663E+02  0.53169704278E+01  0.47787268283E+02  0.19999987411E+02 0.  0.
        -12    1    1    2    0    0  0.29008506417E+02  0.31841166663E+02 -0.53169704278E+01  0.43400731717E+02  0.00000000000E+00 0.  1.
         11    1    3    3    0    0 -0.39601279953E+01 -0.65736773423E+00  0.45272262105E+01  0.60506630628E+01  0.51100000000E-03 0. -1.
        -11    1    3    3    0    0 -0.54615000453E+01 -0.19438222773E+01 -0.26514915973E+01  0.63747027963E+01  0.51100000000E-03 0.  1.
        -12    1    3    3    0    0 -0.19586878377E+02 -0.29239976651E+02  0.34412358146E+01  0.35361902424E+02  0.00000000000E+00 0.  1.
</event>
<event>
 7    1  0.4675811E-010  0.4778727E+02  0.7816164E-02  0.1312668E+00
        -11   -1    0    0    0    0  0.00000000000E+00  0.00000000000E+00  0.45593999997E+02  0.45594000000E+02  0.51100000000E-03 0.  1.
         11   -1    0    0    0    0 -0.00000000000E+00 -0.00000000000E+00 -0.45593999997E+02  0.45594000000E+02  0.51100000000E-03 0. -1.
    9900012    2    1    2    0    0 -0.95229221668E+01 -0.37016488426E+02 -0.20560078724E+02  0.47787270754E+02  0.19999998674E+02 0.  0.
        -12    1    1    2    0    0  0.95229221668E+01  0.37016488426E+02  0.20560078724E+02  0.43400729246E+02  0.00000000000E+00 0.  1.
         11    1    3    3    0    0 -0.72285344010E+01 -0.13720888017E+02 -0.11046903367E+02  0.19040707756E+02  0.51100000000E-03 0. -1.
        -11    1    3    3    0    0  0.21630204680E+01 -0.15024383858E+02 -0.11621294668E+02  0.19117145652E+02  0.51100000000E-03 0.  1.
         12    1    3    3    0    0 -0.44574082339E+01 -0.82712165504E+01  0.21081193112E+01  0.96294173457E+01  0.00000000000E+00 0. -1.
</event>
<event>
 7    1  0.4675811E-010  0.4778729E+02  0.7816164E-02  0.1312668E+00
        -11   -1    0    0    0    0  0.00000000000E+00  0.00000000000E+00  0.45593999997E+02  0.45594000000E+02  0.51100000000E-03 0. -1.
         11   -1    0    0    0    0 -0.00000000000E+00 -0.00000000000E+00 -0.45593999997E+02  0.45594000000E+02  0.51100000000E-03 0.  1.
    9900012    2    1    2    0    0  0.30398390533E+01 -0.16419082100E+02  0.40059885189E+02  0.47787294018E+02  0.20000104743E+02 0.  0.
        -12    1    1    2    0    0 -0.30398390533E+01  0.16419082100E+02 -0.40059885189E+02  0.43400705982E+02  0.00000000000E+00 0.  1.
         11    1    3    3    0    0  0.10764264712E+01 -0.63867861118E+00  0.77629265989E+01  0.78631821776E+01  0.51100000000E-03 0. -1.
        -11    1    3    3    0    0 -0.96053257201E+00 -0.19055411127E+02  0.26221367960E+02  0.32428250862E+02  0.51100000000E-03 0.  1.
        -12    1    3    3    0    0  0.29239451541E+01  0.32750076385E+01  0.60755906298E+01  0.74958609777E+01  0.00000000000E+00 0.  1.
</event>
<event>
 7    1  0.4675811E-010  0.4778728E+02  0.7816164E-02  0.1312668E+00
        -11   -1    0    0    0    0  0.00000000000E+00  0.00000000000E+00  0.45593999997E+02  0.45594000000E+02  0.51100000000E-03 0.  1.
         11   -1    0    0    0    0 -0.00000000000E+00 -0.00000000000E+00 -0.45593999997E+02  0.45594000000E+02  0.51100000000E-03 0. -1.
    9900012    2    1    2    0    0 -0.28068933572E+02  0.36024639264E+01 -0.32905622588E+02  0.47787276779E+02  0.20000026146E+02 0.  0.
        -12    1    1    2    0    0  0.28068933572E+02 -0.36024639264E+01  0.32905622588E+02  0.43400723221E+02  0.00000000000E+00 0.  1.
         11    1    3    3    0    0 -0.49693914711E+01 -0.31340611780E+01 -0.39337458292E+01  0.70704701096E+01  0.51100000000E-03 0. -1.
        -11    1    3    3    0    0 -0.61869049165E+01  0.17193862459E+01  0.42227861674E+00  0.64352467707E+01  0.51100000000E-03 0.  1.
         12    1    3    3    0    0 -0.16912637184E+02  0.50171388585E+01 -0.29394155375E+02  0.34281559899E+02  0.00000000000E+00 0. -1.
</event>
<event>
 7    1  0.4675811E-010  0.4778727E+02  0.7816164E-02  0.1312668E+00
        -11   -1    0    0    0    0  0.00000000000E+00  0.00000000000E+00  0.45593999997E+02  0.45594000000E+02  0.51100000000E-03 0.  1.
         11   -1    0    0    0    0 -0.00000000000E+00 -0.00000000000E+00 -0.45593999997E+02  0.45594000000E+02  0.51100000000E-03 0. -1.
    9900012    2    1    2    0    0 -0.40950991124E+02 -0.55626025941E+01 -0.13255093060E+02  0.47787265978E+02  0.19999976898E+02 0.  0.
        -12    1    1    2    0    0  0.40950991124E+02  0.55626025941E+01  0.13255093060E+02  0.43400734022E+02  0.00000000000E+00 0.  1.
         11    1    3    3    0    0 -0.29276896955E+02 -0.61782668907E+01 -0.45157813397E+01  0.30260534669E+02  0.51100000000E-03 0. -1.
        -11    1    3    3    0    0 -0.41580160806E+01 -0.26477102620E+01  0.75340051754E+00  0.49866902810E+01  0.51100000000E-03 0.  1.
        -12    1    3    3    0    0 -0.75160780888E+01  0.32633745585E+01 -0.94927122382E+01  0.12540041028E+02  0.00000000000E+00 0.  1.
</event>
<event>
 7    1  0.4675811E-010  0.4778725E+02  0.7816164E-02  0.1312668E+00
        -11   -1    0    0    0    0  0.00000000000E+00  0.00000000000E+00  0.45593999997E+02  0.45594000000E+02  0.51100000000E-03 0.  1.
         11   -1    0    0    0    0 -0.00000000000E+00 -0.00000000000E+00 -0.45593999997E+02  0.45594000000E+02  0.51100000000E-03 0. -1.
    9900012    2    1    2    0    0 -0.37987383095E+02 -0.14169634642E+02 -0.15485661355E+02  0.47787245076E+02  0.19999881601E+02 0.  0.
        -12    1    1    2    0    0  0.37987383095E+02  0.14169634642E+02  0.15485661355E+02  0.43400754924E+02  0.00000000000E+00 0.  1.
         11    1    3    3    0    0 -0.11785121434E+02 -0.65335534703E+01 -0.42794635854E+01  0.14138253676E+02  0.51100000000E-03 0. -1.
        -11    1    3    3    0    0 -0.83339624057E+01 -0.10464479890E+02 -0.69023036519E+01  0.15053307434E+02  0.51100000000E-03 0.  1.
         12    1    3    3    0    0 -0.17868299255E+02  0.28283987179E+01 -0.43038941180E+01  0.18595683966E+02  0.00000000000E+00 0. -1.
</event>
<event>
 7    1  0.4675811E-010  0.4778727E+02  0.7816164E-02  0.1312668E+00
        -11   -1    0    0    0    0  0.00000000000E+00  0.00000000000E+00  0.45593999997E+02  0.45594000000E+02  0.51100000000E-03 0. -1.
         11   -1    0    0    0    0 -0.00000000000E+00 -0.00000000000E+00 -0.45593999997E+02  0.45594000000E+02  0.51100000000E-03 0.  1.
    9900012    2    1    2    0    0  0.37560265469E+02  0.13940053145E+02  0.16689060757E+02  0.47787269905E+02  0.19999994806E+02 0.  0.
        -12    1    1    2    0    0 -0.37560265469E+02 -0.13940053145E+02 -0.16689060757E+02  0.43400730095E+02  0.00000000000E+00 0.  1.
         11    1    3    3    0    0  0.12457694642E+02  0.57527267989E+01  0.11207688385E+02  0.17717231742E+02  0.51100000000E-03 0. -1.
        -11    1    3    3    0    0  0.24603071056E+02  0.75097187237E+01  0.12481531723E+01  0.25753929163E+02  0.51100000000E-03 0.  1.
         12    1    3    3    0    0  0.49949977136E+00  0.67760762216E+00  0.42332191996E+01  0.43161090004E+01  0.00000000000E+00 0. -1.
</event>
<event>
 7    1  0.4675811E-010  0.4778727E+02  0.7816164E-02  0.1312668E+00
        -11   -1    0    0    0    0  0.00000000000E+00  0.00000000000E+00  0.45593999997E+02  0.45594000000E+02  0.51100000000E-03 0. -1.
         11   -1    0    0    0    0 -0.00000000000E+00 -0.00000000000E+00 -0.45593999997E+02  0.45594000000E+02  0.51100000000E-03 0.  1.
    9900012    2    1    2    0    0 -0.26489997306E+02  0.21878206278E+02  0.26518813444E+02  0.47787270355E+02  0.19999996857E+02 0.  0.
        -12    1    1    2    0    0  0.26489997306E+02 -0.21878206278E+02 -0.26518813444E+02  0.43400729645E+02  0.00000000000E+00 0.  1.
         11    1    3    3    0    0 -0.15596307296E+01  0.71693502209E+01  0.70603468443E+01  0.10182363597E+02  0.51100000000E-03 0. -1.
        -11    1    3    3    0    0 -0.17623022731E+02  0.16669318541E+02  0.17103588626E+02  0.29681136348E+02  0.51100000000E-03 0.  1.
        -12    1    3    3    0    0 -0.73073438460E+01 -0.19604624833E+01  0.23548779736E+01  0.79237704096E+01  0.00000000000E+00 0.  1.
</event>
<event>
 7    1  0.4675811E-010  0.4778727E+02  0.7816164E-02  0.1312668E+00
        -11   -1    0    0    0    0  0.00000000000E+00  0.00000000000E+00  0.45593999997E+02  0.45594000000E+02  0.51100000000E-03 0.  1.
         11   -1    0    0    0    0 -0.00000000000E+00 -0.00000000000E+00 -0.45593999997E+02  0.45594000000E+02  0.51100000000E-03 0. -1.
    9900012    2    1    2    0    0 -0.37928047171E+02  0.12849250718E+02 -0.16732705050E+02  0.47787269309E+02  0.19999992087E+02 0.  0.
        -12    1    1    2    0    0  0.37928047171E+02 -0.12849250718E+02  0.16732705050E+02  0.43400730691E+02  0.00000000000E+00 0.  1.
         11    1    3    3    0    0 -0.10742598046E+02  0.13059769761E+00 -0.11719613543E+02  0.15898736126E+02  0.51100000000E-03 0. -1.
        -11    1    3    3    0    0 -0.99291982468E+00  0.33077307754E+01  0.57531140587E+00  0.35011364063E+01  0.51100000000E-03 0.  1.
        -12    1    3    3    0    0 -0.26192529301E+02  0.94109222449E+01 -0.55884029127E+01  0.28387396777E+02  0.00000000000E+00 0.  1.
</event>
<event>
 7    1  0.4675811E-010  0.4778727E+02  0.7816164E-02  0.1312668E+00
        -11   -1    0    0    0    0  0.00000000000E+00  0.00000000000E+00  0.45593999997E+02  0.45594000000E+02  0.51100000000E-03 0.  1.
         11   -1    0    0    0    0 -0.00000000000E+00 -0.00000000000E+00 -0.45593999997E+02  0.45594000000E+02  0.51100000000E-03 0. -1.
    9900012    2    1    2    0    0 -0.27300135904E+02  0.87096889263E+01 -0.32595507449E+02  0.47787271810E+02  0.20000003489E+02 0.  0.
        -12    1    1    2    0    0  0.27300135904E+02 -0.87096889263E+01  0.32595507449E+02  0.43400728190E+02  0.00000000000E+00 0.  1.
         11    1    3    3    0    0 -0.74522302990E+01  0.28961110273E+01 -0.16510071570E+02  0.18344090575E+02  0.51100000000E-03 0. -1.
        -11    1    3    3    0    0 -0.16010147591E+02  0.75225987377E+00 -0.16594600030E+02  0.23071009324E+02  0.51100000000E-03 0.  1.
        -12    1    3    3    0    0 -0.38377580137E+01  0.50613180252E+01  0.50916415097E+00  0.63721719105E+01  0.00000000000E+00 0.  1.
</event>
<event>
 7    1  0.4675811E-010  0.4778728E+02  0.7816164E-02  0.1312668E+00
        -11   -1    0    0    0    0  0.00000000000E+00  0.00000000000E+00  0.45593999997E+02  0.45594000000E+02  0.51100000000E-03 0.  1.
         11   -1    0    0    0    0 -0.00000000000E+00 -0.00000000000E+00 -0.45593999997E+02  0.45594000000E+02  0.51100000000E-03 0. -1.
    9900012    2    1    2    0    0 -0.14850738118E+02 -0.28637424186E+02 -0.29034047222E+02  0.47787281287E+02  0.20000046702E+02 0.  0.
        -12    1    1    2    0    0  0.14850738118E+02  0.28637424186E+02  0.29034047222E+02  0.43400718713E+02  0.00000000000E+00 0.  1.
         11    1    3    3    0    0 -0.85763823257E+01 -0.10992572288E+02 -0.14630785663E+02  0.20210167458E+02  0.51100000000E-03 0. -1.
        -11    1    3    3    0    0  0.20474945250E+00 -0.40785914516E+01 -0.11581724102E+02  0.12280601125E+02  0.51100000000E-03 0.  1.
        -12    1    3    3    0    0 -0.64791052450E+01 -0.13566260447E+02 -0.28215374567E+01  0.15296512704E+02  0.00000000000E+00 0.  1.
</event>
<event>
 7    1  0.4675811E-010  0.4778727E+02  0.7816164E-02  0.1312668E+00
        -11   -1    0    0    0    0  0.00000000000E+00  0.00000000000E+00  0.45593999997E+02  0.45594000000E+02  0.51100000000E-03 0.  1.
         11   -1    0    0    0    0 -0.00000000000E+00 -0.00000000000E+00 -0.45593999997E+02  0.45594000000E+02  0.51100000000E-03 0. -1.
    9900012    2    1    2    0    0 -0.31014347924E+02 -0.29183796916E+02 -0.83689671850E+01  0.47787269692E+02  0.19999993833E+02 0.  0.
        -12    1    1    2    0    0  0.31014347924E+02  0.29183796916E+02  0.83689671850E+01  0.43400730308E+02  0.00000000000E+00 0.  1.
         11    1    3    3    0    0 -0.14198002453E+02 -0.10027670852E+02  0.54711132057E+01  0.18222802648E+02  0.51100000000E-03 0. -1.
        -11    1    3    3    0    0  0.43663265556E-01 -0.19958428404E+01 -0.16786535814E+01  0.26082893305E+01  0.51100000000E-03 0.  1.
        -12    1    3    3    0    0 -0.16860008736E+02 -0.17160283223E+02 -0.12161426809E+02  0.26956177713E+02  0.00000000000E+00 0.  1.
</event>
<event>
 7    1  0.4675811E-010  0.4778728E+02  0.7816164E-02  0.1312668E+00
        -11   -1    0    0    0    0  0.00000000000E+00  0.00000000000E+00  0.45593999997E+02  0.45594000000E+02  0.51100000000E-03 0.  1.
         11   -1    0    0    0    0 -0.00000000000E+00 -0.00000000000E+00 -0.45593999997E+02  0.45594000000E+02  0.51100000000E-03 0. -1.
    9900012    2    1    2    0    0 -0.26669940069E+02 -0.23855527373E+01 -0.34156199219E+02  0.47787279842E+02  0.20000040111E+02 0.  0.
        -12    1    1    2    0    0  0.26669940069E+02  0.23855527373E+01  0.34156199219E+02  0.43400720158E+02  0.00000000000E+00 0.  1.
         11    1    3    3    0    0 -0.16539046252E+02 -0.14682566160E+01 -0.15995434374E+02  0.23055362705E+02  0.51100000000E-03 0. -1.
        -11    1    3    3    0    0 -0.10216790326E+02 -0.52138598628E+01 -0.16563256936E+02  0.20147173990E+02  0.51100000000E-03 0.  1.
        -12    1    3    3    0    0  0.85896508211E-01  0.42965637415E+01 -0.15975079097E+01  0.45847431462E+01  0.00000000000E+00 0.  1.
</event>
<event>
 7    1  0.4675811E-010  0.4778727E+02  0.7816164E-02  0.1312668E+00
        -11   -1    0    0    0    0  0.00000000000E+00  0.00000000000E+00  0.45593999997E+02  0.45594000000E+02  0.51100000000E-03 0.  1.
         11   -1    0    0    0    0 -0.00000000000E+00 -0.00000000000E+00 -0.45593999997E+02  0.45594000000E+02  0.51100000000E-03 0. -1.
    9900012    2    1    2    0    0  0.36884935456E+02  0.13883654411E+02  0.18176061170E+02  0.47787268174E+02  0.19999986912E+02 0.  0.
        -12    1    1    2    0    0 -0.36884935456E+02 -0.13883654411E+02 -0.18176061170E+02  0.43400731826E+02  0.00000000000E+00 0.  1.
         11    1    3    3    0    0  0.79000409943E+01  0.16777417067E+01  0.27729478480E+01  0.85390107726E+01  0.51100000000E-03 0. -1.
        -11    1    3    3    0    0  0.67801927073E+01  0.69205308015E+01  0.13119716421E+02  0.16309252557E+02  0.51100000000E-03 0.  1.
         12    1    3    3    0    0  0.22204701754E+02  0.52853819025E+01  0.22833969008E+01  0.22939004845E+02  0.00000000000E+00 0. -1.
</event>
<event>
 7    1  0.4675811E-010  0.4778727E+02  0.7816164E-02  0.1312668E+00
        -11   -1    0    0    0    0  0.00000000000E+00  0.00000000000E+00  0.45593999997E+02  0.45594000000E+02  0.51100000000E-03 0.  1.
         11   -1    0    0    0    0 -0.00000000000E+00 -0.00000000000E+00 -0.45593999997E+02  0.45594000000E+02  0.51100000000E-03 0. -1.
    9900012    2    1    2    0    0  0.20267057179E+02 -0.23140201085E+02 -0.30617000636E+02  0.47787271424E+02  0.20000001731E+02 0.  0.
        -12    1    1    2    0    0 -0.20267057179E+02  0.23140201085E+02  0.30617000636E+02  0.43400728576E+02  0.00000000000E+00 0.  1.
         11    1    3    3    0    0  0.27380612224E+01  0.20299770785E+00  0.90315696489E+00  0.28903079579E+01  0.51100000000E-03 0. -1.
        -11    1    3    3    0    0  0.22377095337E+01 -0.10554240426E+02 -0.54747918205E+01  0.12098457780E+02  0.51100000000E-03 0.  1.
         12    1    3    3    0    0  0.15291286423E+02 -0.12788958367E+02 -0.26045365780E+02  0.32798505686E+02  0.00000000000E+00 0. -1.
</event>
<event>
 7    1  0.4675811E-010  0.4778729E+02  0.7816164E-02  0.1312668E+00
        -11   -1    0    0    0    0  0.00000000000E+00  0.00000000000E+00  0.45593999997E+02  0.45594000000E+02  0.51100000000E-03 0.  1.
         11   -1    0    0    0    0 -0.00000000000E+00 -0.00000000000E+00 -0.45593999997E+02  0.45594000000E+02  0.51100000000E-03 0. -1.
    9900012    2    1    2    0    0 -0.19849418251E+02  0.37756264569E+02 -0.80054106777E+01  0.47787291259E+02  0.20000092165E+02 0.  0.
        -12    1    1    2    0    0  0.19849418251E+02 -0.37756264569E+02  0.80054106777E+01  0.43400708741E+02  0.00000000000E+00 0.  1.
         11    1    3    3    0    0 -0.39013137826E+01  0.23697965295E+01 -0.70606386444E+01  0.84076633585E+01  0.51100000000E-03 0. -1.
        -11    1    3    3    0    0 -0.26498949704E+01  0.10448139456E+02 -0.25333006148E+01  0.11072631743E+02  0.51100000000E-03 0.  1.
         12    1    3    3    0    0 -0.13298209498E+02  0.24938328584E+02  0.15885285815E+01  0.28306996157E+02  0.00000000000E+00 0. -1.
</event>
<event>
 7    1  0.4675811E-010  0.4778727E+02  0.7816164E-02  0.1312668E+00
        -11   -1    0    0    0    0  0.00000000000E+00  0.00000000000E+00  0.45593999997E+02  0.45594000000E+02  0.51100000000E-03 0. -1.
         11   -1    0    0    0    0 -0.00000000000E+00 -0.00000000000E+00 -0.45593999997E+02  0.45594000000E+02  0.51100000000E-03 0.  1.
    9900012    2    1    2    0    0  0.18053358254E+02  0.18879052091E+02  0.34659501284E+02  0.47787269806E+02  0.19999994354E+02 0.  0.
        -12    1    1    2    0    0 -0.18053358254E+02 -0.18879052091E+02 -0.34659501284E+02  0.43400730194E+02  0.00000000000E+00 0.  1.
         11    1    3    3    0    0  0.11571116115E+02  0.56540028370E+01  0.86526389583E+01  0.15515367783E+02  0.51100000000E-03 0. -1.
        -11    1    3    3    0    0  0.38004962679E+01  0.14228604112E+02  0.15496399236E+02  0.21378384794E+02  0.51100000000E-03 0.  1.
         12    1    3    3    0    0  0.26817458716E+01 -0.10035548581E+01  0.10510463090E+02  0.10893517230E+02  0.00000000000E+00 0. -1.
</event>
<event>
 7    1  0.4675811E-010  0.4778727E+02  0.7816164E-02  0.1312668E+00
        -11   -1    0    0    0    0  0.00000000000E+00  0.00000000000E+00  0.45593999997E+02  0.45594000000E+02  0.51100000000E-03 0.  1.
         11   -1    0    0    0    0 -0.00000000000E+00 -0.00000000000E+00 -0.45593999997E+02  0.45594000000E+02  0.51100000000E-03 0. -1.
    9900012    2    1    2    0    0  0.88381801067E+01  0.72923574638E+01 -0.41860861365E+02  0.47787267066E+02  0.19999981863E+02 0.  0.
        -12    1    1    2    0    0 -0.88381801067E+01 -0.72923574638E+01  0.41860861365E+02  0.43400732934E+02  0.00000000000E+00 0.  1.
         11    1    3    3    0    0  0.95927601315E+01  0.32501250886E+01 -0.10580311924E+02  0.14646752565E+02  0.51100000000E-03 0. -1.
        -11    1    3    3    0    0 -0.25008031571E+00 -0.12016249689E+00  0.76917808017E+00  0.81768843095E+00  0.51100000000E-03 0.  1.
         12    1    3    3    0    0 -0.50449970911E+00  0.41623948721E+01 -0.32049727521E+02  0.32322826070E+02  0.00000000000E+00 0. -1.
</event>
<event>
 7    1  0.4675811E-010  0.4778727E+02  0.7816164E-02  0.1312668E+00
        -11   -1    0    0    0    0  0.00000000000E+00  0.00000000000E+00  0.45593999997E+02  0.45594000000E+02  0.51100000000E-03 0.  1.
         11   -1    0    0    0    0 -0.00000000000E+00 -0.00000000000E+00 -0.45593999997E+02  0.45594000000E+02  0.51100000000E-03 0. -1.
    9900012    2    1    2    0    0  0.17089325419E+02  0.15320987189E+02 -0.36835386266E+02  0.47787269902E+02  0.19999994790E+02 0.  0.
        -12    1    1    2    0    0 -0.17089325419E+02 -0.15320987189E+02  0.36835386266E+02  0.43400730098E+02  0.00000000000E+00 0.  1.
         11    1    3    3    0    0  0.61055710813E+01  0.77098978158E+01 -0.44307410521E+01  0.10786657920E+02  0.51100000000E-03 0.  1.
        -11    1    3    3    0    0  0.86736864215E+01  0.10763501126E+02 -0.23289603496E+02  0.27083046799E+02  0.51100000000E-03 0. -1.
        -12    1    3    3    0    0  0.23100679158E+01 -0.31524117534E+01 -0.91150417177E+01  0.99175651828E+01  0.00000000000E+00 0.  1.
</event>
<event>
 7    1  0.4675811E-010  0.4778727E+02  0.7816164E-02  0.1312668E+00
        -11   -1    0    0    0    0  0.00000000000E+00  0.00000000000E+00  0.45593999997E+02  0.45594000000E+02  0.51100000000E-03 0. -1.
         11   -1    0    0    0    0 -0.00000000000E+00 -0.00000000000E+00 -0.45593999997E+02  0.45594000000E+02  0.51100000000E-03 0.  1.
    9900012    2    1    2    0    0  0.11565256225E+02  0.41788255729E+02 -0.18998993216E+01  0.47787273210E+02  0.20000009875E+02 0.  0.
        -12    1    1    2    0    0 -0.11565256225E+02 -0.41788255729E+02  0.18998993216E+01  0.43400726790E+02  0.00000000000E+00 0.  1.
         11    1    3    3    0    0  0.33928222290E+01  0.10280307670E+02 -0.33098774864E+01  0.11320391234E+02  0.51100000000E-03 0. -1.
        -11    1    3    3    0    0 -0.45254561662E+01  0.13990740260E+02  0.18952494742E+01  0.14826076263E+02  0.51100000000E-03 0.  1.
        -12    1    3    3    0    0  0.12697890162E+02  0.17517207800E+02 -0.48527130942E+00  0.21640805713E+02  0.00000000000E+00 0.  1.
</event>
<event>
 7    1  0.4675811E-010  0.4778727E+02  0.7816164E-02  0.1312668E+00
        -11   -1    0    0    0    0  0.00000000000E+00  0.00000000000E+00  0.45593999997E+02  0.45594000000E+02  0.51100000000E-03 0. -1.
         11   -1    0    0    0    0 -0.00000000000E+00 -0.00000000000E+00 -0.45593999997E+02  0.45594000000E+02  0.51100000000E-03 0.  1.
    9900012    2    1    2    0    0  0.27758267092E+01  0.20772639953E+01  0.43262029965E+02  0.47787268713E+02  0.19999989368E+02 0.  0.
        -12    1    1    2    0    0 -0.27758267092E+01 -0.20772639953E+01 -0.43262029965E+02  0.43400731287E+02  0.00000000000E+00 0.  1.
         11    1    3    3    0    0  0.23617310031E+01  0.28110964817E+01  0.23245865709E+02  0.23534024509E+02  0.51100000000E-03 0. -1.
        -11    1    3    3    0    0 -0.52414937597E+01  0.57488948498E+00  0.16818610494E+02  0.17625816689E+02  0.51100000000E-03 0.  1.
        -12    1    3    3    0    0  0.56555894659E+01 -0.13087219714E+01  0.31975537622E+01  0.66274275150E+01  0.00000000000E+00 0.  1.
</event>
<event>
 7    1  0.4675811E-010  0.4778727E+02  0.7816164E-02  0.1312668E+00
        -11   -1    0    0    0    0  0.00000000000E+00  0.00000000000E+00  0.45593999997E+02  0.45594000000E+02  0.51100000000E-03 0.  1.
         11   -1    0    0    0    0 -0.00000000000E+00 -0.00000000000E+00 -0.45593999997E+02  0.45594000000E+02  0.51100000000E-03 0. -1.
    9900012    2    1    2    0    0 -0.22240319696E+02 -0.35921195162E+02 -0.99327586005E+01  0.47787265266E+02  0.19999973653E+02 0.  0.
        -12    1    1    2    0    0  0.22240319696E+02  0.35921195162E+02  0.99327586005E+01  0.43400734734E+02  0.00000000000E+00 0.  1.
         11    1    3    3    0    0 -0.13432597265E+02 -0.20121967121E+02 -0.14401904340E+02  0.28155693545E+02  0.51100000000E-03 0. -1.
        -11    1    3    3    0    0  0.90770370644E-01  0.51901124350E+00  0.17514562697E+00  0.55523705102E+00  0.51100000000E-03 0.  1.
        -12    1    3    3    0    0 -0.88984928014E+01 -0.16318239284E+02  0.42940001125E+01  0.19076334670E+02  0.00000000000E+00 0.  1.
</event>
<event>
 7    1  0.4675811E-010  0.4778727E+02  0.7816164E-02  0.1312668E+00
        -11   -1    0    0    0    0  0.00000000000E+00  0.00000000000E+00  0.45593999997E+02  0.45594000000E+02  0.51100000000E-03 0. -1.
         11   -1    0    0    0    0 -0.00000000000E+00 -0.00000000000E+00 -0.45593999997E+02  0.45594000000E+02  0.51100000000E-03 0.  1.
    9900012    2    1    2    0    0 -0.17004684058E+02  0.83225981074E+01  0.39053794220E+02  0.47787265419E+02  0.19999974352E+02 0.  0.
        -12    1    1    2    0    0  0.17004684058E+02 -0.83225981074E+01 -0.39053794220E+02  0.43400734581E+02  0.00000000000E+00 0.  1.
         11    1    3    3    0    0  0.10917414875E+01  0.47022350290E+01  0.10760428752E+02  0.11793631372E+02  0.51100000000E-03 0. -1.
        -11    1    3    3    0    0 -0.88627067336E+01  0.78290039397E+01  0.12381621805E+02  0.17121490359E+02  0.51100000000E-03 0.  1.
        -12    1    3    3    0    0 -0.92337188123E+01 -0.42086408613E+01  0.15911743662E+02  0.18872143688E+02  0.00000000000E+00 0.  1.
</event>
<event>
 7    1  0.4675811E-010  0.4778727E+02  0.7816164E-02  0.1312668E+00
        -11   -1    0    0    0    0  0.00000000000E+00  0.00000000000E+00  0.45593999997E+02  0.45594000000E+02  0.51100000000E-03 0.  1.
         11   -1    0    0    0    0 -0.00000000000E+00 -0.00000000000E+00 -0.45593999997E+02  0.45594000000E+02  0.51100000000E-03 0. -1.
    9900012    2    1    2    0    0  0.46700254275E+01 -0.38483851993E+02  0.19514281924E+02  0.47787271887E+02  0.20000003842E+02 0.  0.
        -12    1    1    2    0    0 -0.46700254275E+01  0.38483851993E+02 -0.19514281924E+02  0.43400728113E+02  0.00000000000E+00 0.  1.
         11    1    3    3    0    0  0.18346591480E+01 -0.57129595786E+01  0.10518852224E+01  0.60918260086E+01  0.51100000000E-03 0. -1.
        -11    1    3    3    0    0 -0.11483954428E+01 -0.31647422790E+02  0.11687365690E+02  0.33756076466E+02  0.51100000000E-03 0.  1.
         12    1    3    3    0    0  0.39837617223E+01 -0.11234696245E+01  0.67750310119E+01  0.79393694126E+01  0.00000000000E+00 0. -1.
</event>
<event>
 7    1  0.4675811E-010  0.4778728E+02  0.7816164E-02  0.1312668E+00
        -11   -1    0    0    0    0  0.00000000000E+00  0.00000000000E+00  0.45593999997E+02  0.45594000000E+02  0.51100000000E-03 0.  1.
         11   -1    0    0    0    0 -0.00000000000E+00 -0.00000000000E+00 -0.45593999997E+02  0.45594000000E+02  0.51100000000E-03 0. -1.
    9900012    2    1    2    0    0 -0.29421817341E+02 -0.28307158622E+02 -0.14720194871E+02  0.47787277633E+02  0.20000030042E+02 0.  0.
        -12    1    1    2    0    0  0.29421817341E+02  0.28307158622E+02  0.14720194871E+02  0.43400722367E+02  0.00000000000E+00 0.  1.
         11    1    3    3    0    0 -0.64578724459E+01 -0.10144237780E+02 -0.67659631811E+00  0.12044395357E+02  0.51100000000E-03 0. -1.
        -11    1    3    3    0    0 -0.14202776188E+00 -0.51851210217E+01  0.12821545704E+01  0.53431799986E+01  0.51100000000E-03 0.  1.
         12    1    3    3    0    0 -0.22821917133E+02 -0.12977799820E+02 -0.15325753123E+02  0.30399702278E+02  0.00000000000E+00 0. -1.
</event>
<event>
 7    1  0.4675811E-010  0.4778727E+02  0.7816164E-02  0.1312668E+00
        -11   -1    0    0    0    0  0.00000000000E+00  0.00000000000E+00  0.45593999997E+02  0.45594000000E+02  0.51100000000E-03 0.  1.
         11   -1    0    0    0    0 -0.00000000000E+00 -0.00000000000E+00 -0.45593999997E+02  0.45594000000E+02  0.51100000000E-03 0. -1.
    9900012    2    1    2    0    0 -0.14071206686E+00  0.42791823806E+02 -0.72431421916E+01  0.47787273124E+02  0.20000009483E+02 0.  0.
        -12    1    1    2    0    0  0.14071206686E+00 -0.42791823806E+02  0.72431421916E+01  0.43400726876E+02  0.00000000000E+00 0.  1.
         11    1    3    3    0    0 -0.24407544839E+01  0.11008251875E+02  0.32153195870E+01  0.11725065974E+02  0.51100000000E-03 0. -1.
        -11    1    3    3    0    0 -0.21919762894E+01  0.44676428865E+01  0.24162128647E+01  0.55319687167E+01  0.51100000000E-03 0.  1.
         12    1    3    3    0    0  0.44920187064E+01  0.27315929045E+02 -0.12874674643E+02  0.30530238433E+02  0.00000000000E+00 0. -1.
</event>
<event>
 7    1  0.4675811E-010  0.4778727E+02  0.7816164E-02  0.1312668E+00
        -11   -1    0    0    0    0  0.00000000000E+00  0.00000000000E+00  0.45593999997E+02  0.45594000000E+02  0.51100000000E-03 0.  1.
         11   -1    0    0    0    0 -0.00000000000E+00 -0.00000000000E+00 -0.45593999997E+02  0.45594000000E+02  0.51100000000E-03 0. -1.
    9900012    2    1    2    0    0 -0.30134375838E+02 -0.12613679924E+02 -0.28573369280E+02  0.47787274656E+02  0.20000016465E+02 0.  0.
        -12    1    1    2    0    0  0.30134375838E+02  0.12613679924E+02  0.28573369280E+02  0.43400725344E+02  0.00000000000E+00 0.  1.
         11    1    3    3    0    0 -0.55999508002E+01  0.56396676965E+00 -0.98138816913E+01  0.11313256896E+02  0.51100000000E-03 0. -1.
        -11    1    3    3    0    0 -0.65442262263E+01  0.15688993502E+01 -0.22876622670E+00  0.67335485681E+01  0.51100000000E-03 0.  1.
        -12    1    3    3    0    0 -0.17990198812E+02 -0.14746546044E+02 -0.18530721362E+02  0.29740469191E+02  0.00000000000E+00 0.  1.
</event>
<event>
 7    1  0.4675811E-010  0.4778728E+02  0.7816164E-02  0.1312668E+00
        -11   -1    0    0    0    0  0.00000000000E+00  0.00000000000E+00  0.45593999997E+02  0.45594000000E+02  0.51100000000E-03 0.  1.
         11   -1    0    0    0    0 -0.00000000000E+00 -0.00000000000E+00 -0.45593999997E+02  0.45594000000E+02  0.51100000000E-03 0. -1.
    9900012    2    1    2    0    0 -0.29576959782E+00 -0.33096330244E+02 -0.28074323790E+02  0.47787283283E+02  0.20000055801E+02 0.  0.
        -12    1    1    2    0    0  0.29576959782E+00  0.33096330244E+02  0.28074323790E+02  0.43400716717E+02  0.00000000000E+00 0.  1.
         11    1    3    3    0    0 -0.58488797923E+00 -0.16358386636E+02 -0.10807970611E+02  0.19615074210E+02  0.51100000000E-03 0. -1.
        -11    1    3    3    0    0  0.53384455879E+01 -0.13149070513E+02 -0.16753433850E+02  0.21956197364E+02  0.51100000000E-03 0.  1.
         12    1    3    3    0    0 -0.50493272065E+01 -0.35888730950E+01 -0.51291932923E+00  0.62160117091E+01  0.00000000000E+00 0. -1.
</event>
<event>
 7    1  0.4675811E-010  0.4778727E+02  0.7816164E-02  0.1312668E+00
        -11   -1    0    0    0    0  0.00000000000E+00  0.00000000000E+00  0.45593999997E+02  0.45594000000E+02  0.51100000000E-03 0. -1.
         11   -1    0    0    0    0 -0.00000000000E+00 -0.00000000000E+00 -0.45593999997E+02  0.45594000000E+02  0.51100000000E-03 0.  1.
    9900012    2    1    2    0    0 -0.29862036251E+02  0.13739469684E+02  0.28339176190E+02  0.47787272548E+02  0.20000006856E+02 0.  0.
        -12    1    1    2    0    0  0.29862036251E+02 -0.13739469684E+02 -0.28339176190E+02  0.43400727452E+02  0.00000000000E+00 0.  1.
         11    1    3    3    0    0 -0.13088731466E+01 -0.22163411215E+01  0.43640198511E+00  0.26107017896E+01  0.51100000000E-03 0. -1.
        -11    1    3    3    0    0  0.83088725238E+00 -0.70899749621E+00 -0.34094324723E+00  0.11442436955E+01  0.51100000000E-03 0.  1.
         12    1    3    3    0    0 -0.29384050356E+02  0.16664808302E+02  0.28243717452E+02  0.44032327063E+02  0.00000000000E+00 0. -1.
</event>
<event>
 7    1  0.4675811E-010  0.4778726E+02  0.7816164E-02  0.1312668E+00
        -11   -1    0    0    0    0  0.00000000000E+00  0.00000000000E+00  0.45593999997E+02  0.45594000000E+02  0.51100000000E-03 0.  1.
         11   -1    0    0    0    0 -0.00000000000E+00 -0.00000000000E+00 -0.45593999997E+02  0.45594000000E+02  0.51100000000E-03 0. -1.
    9900012    2    1    2    0    0  0.86233541651E+01 -0.10990571194E+02 -0.41090992215E+02  0.47787256533E+02  0.19999933838E+02 0.  0.
        -12    1    1    2    0    0 -0.86233541651E+01  0.10990571194E+02  0.41090992215E+02  0.43400743467E+02  0.00000000000E+00 0.  1.
         11    1    3    3    0    0  0.14103629484E+01  0.37722462289E+01 -0.69864727011E+01  0.80641035659E+01  0.51100000000E-03 0. -1.
        -11    1    3    3    0    0  0.88505949714E+01 -0.44645847060E+01 -0.15611656059E+02  0.18492954148E+02  0.51100000000E-03 0.  1.
         12    1    3    3    0    0 -0.16376037547E+01 -0.10298232717E+02 -0.18492863455E+02  0.21230198820E+02  0.00000000000E+00 0. -1.
</event>
<event>
 7    1  0.4675811E-010  0.4778727E+02  0.7816164E-02  0.1312668E+00
        -11   -1    0    0    0    0  0.00000000000E+00  0.00000000000E+00  0.45593999997E+02  0.45594000000E+02  0.51100000000E-03 0. -1.
         11   -1    0    0    0    0 -0.00000000000E+00 -0.00000000000E+00 -0.45593999997E+02  0.45594000000E+02  0.51100000000E-03 0.  1.
    9900012    2    1    2    0    0 -0.11883423355E+02  0.57482981623E+01  0.41344462192E+02  0.47787271476E+02  0.20000001970E+02 0.  0.
        -12    1    1    2    0    0  0.11883423355E+02 -0.57482981623E+01 -0.41344462192E+02  0.43400728524E+02  0.00000000000E+00 0.  1.
         11    1    3    3    0    0 -0.68270869509E+01  0.31240542647E+01  0.15631225606E+02  0.17340820209E+02  0.51100000000E-03 0. -1.
        -11    1    3    3    0    0 -0.24930873605E+01  0.87645019764E+01  0.10897620965E+02  0.14205285018E+02  0.51100000000E-03 0.  1.
        -12    1    3    3    0    0 -0.25632490432E+01 -0.61402580788E+01  0.14815615621E+02  0.16241166250E+02  0.00000000000E+00 0.  1.
</event>
<event>
 7    1  0.4675811E-010  0.4778727E+02  0.7816164E-02  0.1312668E+00
        -11   -1    0    0    0    0  0.00000000000E+00  0.00000000000E+00  0.45593999997E+02  0.45594000000E+02  0.51100000000E-03 0. -1.
         11   -1    0    0    0    0 -0.00000000000E+00 -0.00000000000E+00 -0.45593999997E+02  0.45594000000E+02  0.51100000000E-03 0.  1.
    9900012    2    1    2    0    0 -0.38381298700E+01 -0.43227902391E+02  0.49041989265E+00  0.47787270770E+02  0.19999998750E+02 0.  0.
        -12    1    1    2    0    0  0.38381298700E+01  0.43227902391E+02 -0.49041989265E+00  0.43400729230E+02  0.00000000000E+00 0.  1.
         11    1    3    3    0    0 -0.77895174577E+00 -0.13496675124E+02  0.76288154643E+01  0.15523074143E+02  0.51100000000E-03 0. -1.
        -11    1    3    3    0    0 -0.56291625103E+01 -0.10180638593E+02 -0.13377395285E+01  0.11709928268E+02  0.51100000000E-03 0.  1.
        -12    1    3    3    0    0  0.25699843861E+01 -0.19550588674E+02 -0.58006560431E+01  0.20554268359E+02  0.00000000000E+00 0.  1.
</event>
<event>
 7    1  0.4675811E-010  0.4778727E+02  0.7816164E-02  0.1312668E+00
        -11   -1    0    0    0    0  0.00000000000E+00  0.00000000000E+00  0.45593999997E+02  0.45594000000E+02  0.51100000000E-03 0.  1.
         11   -1    0    0    0    0 -0.00000000000E+00 -0.00000000000E+00 -0.45593999997E+02  0.45594000000E+02  0.51100000000E-03 0. -1.
    9900012    2    1    2    0    0  0.10021257497E+02 -0.62146565184E+01 -0.41768114514E+02  0.47787274804E+02  0.20000017141E+02 0.  0.
        -12    1    1    2    0    0 -0.10021257497E+02  0.62146565184E+01  0.41768114514E+02  0.43400725196E+02  0.00000000000E+00 0.  1.
         11    1    3    3    0    0 -0.17122964306E+01 -0.13706953988E+01 -0.15745134961E+02  0.15897170822E+02  0.51100000000E-03 0. -1.
        -11    1    3    3    0    0 -0.12968700077E+01 -0.45073336395E+01 -0.34443861707E+01  0.58190828065E+01  0.51100000000E-03 0.  1.
         12    1    3    3    0    0  0.13030423936E+02 -0.33662748005E+00 -0.22578593382E+02  0.26071021175E+02  0.00000000000E+00 0. -1.
</event>
<event>
 7    1  0.4675811E-010  0.4778727E+02  0.7816164E-02  0.1312668E+00
        -11   -1    0    0    0    0  0.00000000000E+00  0.00000000000E+00  0.45593999997E+02  0.45594000000E+02  0.51100000000E-03 0. -1.
         11   -1    0    0    0    0 -0.00000000000E+00 -0.00000000000E+00 -0.45593999997E+02  0.45594000000E+02  0.51100000000E-03 0.  1.
    9900012    2    1    2    0    0  0.20119911400E+02  0.32982876834E+02 -0.19772262382E+02  0.47787270067E+02  0.19999995542E+02 0.  0.
        -12    1    1    2    0    0 -0.20119911400E+02 -0.32982876834E+02  0.19772262382E+02  0.43400729933E+02  0.00000000000E+00 0.  1.
         11    1    3    3    0    0  0.28648708855E+00  0.86602685278E+00 -0.35131842158E+01  0.36296750484E+01  0.51100000000E-03 0. -1.
        -11    1    3    3    0    0  0.16668326972E+02  0.15574598201E+02 -0.14928440339E+02  0.27262787171E+02  0.51100000000E-03 0.  1.
         12    1    3    3    0    0  0.31650973403E+01  0.16542251781E+02 -0.13306378277E+01  0.16894807847E+02  0.00000000000E+00 0. -1.
</event>
<event>
 7    1  0.4675811E-010  0.4778727E+02  0.7816164E-02  0.1312668E+00
        -11   -1    0    0    0    0  0.00000000000E+00  0.00000000000E+00  0.45593999997E+02  0.45594000000E+02  0.51100000000E-03 0.  1.
         11   -1    0    0    0    0 -0.00000000000E+00 -0.00000000000E+00 -0.45593999997E+02  0.45594000000E+02  0.51100000000E-03 0. -1.
    9900012    2    1    2    0    0  0.19953578224E+02  0.93880228772E+01 -0.37381050507E+02  0.47787271959E+02  0.20000004168E+02 0.  0.
        -12    1    1    2    0    0 -0.19953578224E+02 -0.93880228772E+01  0.37381050507E+02  0.43400728041E+02  0.00000000000E+00 0.  1.
         11    1    3    3    0    0  0.20324373645E+02  0.10386962697E+02 -0.33289942610E+02  0.40363218868E+02  0.51100000000E-03 0.  1.
        -11    1    3    3    0    0  0.13690635336E+01 -0.21133366085E+00 -0.50855424630E+01  0.52708385746E+01  0.51100000000E-03 0. -1.
        -12    1    3    3    0    0 -0.17398589547E+01 -0.78760615930E+00  0.99443456614E+00  0.21532145157E+01  0.00000000000E+00 0.  1.
</event>
<event>
 7    1  0.4675811E-010  0.4778729E+02  0.7816164E-02  0.1312668E+00
        -11   -1    0    0    0    0  0.00000000000E+00  0.00000000000E+00  0.45593999997E+02  0.45594000000E+02  0.51100000000E-03 0. -1.
         11   -1    0    0    0    0 -0.00000000000E+00 -0.00000000000E+00 -0.45593999997E+02  0.45594000000E+02  0.51100000000E-03 0.  1.
    9900012    2    1    2    0    0 -0.52654300073E+01  0.36700507869E+02  0.22560364081E+02  0.47787285046E+02  0.20000063839E+02 0.  0.
        -12    1    1    2    0    0  0.52654300073E+01 -0.36700507869E+02 -0.22560364081E+02  0.43400714954E+02  0.00000000000E+00 0.  1.
         11    1    3    3    0    0  0.34841274541E+01  0.11157433201E+02  0.10042349301E+02  0.15410264096E+02  0.51100000000E-03 0. -1.
        -11    1    3    3    0    0 -0.25755069916E+01  0.15911968678E+01  0.61204290955E+01  0.68282352266E+01  0.51100000000E-03 0.  1.
         12    1    3    3    0    0 -0.61740504698E+01  0.23951877800E+02  0.63975856853E+01  0.25548785724E+02  0.00000000000E+00 0. -1.
</event>
<event>
 7    1  0.4675811E-010  0.4778727E+02  0.7816164E-02  0.1312668E+00
        -11   -1    0    0    0    0  0.00000000000E+00  0.00000000000E+00  0.45593999997E+02  0.45594000000E+02  0.51100000000E-03 0.  1.
         11   -1    0    0    0    0 -0.00000000000E+00 -0.00000000000E+00 -0.45593999997E+02  0.45594000000E+02  0.51100000000E-03 0. -1.
    9900012    2    1    2    0    0  0.30131080197E+01 -0.63726322845E+01 -0.42824457000E+02  0.47787269827E+02  0.19999994451E+02 0.  0.
        -12    1    1    2    0    0 -0.30131080197E+01  0.63726322845E+01  0.42824457000E+02  0.43400730173E+02  0.00000000000E+00 0.  1.
         11    1    3    3    0    0 -0.42176316913E+01 -0.47945822308E+00 -0.17713294079E+02  0.18214803998E+02  0.51100000000E-03 0. -1.
        -11    1    3    3    0    0  0.31879408377E+01  0.18720011933E+01 -0.17760459557E+02  0.18141148784E+02  0.51100000000E-03 0.  1.
         12    1    3    3    0    0  0.40427988734E+01 -0.77651752546E+01 -0.73507033637E+01  0.11431317046E+02  0.00000000000E+00 0. -1.
</event>
<event>
 7    1  0.4675811E-010  0.4778727E+02  0.7816164E-02  0.1312668E+00
        -11   -1    0    0    0    0  0.00000000000E+00  0.00000000000E+00  0.45593999997E+02  0.45594000000E+02  0.51100000000E-03 0. -1.
         11   -1    0    0    0    0 -0.00000000000E+00 -0.00000000000E+00 -0.45593999997E+02  0.45594000000E+02  0.51100000000E-03 0.  1.
    9900012    2    1    2    0    0  0.16477546669E+02  0.40138566645E+02  0.10045288567E+01  0.47787272417E+02  0.20000006257E+02 0.  0.
        -12    1    1    2    0    0 -0.16477546669E+02 -0.40138566645E+02 -0.10045288567E+01  0.43400727583E+02  0.00000000000E+00 0.  1.
         11    1    3    3    0    0  0.41202595061E+01  0.66042859709E+01  0.19285562873E+01  0.80195050470E+01  0.51100000000E-03 0. -1.
        -11    1    3    3    0    0  0.62540628896E+01  0.37672738228E+01 -0.53628515858E+01  0.90590193772E+01  0.51100000000E-03 0.  1.
        -12    1    3    3    0    0  0.61032242738E+01  0.29767006851E+02  0.44388241553E+01  0.30708747993E+02  0.00000000000E+00 0.  1.
</event>
<event>
 7    1  0.4675811E-010  0.4778727E+02  0.7816164E-02  0.1312668E+00
        -11   -1    0    0    0    0  0.00000000000E+00  0.00000000000E+00  0.45593999997E+02  0.45594000000E+02  0.51100000000E-03 0. -1.
         11   -1    0    0    0    0 -0.00000000000E+00 -0.00000000000E+00 -0.45593999997E+02  0.45594000000E+02  0.51100000000E-03 0.  1.
    9900012    2    1    2    0    0 -0.25489036744E+02  0.24636033562E+02  0.25039929875E+02  0.47787271527E+02  0.20000002202E+02 0.  0.
        -12    1    1    2    0    0  0.25489036744E+02 -0.24636033562E+02 -0.25039929875E+02  0.43400728473E+02  0.00000000000E+00 0.  1.
         11    1    3    3    0    0 -0.11151064226E+02  0.66230570427E+01  0.41573026776E+01  0.13619628621E+02  0.51100000000E-03 0. -1.
        -11    1    3    3    0    0 -0.31374261589E+01  0.87135426085E+01  0.70691335964E+00  0.92881103812E+01  0.51100000000E-03 0.  1.
         12    1    3    3    0    0 -0.11200546359E+02  0.92994339106E+01  0.20175713838E+02  0.24879532525E+02  0.00000000000E+00 0. -1.
</event>
<event>
 7    1  0.4675811E-010  0.4778727E+02  0.7816164E-02  0.1312668E+00
        -11   -1    0    0    0    0  0.00000000000E+00  0.00000000000E+00  0.45593999997E+02  0.45594000000E+02  0.51100000000E-03 0.  1.
         11   -1    0    0    0    0 -0.00000000000E+00 -0.00000000000E+00 -0.45593999997E+02  0.45594000000E+02  0.51100000000E-03 0. -1.
    9900012    2    1    2    0    0  0.43320653760E+02  0.17952687751E+01 -0.19290960421E+01  0.47787269088E+02  0.19999991078E+02 0.  0.
        -12    1    1    2    0    0 -0.43320653760E+02 -0.17952687751E+01  0.19290960421E+01  0.43400730912E+02  0.00000000000E+00 0.  1.
         11    1    3    3    0    0  0.17525196438E+02  0.60296103125E+01 -0.59341271553E+01  0.19460282014E+02  0.51100000000E-03 0. -1.
        -11    1    3    3    0    0 -0.84814691690E+00  0.16136551886E+00 -0.42491369804E+00  0.96225980651E+00  0.51100000000E-03 0.  1.
         12    1    3    3    0    0  0.26643604239E+02 -0.43957070563E+01  0.44299448112E+01  0.27364727267E+02  0.00000000000E+00 0. -1.
</event>
<event>
 7    1  0.4675811E-010  0.4778727E+02  0.7816164E-02  0.1312668E+00
        -11   -1    0    0    0    0  0.00000000000E+00  0.00000000000E+00  0.45593999997E+02  0.45594000000E+02  0.51100000000E-03 0.  1.
         11   -1    0    0    0    0 -0.00000000000E+00 -0.00000000000E+00 -0.45593999997E+02  0.45594000000E+02  0.51100000000E-03 0. -1.
    9900012    2    1    2    0    0  0.80493489198E+01 -0.41757182891E+01 -0.42442838077E+02  0.47787272526E+02  0.20000006754E+02 0.  0.
        -12    1    1    2    0    0 -0.80493489198E+01  0.41757182891E+01  0.42442838077E+02  0.43400727474E+02  0.00000000000E+00 0.  1.
         11    1    3    3    0    0  0.11296060543E+02 -0.16868844522E+00 -0.20002561202E+02  0.22972415948E+02  0.51100000000E-03 0. -1.
        -11    1    3    3    0    0  0.20701315457E+01 -0.14441929184E+01 -0.12475796273E+01  0.28155981584E+01  0.51100000000E-03 0.  1.
        -12    1    3    3    0    0 -0.53168431684E+01 -0.25628369255E+01 -0.21192697247E+02  0.21999258419E+02  0.00000000000E+00 0.  1.
</event>
<event>
 7    1  0.4675811E-010  0.4778727E+02  0.7816164E-02  0.1312668E+00
        -11   -1    0    0    0    0  0.00000000000E+00  0.00000000000E+00  0.45593999997E+02  0.45594000000E+02  0.51100000000E-03 0.  1.
         11   -1    0    0    0    0 -0.00000000000E+00 -0.00000000000E+00 -0.45593999997E+02  0.45594000000E+02  0.51100000000E-03 0. -1.
    9900012    2    1    2    0    0 -0.30860003088E+02 -0.28810224247E+02 -0.10062526483E+02  0.47787271308E+02  0.20000001203E+02 0.  0.
        -12    1    1    2    0    0  0.30860003088E+02  0.28810224247E+02  0.10062526483E+02  0.43400728692E+02  0.00000000000E+00 0.  1.
         11    1    3    3    0    0 -0.89483039172E+01 -0.95223586856E+01 -0.43340231911E+00  0.13074222568E+02  0.51100000000E-03 0. -1.
        -11    1    3    3    0    0 -0.21213952750E+02 -0.21673048542E+02 -0.70593825994E+01  0.31138203341E+02  0.51100000000E-03 0.  1.
        -12    1    3    3    0    0 -0.69774642104E+00  0.23851829805E+01 -0.25697415646E+01  0.35748453991E+01  0.00000000000E+00 0.  1.
</event>
<event>
 7    1  0.4675811E-010  0.4778724E+02  0.7816164E-02  0.1312668E+00
        -11   -1    0    0    0    0  0.00000000000E+00  0.00000000000E+00  0.45593999997E+02  0.45594000000E+02  0.51100000000E-03 0.  1.
         11   -1    0    0    0    0 -0.00000000000E+00 -0.00000000000E+00 -0.45593999997E+02  0.45594000000E+02  0.51100000000E-03 0. -1.
    9900012    2    1    2    0    0  0.32432603577E+01 -0.21569614719E+02 -0.37521441478E+02  0.47787244391E+02  0.19999878474E+02 0.  0.
        -12    1    1    2    0    0 -0.32432603577E+01  0.21569614719E+02  0.37521441478E+02  0.43400755609E+02  0.00000000000E+00 0.  1.
         11    1    3    3    0    0 -0.62286810325E+01 -0.60399226368E+01 -0.48667094460E+01  0.99479643122E+01  0.51100000000E-03 0.  1.
        -11    1    3    3    0    0  0.11506759224E+01 -0.27382741752E+01 -0.10682765111E+02  0.11087996718E+02  0.51100000000E-03 0. -1.
        -12    1    3    3    0    0  0.83212654678E+01 -0.12791417907E+02 -0.21971966921E+02  0.26751283361E+02  0.00000000000E+00 0.  1.
</event>
<event>
 7    1  0.4675811E-010  0.4778730E+02  0.7816164E-02  0.1312668E+00
        -11   -1    0    0    0    0  0.00000000000E+00  0.00000000000E+00  0.45593999997E+02  0.45594000000E+02  0.51100000000E-03 0. -1.
         11   -1    0    0    0    0 -0.00000000000E+00 -0.00000000000E+00 -0.45593999997E+02  0.45594000000E+02  0.51100000000E-03 0.  1.
    9900012    2    1    2    0    0  0.77451791253E+01  0.33262572055E+02  0.26781228805E+02  0.47787300516E+02  0.20000134372E+02 0.  0.
        -12    1    1    2    0    0 -0.77451791253E+01 -0.33262572055E+02 -0.26781228805E+02  0.43400699484E+02  0.00000000000E+00 0.  1.
         11    1    3    3    0    0 -0.23115714027E+01  0.32803113440E+01  0.22771334802E+01  0.46140158226E+01  0.51100000000E-03 0. -1.
        -11    1    3    3    0    0  0.88603883132E+01  0.43239111454E+01  0.68472240623E+01  0.12003631379E+02  0.51100000000E-03 0.  1.
         12    1    3    3    0    0  0.11963622148E+01  0.25658349566E+02  0.17656871262E+02  0.31169653315E+02  0.00000000000E+00 0. -1.
</event>
<event>
 7    1  0.4675811E-010  0.4778727E+02  0.7816164E-02  0.1312668E+00
        -11   -1    0    0    0    0  0.00000000000E+00  0.00000000000E+00  0.45593999997E+02  0.45594000000E+02  0.51100000000E-03 0.  1.
         11   -1    0    0    0    0 -0.00000000000E+00 -0.00000000000E+00 -0.45593999997E+02  0.45594000000E+02  0.51100000000E-03 0. -1.
    9900012    2    1    2    0    0 -0.13316063884E+02 -0.16724794544E+02 -0.37770186848E+02  0.47787270462E+02  0.19999997343E+02 0.  0.
        -12    1    1    2    0    0  0.13316063884E+02  0.16724794544E+02  0.37770186848E+02  0.43400729538E+02  0.00000000000E+00 0.  1.
         11    1    3    3    0    0 -0.74110169619E+01 -0.94730441497E+01 -0.17887355472E+02  0.21555027811E+02  0.51100000000E-03 0. -1.
        -11    1    3    3    0    0 -0.24103599657E+01 -0.83187009691E+01 -0.33268692712E+01  0.92778596878E+01  0.51100000000E-03 0.  1.
        -12    1    3    3    0    0 -0.34946869563E+01  0.10669505745E+01 -0.16555962105E+02  0.16954382963E+02  0.00000000000E+00 0.  1.
</event>
<event>
 7    1  0.4675811E-010  0.4778727E+02  0.7816164E-02  0.1312668E+00
        -11   -1    0    0    0    0  0.00000000000E+00  0.00000000000E+00  0.45593999997E+02  0.45594000000E+02  0.51100000000E-03 0.  1.
         11   -1    0    0    0    0 -0.00000000000E+00 -0.00000000000E+00 -0.45593999997E+02  0.45594000000E+02  0.51100000000E-03 0. -1.
    9900012    2    1    2    0    0 -0.34259551257E+02 -0.21640535895E+02 -0.15543279635E+02  0.47787272034E+02  0.20000004513E+02 0.  0.
        -12    1    1    2    0    0  0.34259551257E+02  0.21640535895E+02  0.15543279635E+02  0.43400727966E+02  0.00000000000E+00 0.  1.
         11    1    3    3    0    0 -0.18654536232E+02 -0.50106717411E+01 -0.10576593860E+02  0.22021873020E+02  0.51100000000E-03 0. -1.
        -11    1    3    3    0    0 -0.15279884928E+02 -0.11064492633E+02 -0.65501215045E+01  0.19970026856E+02  0.51100000000E-03 0.  1.
        -12    1    3    3    0    0 -0.32513009637E+00 -0.55653715217E+01  0.15834357295E+01  0.57953721592E+01  0.00000000000E+00 0.  1.
</event>
<event>
 7    1  0.4675811E-010  0.4778728E+02  0.7816164E-02  0.1312668E+00
        -11   -1    0    0    0    0  0.00000000000E+00  0.00000000000E+00  0.45593999997E+02  0.45594000000E+02  0.51100000000E-03 0.  1.
         11   -1    0    0    0    0 -0.00000000000E+00 -0.00000000000E+00 -0.45593999997E+02  0.45594000000E+02  0.51100000000E-03 0. -1.
    9900012    2    1    2    0    0  0.15103594819E+02  0.24916156026E+02 -0.32166584073E+02  0.47787279516E+02  0.20000038627E+02 0.  0.
        -12    1    1    2    0    0 -0.15103594819E+02 -0.24916156026E+02  0.32166584073E+02  0.43400720484E+02  0.00000000000E+00 0.  1.
         11    1    3    3    0    0  0.51010501573E+01  0.14229776013E+02 -0.12671500627E+02  0.19724963029E+02  0.51100000000E-03 0. -1.
        -11    1    3    3    0    0 -0.18495574420E+01  0.72130763462E+01 -0.47688426804E+01  0.88425784633E+01  0.51100000000E-03 0.  1.
         12    1    3    3    0    0  0.11852102104E+02  0.34733036673E+01 -0.14726240766E+02  0.19219738024E+02  0.00000000000E+00 0. -1.
</event>
<event>
 7    1  0.4675811E-010  0.4778726E+02  0.7816164E-02  0.1312668E+00
        -11   -1    0    0    0    0  0.00000000000E+00  0.00000000000E+00  0.45593999997E+02  0.45594000000E+02  0.51100000000E-03 0.  1.
         11   -1    0    0    0    0 -0.00000000000E+00 -0.00000000000E+00 -0.45593999997E+02  0.45594000000E+02  0.51100000000E-03 0. -1.
    9900012    2    1    2    0    0 -0.28831327397E+02  0.21989585190E+02 -0.23850293713E+02  0.47787264908E+02  0.19999972021E+02 0.  0.
        -12    1    1    2    0    0  0.28831327397E+02 -0.21989585190E+02  0.23850293713E+02  0.43400735092E+02  0.00000000000E+00 0.  1.
         11    1    3    3    0    0 -0.13663629860E+02  0.15801281543E+01 -0.63076317288E+01  0.15132012563E+02  0.51100000000E-03 0. -1.
        -11    1    3    3    0    0 -0.16793321664E+01  0.14297968952E+01  0.14225769585E+01  0.26245382738E+01  0.51100000000E-03 0.  1.
         12    1    3    3    0    0 -0.13488365371E+02  0.18979660141E+02 -0.18965238943E+02  0.30030714071E+02  0.00000000000E+00 0. -1.
</event>
<event>
 7    1  0.4675811E-010  0.4778725E+02  0.7816164E-02  0.1312668E+00
        -11   -1    0    0    0    0  0.00000000000E+00  0.00000000000E+00  0.45593999997E+02  0.45594000000E+02  0.51100000000E-03 0.  1.
         11   -1    0    0    0    0 -0.00000000000E+00 -0.00000000000E+00 -0.45593999997E+02  0.45594000000E+02  0.51100000000E-03 0. -1.
    9900012    2    1    2    0    0  0.28621799650E+02  0.17566457259E+02 -0.27492494941E+02  0.47787249847E+02  0.19999903350E+02 0.  0.
        -12    1    1    2    0    0 -0.28621799650E+02 -0.17566457259E+02  0.27492494941E+02  0.43400750153E+02  0.00000000000E+00 0.  1.
         11    1    3    3    0    0  0.22929097091E+02  0.96169955503E+01 -0.11885309564E+02  0.27558858476E+02  0.51100000000E-03 0. -1.
        -11    1    3    3    0    0  0.33725129299E+00  0.39185245455E+00  0.10492251857E+01  0.11696839454E+01  0.51100000000E-03 0.  1.
        -12    1    3    3    0    0  0.53554512663E+01  0.75576092541E+01 -0.16656410562E+02  0.19058707425E+02  0.00000000000E+00 0.  1.
</event>
<event>
 7    1  0.4675811E-010  0.4778727E+02  0.7816164E-02  0.1312668E+00
        -11   -1    0    0    0    0  0.00000000000E+00  0.00000000000E+00  0.45593999997E+02  0.45594000000E+02  0.51100000000E-03 0.  1.
         11   -1    0    0    0    0 -0.00000000000E+00 -0.00000000000E+00 -0.45593999997E+02  0.45594000000E+02  0.51100000000E-03 0. -1.
    9900012    2    1    2    0    0 -0.42374971903E+02 -0.93799829468E+01  0.28959329288E-01  0.47787272328E+02  0.20000005852E+02 0.  0.
        -12    1    1    2    0    0  0.42374971903E+02  0.93799829468E+01 -0.28959329288E-01  0.43400727672E+02  0.00000000000E+00 0.  1.
         11    1    3    3    0    0 -0.12636784075E+02 -0.76902922546E+01 -0.29771817070E+01  0.15089483686E+02  0.51100000000E-03 0. -1.
        -11    1    3    3    0    0 -0.18544746747E+02 -0.74084796894E+01  0.12894982176E+01  0.20011396981E+02  0.51100000000E-03 0.  1.
        -12    1    3    3    0    0 -0.11193441080E+02  0.57187889972E+01  0.17166428188E+01  0.12686391661E+02  0.00000000000E+00 0.  1.
</event>
<event>
 7    1  0.4675811E-010  0.4778728E+02  0.7816164E-02  0.1312668E+00
        -11   -1    0    0    0    0  0.00000000000E+00  0.00000000000E+00  0.45593999997E+02  0.45594000000E+02  0.51100000000E-03 0.  1.
         11   -1    0    0    0    0 -0.00000000000E+00 -0.00000000000E+00 -0.45593999997E+02  0.45594000000E+02  0.51100000000E-03 0. -1.
    9900012    2    1    2    0    0  0.18124243259E+02  0.24157480456E+02 -0.31169699246E+02  0.47787283338E+02  0.20000056051E+02 0.  0.
        -12    1    1    2    0    0 -0.18124243259E+02 -0.24157480456E+02  0.31169699246E+02  0.43400716662E+02  0.00000000000E+00 0.  1.
         11    1    3    3    0    0  0.14917952942E+02  0.15355575630E+02 -0.20360376363E+02  0.29544609471E+02  0.51100000000E-03 0. -1.
        -11    1    3    3    0    0  0.20822522016E+01  0.96290794869E+01 -0.12586141880E+02  0.15983301088E+02  0.51100000000E-03 0.  1.
        -12    1    3    3    0    0  0.11240381154E+01 -0.82717465994E+00  0.17768189975E+01  0.22593727786E+01  0.00000000000E+00 0.  1.
</event>
<event>
 7    1  0.4675811E-010  0.4778727E+02  0.7816164E-02  0.1312668E+00
        -11   -1    0    0    0    0  0.00000000000E+00  0.00000000000E+00  0.45593999997E+02  0.45594000000E+02  0.51100000000E-03 0. -1.
         11   -1    0    0    0    0 -0.00000000000E+00 -0.00000000000E+00 -0.45593999997E+02  0.45594000000E+02  0.51100000000E-03 0.  1.
    9900012    2    1    2    0    0  0.11528260167E+02 -0.61775503437E+01  0.41383091569E+02  0.47787272143E+02  0.20000005008E+02 0.  0.
        -12    1    1    2    0    0 -0.11528260167E+02  0.61775503437E+01 -0.41383091569E+02  0.43400727857E+02  0.00000000000E+00 0.  1.
         11    1    3    3    0    0 -0.41139904609E+01  0.10500925612E+01  0.75544782998E+01  0.86658960612E+01  0.51100000000E-03 0. -1.
        -11    1    3    3    0    0  0.21941156636E+01 -0.10360289142E+01  0.26911523120E+00  0.24412952966E+01  0.51100000000E-03 0.  1.
         12    1    3    3    0    0  0.13448134964E+02 -0.61916139907E+01  0.33559498038E+02  0.36680080785E+02  0.00000000000E+00 0. -1.
</event>
<event>
 7    1  0.4675811E-010  0.4778727E+02  0.7816164E-02  0.1312668E+00
        -11   -1    0    0    0    0  0.00000000000E+00  0.00000000000E+00  0.45593999997E+02  0.45594000000E+02  0.51100000000E-03 0. -1.
         11   -1    0    0    0    0 -0.00000000000E+00 -0.00000000000E+00 -0.45593999997E+02  0.45594000000E+02  0.51100000000E-03 0.  1.
    9900012    2    1    2    0    0 -0.31029297407E+02 -0.20899884920E+02 -0.22000013382E+02  0.47787273323E+02  0.20000010391E+02 0.  0.
        -12    1    1    2    0    0  0.31029297407E+02  0.20899884920E+02  0.22000013382E+02  0.43400726677E+02  0.00000000000E+00 0.  1.
         11    1    3    3    0    0 -0.10723304616E+02 -0.13373082722E+02 -0.89327960243E+01  0.19329341646E+02  0.51100000000E-03 0. -1.
        -11    1    3    3    0    0 -0.18721724944E+02 -0.10789458003E+02 -0.11770792292E+02  0.24606237833E+02  0.51100000000E-03 0.  1.
        -12    1    3    3    0    0 -0.15842678475E+01  0.32626558057E+01 -0.12964250659E+01  0.38516938443E+01  0.00000000000E+00 0.  1.
</event>
<event>
 7    1  0.4675811E-010  0.4778727E+02  0.7816164E-02  0.1312668E+00
        -11   -1    0    0    0    0  0.00000000000E+00  0.00000000000E+00  0.45593999997E+02  0.45594000000E+02  0.51100000000E-03 0.  1.
         11   -1    0    0    0    0 -0.00000000000E+00 -0.00000000000E+00 -0.45593999997E+02  0.45594000000E+02  0.51100000000E-03 0. -1.
    9900012    2    1    2    0    0 -0.14909449499E+02 -0.22844769965E+02 -0.33755712365E+02  0.47787270554E+02  0.19999997765E+02 0.  0.
        -12    1    1    2    0    0  0.14909449499E+02  0.22844769965E+02  0.33755712365E+02  0.43400729446E+02  0.00000000000E+00 0.  1.
         11    1    3    3    0    0 -0.17385052308E+01 -0.17525895594E+02 -0.21226701550E+02  0.27581738084E+02  0.51100000000E-03 0. -1.
        -11    1    3    3    0    0 -0.37062734438E+01  0.49566503193E+00 -0.66708832795E+01  0.76474067928E+01  0.51100000000E-03 0.  1.
         12    1    3    3    0    0 -0.94646708248E+01 -0.58145394031E+01 -0.58581275358E+01  0.12558125677E+02  0.00000000000E+00 0. -1.
</event>
<event>
 7    1  0.4675811E-010  0.4778727E+02  0.7816164E-02  0.1312668E+00
        -11   -1    0    0    0    0  0.00000000000E+00  0.00000000000E+00  0.45593999997E+02  0.45594000000E+02  0.51100000000E-03 0.  1.
         11   -1    0    0    0    0 -0.00000000000E+00 -0.00000000000E+00 -0.45593999997E+02  0.45594000000E+02  0.51100000000E-03 0. -1.
    9900012    2    1    2    0    0 -0.21290988441E+02 -0.14881821487E+02 -0.34768501674E+02  0.47787268345E+02  0.19999987690E+02 0.  0.
        -12    1    1    2    0    0  0.21290988441E+02  0.14881821487E+02  0.34768501674E+02  0.43400731655E+02  0.00000000000E+00 0.  1.
         11    1    3    3    0    0 -0.11576274608E+02 -0.27094918497E+01 -0.13928650633E+02  0.18312803953E+02  0.51100000000E-03 0. -1.
        -11    1    3    3    0    0 -0.11429188102E+01  0.26772566350E+01 -0.64315165981E+00  0.29812096228E+01  0.51100000000E-03 0.  1.
        -12    1    3    3    0    0 -0.85717950235E+01 -0.14849586273E+02 -0.20196699381E+02  0.26493254769E+02  0.00000000000E+00 0.  1.
</event>
<event>
 7    1  0.4675811E-010  0.4778727E+02  0.7816164E-02  0.1312668E+00
        -11   -1    0    0    0    0  0.00000000000E+00  0.00000000000E+00  0.45593999997E+02  0.45594000000E+02  0.51100000000E-03 0.  1.
         11   -1    0    0    0    0 -0.00000000000E+00 -0.00000000000E+00 -0.45593999997E+02  0.45594000000E+02  0.51100000000E-03 0. -1.
    9900012    2    1    2    0    0  0.29433546232E+02  0.30239488883E+02 -0.10142124513E+02  0.47787273953E+02  0.20000013263E+02 0.  0.
        -12    1    1    2    0    0 -0.29433546232E+02 -0.30239488883E+02  0.10142124513E+02  0.43400726047E+02  0.00000000000E+00 0.  1.
         11    1    3    3    0    0  0.54885199363E+01  0.13222593898E+02 -0.65098244680E+01  0.15727004017E+02  0.51100000000E-03 0. -1.
        -11    1    3    3    0    0  0.15192235674E+01 -0.14552352527E+01 -0.20898434170E+01  0.29653323013E+01  0.51100000000E-03 0.  1.
         12    1    3    3    0    0  0.22425802729E+02  0.18472130238E+02 -0.15424566285E+01  0.29094937635E+02  0.00000000000E+00 0. -1.
</event>
<event>
 7    1  0.4675811E-010  0.4778727E+02  0.7816164E-02  0.1312668E+00
        -11   -1    0    0    0    0  0.00000000000E+00  0.00000000000E+00  0.45593999997E+02  0.45594000000E+02  0.51100000000E-03 0.  1.
         11   -1    0    0    0    0 -0.00000000000E+00 -0.00000000000E+00 -0.45593999997E+02  0.45594000000E+02  0.51100000000E-03 0. -1.
    9900012    2    1    2    0    0 -0.33091644468E+02  0.21429503691E+02  0.18147811240E+02  0.47787267116E+02  0.19999982091E+02 0.  0.
        -12    1    1    2    0    0  0.33091644468E+02 -0.21429503691E+02 -0.18147811240E+02  0.43400732884E+02  0.00000000000E+00 0.  1.
         11    1    3    3    0    0 -0.22934296195E+02  0.16236260919E+02  0.19007907569E+02  0.33924897362E+02  0.51100000000E-03 0. -1.
        -11    1    3    3    0    0 -0.73394008947E+00  0.38316768584E+01  0.12754831494E+01  0.41045429865E+01  0.51100000000E-03 0.  1.
        -12    1    3    3    0    0 -0.94234081833E+01  0.13615659137E+01 -0.21355794787E+01  0.97578267681E+01  0.00000000000E+00 0.  1.
</event>
<event>
 7    1  0.4675811E-010  0.4778728E+02  0.7816164E-02  0.1312668E+00
        -11   -1    0    0    0    0  0.00000000000E+00  0.00000000000E+00  0.45593999997E+02  0.45594000000E+02  0.51100000000E-03 0.  1.
         11   -1    0    0    0    0 -0.00000000000E+00 -0.00000000000E+00 -0.45593999997E+02  0.45594000000E+02  0.51100000000E-03 0. -1.
    9900012    2    1    2    0    0 -0.94839008885E+01  0.34404253952E+02 -0.24698700943E+02  0.47787275417E+02  0.20000019936E+02 0.  0.
        -12    1    1    2    0    0  0.94839008885E+01 -0.34404253952E+02  0.24698700943E+02  0.43400724583E+02  0.00000000000E+00 0.  1.
         11    1    3    3    0    0 -0.42697170892E+01  0.14134063870E+02 -0.33177217747E+01  0.15133060614E+02  0.51100000000E-03 0. -1.
        -11    1    3    3    0    0  0.11027124705E+01  0.92742628940E+01 -0.20935571127E+01  0.95713587680E+01  0.51100000000E-03 0.  1.
        -12    1    3    3    0    0 -0.63168962698E+01  0.10995927188E+02 -0.19287422055E+02  0.23082856035E+02  0.00000000000E+00 0.  1.
</event>
<event>
 7    1  0.4675811E-010  0.4778726E+02  0.7816164E-02  0.1312668E+00
        -11   -1    0    0    0    0  0.00000000000E+00  0.00000000000E+00  0.45593999997E+02  0.45594000000E+02  0.51100000000E-03 0.  1.
         11   -1    0    0    0    0 -0.00000000000E+00 -0.00000000000E+00 -0.45593999997E+02  0.45594000000E+02  0.51100000000E-03 0. -1.
    9900012    2    1    2    0    0 -0.12336909707E+02 -0.39773871408E+02 -0.12225532542E+02  0.47787264593E+02  0.19999970585E+02 0.  0.
        -12    1    1    2    0    0  0.12336909707E+02  0.39773871408E+02  0.12225532542E+02  0.43400735407E+02  0.00000000000E+00 0.  1.
         11    1    3    3    0    0 -0.58070906532E+01 -0.79740965582E+01 -0.63310245636E+01  0.11721364684E+02  0.51100000000E-03 0. -1.
        -11    1    3    3    0    0  0.37503825728E+01 -0.29794108704E+01 -0.21094195200E+01  0.52337280737E+01  0.51100000000E-03 0.  1.
         12    1    3    3    0    0 -0.10280201627E+02 -0.28820363980E+02 -0.37850884583E+01  0.30832171835E+02  0.00000000000E+00 0. -1.
</event>
<event>
 7    1  0.4675811E-010  0.4778727E+02  0.7816164E-02  0.1312668E+00
        -11   -1    0    0    0    0  0.00000000000E+00  0.00000000000E+00  0.45593999997E+02  0.45594000000E+02  0.51100000000E-03 0. -1.
         11   -1    0    0    0    0 -0.00000000000E+00 -0.00000000000E+00 -0.45593999997E+02  0.45594000000E+02  0.51100000000E-03 0.  1.
    9900012    2    1    2    0    0 -0.76042312704E+01  0.34691424684E+02  0.24946015564E+02  0.47787274518E+02  0.20000015839E+02 0.  0.
        -12    1    1    2    0    0  0.76042312704E+01 -0.34691424684E+02 -0.24946015564E+02  0.43400725482E+02  0.00000000000E+00 0.  1.
         11    1    3    3    0    0 -0.67384456078E+01  0.10892897155E+02  0.12546534122E+02  0.17929790194E+02  0.51100000000E-03 0. -1.
        -11    1    3    3    0    0 -0.62485780167E+01  0.65713911906E+01  0.49600471762E+01  0.10335858826E+02  0.51100000000E-03 0.  1.
         12    1    3    3    0    0  0.53827923541E+01  0.17227136338E+02  0.74394342655E+01  0.19521625499E+02  0.00000000000E+00 0. -1.
</event>
<event>
 7    1  0.4675811E-010  0.4778727E+02  0.7816164E-02  0.1312668E+00
        -11   -1    0    0    0    0  0.00000000000E+00  0.00000000000E+00  0.45593999997E+02  0.45594000000E+02  0.51100000000E-03 0. -1.
         11   -1    0    0    0    0 -0.00000000000E+00 -0.00000000000E+00 -0.45593999997E+02  0.45594000000E+02  0.51100000000E-03 0.  1.
    9900012    2    1    2    0    0  0.16325452680E+02  0.17392691887E+02 -0.36257372831E+02  0.47787271655E+02  0.20000002782E+02 0.  0.
        -12    1    1    2    0    0 -0.16325452680E+02 -0.17392691887E+02  0.36257372831E+02  0.43400728345E+02  0.00000000000E+00 0.  1.
         11    1    3    3    0    0 -0.13345443269E+01  0.59710157440E+01 -0.11687035080E+02  0.13191695372E+02  0.51100000000E-03 0. -1.
        -11    1    3    3    0    0  0.15967804340E+02  0.10564033240E+02 -0.25950882951E+02  0.32249308519E+02  0.51100000000E-03 0.  1.
         12    1    3    3    0    0  0.16921926669E+01  0.85764290373E+00  0.13805451996E+01  0.23462677640E+01  0.00000000000E+00 0. -1.
</event>
<event>
 7    1  0.4675811E-010  0.4778726E+02  0.7816164E-02  0.1312668E+00
        -11   -1    0    0    0    0  0.00000000000E+00  0.00000000000E+00  0.45593999997E+02  0.45594000000E+02  0.51100000000E-03 0.  1.
         11   -1    0    0    0    0 -0.00000000000E+00 -0.00000000000E+00 -0.45593999997E+02  0.45594000000E+02  0.51100000000E-03 0. -1.
    9900012    2    1    2    0    0  0.25121894629E+02  0.15865801213E+01 -0.35355300146E+02  0.47787261820E+02  0.19999957940E+02 0.  0.
        -12    1    1    2    0    0 -0.25121894629E+02 -0.15865801213E+01  0.35355300146E+02  0.43400738180E+02  0.00000000000E+00 0.  1.
         11    1    3    3    0    0  0.10535597877E+01 -0.17553760640E+01  0.36012398206E+00  0.20787070250E+01  0.51100000000E-03 0. -1.
        -11    1    3    3    0    0  0.35448528763E+01  0.23849063149E+01  0.25916988015E+00  0.42802954726E+01  0.51100000000E-03 0.  1.
         12    1    3    3    0    0  0.20523481965E+02  0.95704987044E+00 -0.35974594008E+02  0.41428259322E+02  0.00000000000E+00 0. -1.
</event>
<event>
 7    1  0.4675811E-010  0.4778727E+02  0.7816164E-02  0.1312668E+00
        -11   -1    0    0    0    0  0.00000000000E+00  0.00000000000E+00  0.45593999997E+02  0.45594000000E+02  0.51100000000E-03 0. -1.
         11   -1    0    0    0    0 -0.00000000000E+00 -0.00000000000E+00 -0.45593999997E+02  0.45594000000E+02  0.51100000000E-03 0.  1.
    9900012    2    1    2    0    0  0.19672210331E+01  0.22360668170E+02  0.37145044866E+02  0.47787265010E+02  0.19999972485E+02 0.  0.
        -12    1    1    2    0    0 -0.19672210331E+01 -0.22360668170E+02 -0.37145044866E+02  0.43400734990E+02  0.00000000000E+00 0.  1.
         11    1    3    3    0    0  0.19502986327E+00 -0.47301276556E+00  0.10672221303E+00  0.52265439425E+00  0.51100000000E-03 0. -1.
        -11    1    3    3    0    0 -0.23743751824E+00 -0.22557283902E+01 -0.24413872755E+00  0.22812915476E+01  0.51100000000E-03 0.  1.
         12    1    3    3    0    0  0.20096286881E+01  0.25089409326E+02  0.37282461380E+02  0.44983319068E+02  0.00000000000E+00 0. -1.
</event>
<event>
 7    1  0.4675811E-010  0.4778727E+02  0.7816164E-02  0.1312668E+00
        -11   -1    0    0    0    0  0.00000000000E+00  0.00000000000E+00  0.45593999997E+02  0.45594000000E+02  0.51100000000E-03 0. -1.
         11   -1    0    0    0    0 -0.00000000000E+00 -0.00000000000E+00 -0.45593999997E+02  0.45594000000E+02  0.51100000000E-03 0.  1.
    9900012    2    1    2    0    0  0.38179171673E+02  0.14896889910E+02 -0.14284840779E+02  0.47787272417E+02  0.20000006258E+02 0.  0.
        -12    1    1    2    0    0 -0.38179171673E+02 -0.14896889910E+02  0.14284840779E+02  0.43400727583E+02  0.00000000000E+00 0.  1.
         11    1    3    3    0    0  0.13734133726E+02 -0.99852841783E+00 -0.64392547124E+01  0.15201562082E+02  0.51100000000E-03 0. -1.
        -11    1    3    3    0    0 -0.12003191730E+01 -0.11077135263E+00  0.36607604105E+00  0.12597810677E+01  0.51100000000E-03 0.  1.
         12    1    3    3    0    0  0.25645357120E+02  0.16006189680E+02 -0.82116621079E+01  0.31325929267E+02  0.00000000000E+00 0. -1.
</event>
<event>
 7    1  0.4675811E-010  0.4778727E+02  0.7816164E-02  0.1312668E+00
        -11   -1    0    0    0    0  0.00000000000E+00  0.00000000000E+00  0.45593999997E+02  0.45594000000E+02  0.51100000000E-03 0. -1.
         11   -1    0    0    0    0 -0.00000000000E+00 -0.00000000000E+00 -0.45593999997E+02  0.45594000000E+02  0.51100000000E-03 0.  1.
    9900012    2    1    2    0    0  0.15314797438E+02  0.40543935783E+02  0.22954881890E+01  0.47787274023E+02  0.20000013579E+02 0.  0.
        -12    1    1    2    0    0 -0.15314797438E+02 -0.40543935783E+02 -0.22954881890E+01  0.43400725977E+02  0.00000000000E+00 0.  1.
         11    1    3    3    0    0  0.44700633948E+01  0.12345410382E+02  0.75766373639E+01  0.15159025637E+02  0.51100000000E-03 0. -1.
        -11    1    3    3    0    0 -0.19001770303E+01  0.70518364822E+01  0.32052287826E+00  0.73103902560E+01  0.51100000000E-03 0.  1.
        -12    1    3    3    0    0  0.12744911074E+02  0.21146688918E+02 -0.56016720532E+01  0.25317858130E+02  0.00000000000E+00 0.  1.
</event>
<event>
 7    1  0.4675811E-010  0.4778728E+02  0.7816164E-02  0.1312668E+00
        -11   -1    0    0    0    0  0.00000000000E+00  0.00000000000E+00  0.45593999997E+02  0.45594000000E+02  0.51100000000E-03 0.  1.
         11   -1    0    0    0    0 -0.00000000000E+00 -0.00000000000E+00 -0.45593999997E+02  0.45594000000E+02  0.51100000000E-03 0. -1.
    9900012    2    1    2    0    0 -0.50594530294E+01 -0.38885541584E+02 -0.18599449075E+02  0.47787275177E+02  0.20000018842E+02 0.  0.
        -12    1    1    2    0    0  0.50594530294E+01  0.38885541584E+02  0.18599449075E+02  0.43400724823E+02  0.00000000000E+00 0.  1.
         11    1    3    3    0    0  0.97220659947E+00 -0.11378463717E+02 -0.43178733651E+00  0.11428082201E+02  0.51100000000E-03 0. -1.
        -11    1    3    3    0    0  0.42412351960E+01 -0.56487355792E+01 -0.62275065358E+01  0.94169064743E+01  0.51100000000E-03 0.  1.
         12    1    3    3    0    0 -0.10272894825E+02 -0.21858342288E+02 -0.11940155203E+02  0.26942286502E+02  0.00000000000E+00 0. -1.
</event>
<event>
 7    1  0.4675811E-010  0.4778727E+02  0.7816164E-02  0.1312668E+00
        -11   -1    0    0    0    0  0.00000000000E+00  0.00000000000E+00  0.45593999997E+02  0.45594000000E+02  0.51100000000E-03 0.  1.
         11   -1    0    0    0    0 -0.00000000000E+00 -0.00000000000E+00 -0.45593999997E+02  0.45594000000E+02  0.51100000000E-03 0. -1.
    9900012    2    1    2    0    0  0.96239049794E+01 -0.31840245029E+02 -0.27878359002E+02  0.47787266698E+02  0.19999980182E+02 0.  0.
        -12    1    1    2    0    0 -0.96239049794E+01  0.31840245029E+02  0.27878359002E+02  0.43400733302E+02  0.00000000000E+00 0.  1.
         11    1    3    3    0    0 -0.22833887611E+01 -0.31258013307E+01 -0.12523715623E+01  0.40685295851E+01  0.51100000000E-03 0.  1.
        -11    1    3    3    0    0 -0.45868214505E+00  0.10325591187E+01  0.82120140583E+00  0.13967604139E+01  0.51100000000E-03 0. -1.
         12    1    3    3    0    0  0.12365975886E+02 -0.29747002817E+02 -0.27447188845E+02  0.42321976699E+02  0.00000000000E+00 0. -1.
</event>
<event>
 7    1  0.4675811E-010  0.4778728E+02  0.7816164E-02  0.1312668E+00
        -11   -1    0    0    0    0  0.00000000000E+00  0.00000000000E+00  0.45593999997E+02  0.45594000000E+02  0.51100000000E-03 0.  1.
         11   -1    0    0    0    0 -0.00000000000E+00 -0.00000000000E+00 -0.45593999997E+02  0.45594000000E+02  0.51100000000E-03 0. -1.
    9900012    2    1    2    0    0  0.19009901851E+02 -0.31545521793E+02 -0.22959226943E+02  0.47787280935E+02  0.20000045094E+02 0.  0.
        -12    1    1    2    0    0 -0.19009901851E+02  0.31545521793E+02  0.22959226943E+02  0.43400719065E+02  0.00000000000E+00 0.  1.
         11    1    3    3    0    0 -0.13860610645E+01 -0.26615906921E-02 -0.24443314685E+01  0.28099695635E+01  0.51100000000E-03 0.  1.
        -11    1    3    3    0    0 -0.61813250856E+00 -0.62838071197E+01 -0.14069801248E+00  0.63157039123E+01  0.51100000000E-03 0. -1.
         12    1    3    3    0    0  0.21014095424E+02 -0.25259053082E+02 -0.20374197462E+02  0.38661607459E+02  0.00000000000E+00 0. -1.
</event>
<event>
 7    1  0.4675811E-010  0.4778727E+02  0.7816164E-02  0.1312668E+00
        -11   -1    0    0    0    0  0.00000000000E+00  0.00000000000E+00  0.45593999997E+02  0.45594000000E+02  0.51100000000E-03 0.  1.
         11   -1    0    0    0    0 -0.00000000000E+00 -0.00000000000E+00 -0.45593999997E+02  0.45594000000E+02  0.51100000000E-03 0. -1.
    9900012    2    1    2    0    0  0.10292615916E+02 -0.27692836052E+02 -0.31792954527E+02  0.47787273410E+02  0.20000010786E+02 0.  0.
        -12    1    1    2    0    0 -0.10292615916E+02  0.27692836052E+02  0.31792954527E+02  0.43400726590E+02  0.00000000000E+00 0.  1.
         11    1    3    3    0    0  0.29320023977E+01 -0.95975509865E+01 -0.14731439968E+02  0.17824840723E+02  0.51100000000E-03 0. -1.
        -11    1    3    3    0    0  0.95092695705E+01 -0.10579072180E+02 -0.40617789587E+01  0.14793276328E+02  0.51100000000E-03 0.  1.
        -12    1    3    3    0    0 -0.21486560521E+01 -0.75162128851E+01 -0.12999735600E+02  0.15169156359E+02  0.00000000000E+00 0.  1.
</event>
<event>
 7    1  0.4675811E-010  0.4778727E+02  0.7816164E-02  0.1312668E+00
        -11   -1    0    0    0    0  0.00000000000E+00  0.00000000000E+00  0.45593999997E+02  0.45594000000E+02  0.51100000000E-03 0.  1.
         11   -1    0    0    0    0 -0.00000000000E+00 -0.00000000000E+00 -0.45593999997E+02  0.45594000000E+02  0.51100000000E-03 0. -1.
    9900012    2    1    2    0    0 -0.43305926669E+01 -0.35689125374E+02 -0.24313686131E+02  0.47787273784E+02  0.20000012491E+02 0.  0.
        -12    1    1    2    0    0  0.43305926669E+01  0.35689125374E+02  0.24313686131E+02  0.43400726216E+02  0.00000000000E+00 0.  1.
         11    1    3    3    0    0  0.82239135836E+00 -0.56706040204E+01 -0.86020922562E+01  0.10335766491E+02  0.51100000000E-03 0. -1.
        -11    1    3    3    0    0  0.46496900311E+01 -0.45771731901E+01 -0.47288587671E+01  0.80580541880E+01  0.51100000000E-03 0.  1.
        -12    1    3    3    0    0 -0.98026740563E+01 -0.25441348163E+02 -0.10982735108E+02  0.29393453106E+02  0.00000000000E+00 0.  1.
</event>
<event>
 7    1  0.4675811E-010  0.4778727E+02  0.7816164E-02  0.1312668E+00
        -11   -1    0    0    0    0  0.00000000000E+00  0.00000000000E+00  0.45593999997E+02  0.45594000000E+02  0.51100000000E-03 0. -1.
         11   -1    0    0    0    0 -0.00000000000E+00 -0.00000000000E+00 -0.45593999997E+02  0.45594000000E+02  0.51100000000E-03 0.  1.
    9900012    2    1    2    0    0 -0.35706693027E+02 -0.24591886301E+02  0.19734295297E+01  0.47787271632E+02  0.20000002680E+02 0.  0.
        -12    1    1    2    0    0  0.35706693027E+02  0.24591886301E+02 -0.19734295297E+01  0.43400728368E+02  0.00000000000E+00 0.  1.
         11    1    3    3    0    0 -0.94050614568E+01 -0.88386575439E+01  0.67178934372E+01  0.14550159473E+02  0.51100000000E-03 0. -1.
        -11    1    3    3    0    0 -0.39039442755E+01 -0.43613733883E+01  0.34646246615E+01  0.68019102497E+01  0.51100000000E-03 0.  1.
        -12    1    3    3    0    0 -0.22397687294E+02 -0.11391855369E+02 -0.82090885690E+01  0.26435201910E+02  0.00000000000E+00 0.  1.
</event>
<event>
 7    1  0.4675811E-010  0.4778727E+02  0.7816164E-02  0.1312668E+00
        -11   -1    0    0    0    0  0.00000000000E+00  0.00000000000E+00  0.45593999997E+02  0.45594000000E+02  0.51100000000E-03 0.  1.
         11   -1    0    0    0    0 -0.00000000000E+00 -0.00000000000E+00 -0.45593999997E+02  0.45594000000E+02  0.51100000000E-03 0. -1.
    9900012    2    1    2    0    0  0.81693925003E+01 -0.28809882513E+02 -0.31414564293E+02  0.47787272426E+02  0.20000006300E+02 0.  0.
        -12    1    1    2    0    0 -0.81693925003E+01  0.28809882513E+02  0.31414564293E+02  0.43400727574E+02  0.00000000000E+00 0.  1.
         11    1    3    3    0    0 -0.20198672510E+01 -0.10418226426E+02 -0.12107868642E+02  0.16100304000E+02  0.51100000000E-03 0. -1.
        -11    1    3    3    0    0  0.99619941141E+00 -0.25912216108E+01 -0.11464120150E+02  0.11795460728E+02  0.51100000000E-03 0.  1.
         12    1    3    3    0    0  0.91930603398E+01 -0.15800434476E+02 -0.78425755006E+01  0.19891507698E+02  0.00000000000E+00 0. -1.
</event>
<event>
 7    1  0.4675811E-010  0.4778727E+02  0.7816164E-02  0.1312668E+00
        -11   -1    0    0    0    0  0.00000000000E+00  0.00000000000E+00  0.45593999997E+02  0.45594000000E+02  0.51100000000E-03 0.  1.
         11   -1    0    0    0    0 -0.00000000000E+00 -0.00000000000E+00 -0.45593999997E+02  0.45594000000E+02  0.51100000000E-03 0. -1.
    9900012    2    1    2    0    0 -0.24109115154E+02 -0.44009606932E+01 -0.35819062348E+02  0.47787272863E+02  0.20000008290E+02 0.  0.
        -12    1    1    2    0    0  0.24109115154E+02  0.44009606932E+01  0.35819062348E+02  0.43400727137E+02  0.00000000000E+00 0.  1.
         11    1    3    3    0    0 -0.12133606775E+02 -0.51646968885E+01 -0.13685738626E+02  0.19005208478E+02  0.51100000000E-03 0. -1.
        -11    1    3    3    0    0 -0.14768252879E+02  0.21681909676E+01 -0.20163342575E+02  0.25087102846E+02  0.51100000000E-03 0.  1.
         12    1    3    3    0    0  0.27927444991E+01 -0.14044547723E+01 -0.19699811479E+01  0.36949615381E+01  0.00000000000E+00 0. -1.
</event>
<event>
 7    1  0.4675811E-010  0.4778728E+02  0.7816164E-02  0.1312668E+00
        -11   -1    0    0    0    0  0.00000000000E+00  0.00000000000E+00  0.45593999997E+02  0.45594000000E+02  0.51100000000E-03 0.  1.
         11   -1    0    0    0    0 -0.00000000000E+00 -0.00000000000E+00 -0.45593999997E+02  0.45594000000E+02  0.51100000000E-03 0. -1.
    9900012    2    1    2    0    0  0.40955255765E+01  0.34842169482E+02 -0.25551364825E+02  0.47787281707E+02  0.20000048613E+02 0.  0.
        -12    1    1    2    0    0 -0.40955255765E+01 -0.34842169482E+02  0.25551364825E+02  0.43400718293E+02  0.00000000000E+00 0.  1.
         11    1    3    3    0    0 -0.13982882442E+01  0.66055025589E+01 -0.10319923004E+02  0.12332424139E+02  0.51100000000E-03 0. -1.
        -11    1    3    3    0    0  0.40766392091E+01  0.13453433048E+02 -0.15062039303E+02  0.20602885144E+02  0.51100000000E-03 0.  1.
        -12    1    3    3    0    0  0.14171746117E+01  0.14783233875E+02 -0.16940251829E+00  0.14851972424E+02  0.00000000000E+00 0.  1.
</event>
<event>
 7    1  0.4675811E-010  0.4778727E+02  0.7816164E-02  0.1312668E+00
        -11   -1    0    0    0    0  0.00000000000E+00  0.00000000000E+00  0.45593999997E+02  0.45594000000E+02  0.51100000000E-03 0.  1.
         11   -1    0    0    0    0 -0.00000000000E+00 -0.00000000000E+00 -0.45593999997E+02  0.45594000000E+02  0.51100000000E-03 0. -1.
    9900012    2    1    2    0    0 -0.34092283212E+02 -0.90130205747E+01 -0.25300289253E+02  0.47787274767E+02  0.20000016973E+02 0.  0.
        -12    1    1    2    0    0  0.34092283212E+02  0.90130205747E+01  0.25300289253E+02  0.43400725233E+02  0.00000000000E+00 0.  1.
         11    1    3    3    0    0 -0.11644582349E+02 -0.42506824403E+01 -0.64350629691E+01  0.13966912149E+02  0.51100000000E-03 0. -1.
        -11    1    3    3    0    0 -0.17612654638E+02 -0.10401272035E+02 -0.15508273413E+02  0.25669020392E+02  0.51100000000E-03 0.  1.
        -12    1    3    3    0    0 -0.48350462243E+01  0.56389339002E+01 -0.33569528709E+01  0.81513422269E+01  0.00000000000E+00 0.  1.
</event>
<event>
 7    1  0.4675811E-010  0.4778728E+02  0.7816164E-02  0.1312668E+00
        -11   -1    0    0    0    0  0.00000000000E+00  0.00000000000E+00  0.45593999997E+02  0.45594000000E+02  0.51100000000E-03 0.  1.
         11   -1    0    0    0    0 -0.00000000000E+00 -0.00000000000E+00 -0.45593999997E+02  0.45594000000E+02  0.51100000000E-03 0. -1.
    9900012    2    1    2    0    0 -0.43376311915E+02 -0.12778539387E+01 -0.69654091811E+00  0.47787279783E+02  0.20000039845E+02 0.  0.
        -12    1    1    2    0    0  0.43376311915E+02  0.12778539387E+01  0.69654091811E+00  0.43400720217E+02  0.00000000000E+00 0.  1.
         11    1    3    3    0    0 -0.12206118863E+02 -0.24301826283E+00 -0.63403670483E+01  0.13756767431E+02  0.51100000000E-03 0.  1.
        -11    1    3    3    0    0 -0.92757042963E+01 -0.57745240760E+01 -0.10513878799E-01  0.10926295315E+02  0.51100000000E-03 0. -1.
         12    1    3    3    0    0 -0.21894488756E+02  0.47396884001E+01  0.56543400090E+01  0.23104217038E+02  0.00000000000E+00 0. -1.
</event>
<event>
 7    1  0.4675811E-010  0.4778727E+02  0.7816164E-02  0.1312668E+00
        -11   -1    0    0    0    0  0.00000000000E+00  0.00000000000E+00  0.45593999997E+02  0.45594000000E+02  0.51100000000E-03 0. -1.
         11   -1    0    0    0    0 -0.00000000000E+00 -0.00000000000E+00 -0.45593999997E+02  0.45594000000E+02  0.51100000000E-03 0.  1.
    9900012    2    1    2    0    0  0.25683366195E+02  0.30163750081E+02  0.17723890096E+02  0.47787269612E+02  0.19999993467E+02 0.  0.
        -12    1    1    2    0    0 -0.25683366195E+02 -0.30163750081E+02 -0.17723890096E+02  0.43400730388E+02  0.00000000000E+00 0.  1.
         11    1    3    3    0    0  0.14346913569E+02  0.15188657565E+02  0.11197501480E+02  0.23704710233E+02  0.51100000000E-03 0. -1.
        -11    1    3    3    0    0  0.61989486065E+00  0.43438341592E+01  0.77833923706E+01  0.89350076607E+01  0.51100000000E-03 0.  1.
        -12    1    3    3    0    0  0.10716557766E+02  0.10631258357E+02 -0.12570037544E+01  0.15147551718E+02  0.00000000000E+00 0.  1.
</event>
<event>
 7    1  0.4675811E-010  0.4778727E+02  0.7816164E-02  0.1312668E+00
        -11   -1    0    0    0    0  0.00000000000E+00  0.00000000000E+00  0.45593999997E+02  0.45594000000E+02  0.51100000000E-03 0. -1.
         11   -1    0    0    0    0 -0.00000000000E+00 -0.00000000000E+00 -0.45593999997E+02  0.45594000000E+02  0.51100000000E-03 0.  1.
    9900012    2    1    2    0    0 -0.12572430474E+02  0.24682771503E+02  0.33411352061E+02  0.47787266554E+02  0.19999979524E+02 0.  0.
        -12    1    1    2    0    0  0.12572430474E+02 -0.24682771503E+02 -0.33411352061E+02  0.43400733446E+02  0.00000000000E+00 0.  1.
         11    1    3    3    0    0 -0.65508444846E+01  0.34263245387E+01  0.70486021931E+01  0.10214502261E+02  0.51100000000E-03 0. -1.
        -11    1    3    3    0    0  0.30427193813E+01  0.22102546620E+01 -0.62558384039E-01  0.37612871090E+01  0.51100000000E-03 0.  1.
         12    1    3    3    0    0 -0.90643053707E+01  0.19046192303E+02  0.26425308252E+02  0.33811477183E+02  0.00000000000E+00 0. -1.
</event>
<event>
 7    1  0.4675811E-010  0.4778727E+02  0.7816164E-02  0.1312668E+00
        -11   -1    0    0    0    0  0.00000000000E+00  0.00000000000E+00  0.45593999997E+02  0.45594000000E+02  0.51100000000E-03 0.  1.
         11   -1    0    0    0    0 -0.00000000000E+00 -0.00000000000E+00 -0.45593999997E+02  0.45594000000E+02  0.51100000000E-03 0. -1.
    9900012    2    1    2    0    0 -0.17667655606E+02  0.35530332167E+02 -0.17580469228E+02  0.47787268937E+02  0.19999990390E+02 0.  0.
        -12    1    1    2    0    0  0.17667655606E+02 -0.35530332167E+02  0.17580469228E+02  0.43400731063E+02  0.00000000000E+00 0.  1.
         11    1    3    3    0    0 -0.96810101972E+01  0.20300252866E+02 -0.15313393163E+02  0.27208863176E+02  0.51100000000E-03 0. -1.
        -11    1    3    3    0    0 -0.98066745436E+01  0.15256151637E+02 -0.33749721876E+01  0.18447532786E+02  0.51100000000E-03 0.  1.
        -12    1    3    3    0    0  0.18200291347E+01 -0.26072335848E-01  0.11078961221E+01  0.21308729749E+01  0.00000000000E+00 0.  1.
</event>
<event>
 7    1  0.4675811E-010  0.4778727E+02  0.7816164E-02  0.1312668E+00
        -11   -1    0    0    0    0  0.00000000000E+00  0.00000000000E+00  0.45593999997E+02  0.45594000000E+02  0.51100000000E-03 0.  1.
         11   -1    0    0    0    0 -0.00000000000E+00 -0.00000000000E+00 -0.45593999997E+02  0.45594000000E+02  0.51100000000E-03 0. -1.
    9900012    2    1    2    0    0 -0.39923651821E+02 -0.16953110602E+02  0.15222797201E+01  0.47787271097E+02  0.20000000240E+02 0.  0.
        -12    1    1    2    0    0  0.39923651821E+02  0.16953110602E+02 -0.15222797201E+01  0.43400728903E+02  0.00000000000E+00 0.  1.
         11    1    3    3    0    0 -0.35683709229E+02 -0.17931852965E+02 -0.37152471102E+01  0.40108372149E+02  0.51100000000E-03 0. -1.
        -11    1    3    3    0    0 -0.29403045037E+01  0.60977652162E+00  0.89849356677E+00  0.31344072696E+01  0.51100000000E-03 0.  1.
         12    1    3    3    0    0 -0.12996380880E+01  0.36896584188E+00  0.43390332636E+01  0.45444916784E+01  0.00000000000E+00 0. -1.
</event>
<event>
 7    1  0.4675811E-010  0.4778727E+02  0.7816164E-02  0.1312668E+00
        -11   -1    0    0    0    0  0.00000000000E+00  0.00000000000E+00  0.45593999997E+02  0.45594000000E+02  0.51100000000E-03 0.  1.
         11   -1    0    0    0    0 -0.00000000000E+00 -0.00000000000E+00 -0.45593999997E+02  0.45594000000E+02  0.51100000000E-03 0. -1.
    9900012    2    1    2    0    0 -0.14360472412E+02  0.24876590383E+01 -0.40880457325E+02  0.47787269517E+02  0.19999993035E+02 0.  0.
        -12    1    1    2    0    0  0.14360472412E+02 -0.24876590383E+01  0.40880457325E+02  0.43400730483E+02  0.00000000000E+00 0.  1.
         11    1    3    3    0    0 -0.11405804828E+02  0.92619871914E+00 -0.38825837138E+02  0.40477102880E+02  0.51100000000E-03 0. -1.
        -11    1    3    3    0    0 -0.14044023098E+01 -0.22364966679E+01 -0.18082004981E+01  0.32006018959E+01  0.51100000000E-03 0.  1.
        -12    1    3    3    0    0 -0.15502652741E+01  0.37979569871E+01 -0.24641968864E+00  0.41095647407E+01  0.00000000000E+00 0.  1.
</event>
<event>
 7    1  0.4675811E-010  0.4778727E+02  0.7816164E-02  0.1312668E+00
        -11   -1    0    0    0    0  0.00000000000E+00  0.00000000000E+00  0.45593999997E+02  0.45594000000E+02  0.51100000000E-03 0. -1.
         11   -1    0    0    0    0 -0.00000000000E+00 -0.00000000000E+00 -0.45593999997E+02  0.45594000000E+02  0.51100000000E-03 0.  1.
    9900012    2    1    2    0    0 -0.17175342482E+02 -0.38189267898E+02 -0.11410982437E+02  0.47787273138E+02  0.20000009544E+02 0.  0.
        -12    1    1    2    0    0  0.17175342482E+02  0.38189267898E+02  0.11410982437E+02  0.43400726862E+02  0.00000000000E+00 0.  1.
         11    1    3    3    0    0 -0.32338267618E+01 -0.80346032601E+01 -0.84648001085E+01  0.12110546074E+02  0.51100000000E-03 0. -1.
        -11    1    3    3    0    0 -0.24664014771E+00 -0.14495925154E+02 -0.33097183622E+01  0.14871009156E+02  0.51100000000E-03 0.  1.
        -12    1    3    3    0    0 -0.13694875573E+02 -0.15658739485E+02  0.36353603354E+00  0.20805717908E+02  0.00000000000E+00 0.  1.
</event>
<event>
 7    1  0.4675811E-010  0.4778727E+02  0.7816164E-02  0.1312668E+00
        -11   -1    0    0    0    0  0.00000000000E+00  0.00000000000E+00  0.45593999997E+02  0.45594000000E+02  0.51100000000E-03 0. -1.
         11   -1    0    0    0    0 -0.00000000000E+00 -0.00000000000E+00 -0.45593999997E+02  0.45594000000E+02  0.51100000000E-03 0.  1.
    9900012    2    1    2    0    0 -0.30260180158E+02 -0.17281114279E+01  0.31063776420E+02  0.47787273304E+02  0.20000010302E+02 0.  0.
        -12    1    1    2    0    0  0.30260180158E+02  0.17281114279E+01 -0.31063776420E+02  0.43400726696E+02  0.00000000000E+00 0.  1.
         11    1    3    3    0    0 -0.46049860341E+01 -0.45045319241E+01  0.96963681437E+01  0.11641145118E+02  0.51100000000E-03 0. -1.
        -11    1    3    3    0    0  0.10116854672E+01 -0.52650950332E+00 -0.73192193319E+00  0.13551493346E+01  0.51100000000E-03 0.  1.
         12    1    3    3    0    0 -0.26666879591E+02  0.33029299995E+01  0.22099330209E+02  0.34790978851E+02  0.00000000000E+00 0. -1.
</event>
<event>
 7    1  0.4675811E-010  0.4778727E+02  0.7816164E-02  0.1312668E+00
        -11   -1    0    0    0    0  0.00000000000E+00  0.00000000000E+00  0.45593999997E+02  0.45594000000E+02  0.51100000000E-03 0.  1.
         11   -1    0    0    0    0 -0.00000000000E+00 -0.00000000000E+00 -0.45593999997E+02  0.45594000000E+02  0.51100000000E-03 0. -1.
    9900012    2    1    2    0    0 -0.31101857535E+02  0.45065215480E+01  0.29933075289E+02  0.47787271033E+02  0.19999999949E+02 0.  0.
        -12    1    1    2    0    0  0.31101857535E+02 -0.45065215480E+01 -0.29933075289E+02  0.43400728967E+02  0.00000000000E+00 0.  1.
         11    1    3    3    0    0 -0.31042121286E+02  0.60251039839E+01  0.23191006145E+02  0.39214001814E+02  0.51100000000E-03 0. -1.
        -11    1    3    3    0    0 -0.18956012789E+00  0.41409977326E+00  0.66165112658E+01  0.66321665582E+01  0.51100000000E-03 0.  1.
         12    1    3    3    0    0  0.12982387879E+00 -0.19326822092E+01  0.12555787749E+00  0.19411026613E+01  0.00000000000E+00 0. -1.
</event>
<event>
 7    1  0.4675811E-010  0.4778727E+02  0.7816164E-02  0.1312668E+00
        -11   -1    0    0    0    0  0.00000000000E+00  0.00000000000E+00  0.45593999997E+02  0.45594000000E+02  0.51100000000E-03 0.  1.
         11   -1    0    0    0    0 -0.00000000000E+00 -0.00000000000E+00 -0.45593999997E+02  0.45594000000E+02  0.51100000000E-03 0. -1.
    9900012    2    1    2    0    0  0.35013667256E+02  0.20281701966E+02 -0.15694553063E+02  0.47787270453E+02  0.19999997305E+02 0.  0.
        -12    1    1    2    0    0 -0.35013667256E+02 -0.20281701966E+02  0.15694553063E+02  0.43400729547E+02  0.00000000000E+00 0.  1.
         11    1    3    3    0    0  0.35012744893E+01  0.28443657022E+01  0.32848732975E+01  0.55802985708E+01  0.51100000000E-03 0. -1.
        -11    1    3    3    0    0  0.10170826564E+02  0.14564062126E+01 -0.16448573745E+01  0.10405401871E+02  0.51100000000E-03 0.  1.
         12    1    3    3    0    0  0.21341566203E+02  0.15980930051E+02 -0.17334568986E+02  0.31801570012E+02  0.00000000000E+00 0. -1.
</event>
<event>
 7    1  0.4749067E-010  0.4778727E+02  0.7816164E-02  0.1312668E+00
        -11   -1    0    0    0    0  0.00000000000E+00  0.00000000000E+00  0.45593999997E+02  0.45594000000E+02  0.51100000000E-03 0. -1.
         11   -1    0    0    0    0 -0.00000000000E+00 -0.00000000000E+00 -0.45593999997E+02  0.45594000000E+02  0.51100000000E-03 0.  1.
    9900012    2    1    2    0    0 -0.14060839000E+02 -0.91058064830E+01  0.40037489192E+02  0.47787269062E+02  0.19999990963E+02 0.  0.
        -12    1    1    2    0    0  0.14060839000E+02  0.91058064830E+01 -0.40037489192E+02  0.43400730938E+02  0.00000000000E+00 0.  1.
         11    1    3    3    0    0  0.26125221960E+00  0.15089807682E+01  0.55146066106E+01  0.57232999233E+01  0.51100000000E-03 0.  1.
        -11    1    3    3    0    0  0.72281610602E+00  0.19967728962E+01 -0.24377726129E+00  0.21375202306E+01  0.51100000000E-03 0. -1.
         12    1    3    3    0    0 -0.15044907326E+02 -0.12611560147E+02  0.34766659843E+02  0.39926448908E+02  0.00000000000E+00 0. -1.
</event>
<event>
 7    1  0.4675811E-010  0.4778730E+02  0.7816164E-02  0.1312668E+00
        -11   -1    0    0    0    0  0.00000000000E+00  0.00000000000E+00  0.45593999997E+02  0.45594000000E+02  0.51100000000E-03 0.  1.
         11   -1    0    0    0    0 -0.00000000000E+00 -0.00000000000E+00 -0.45593999997E+02  0.45594000000E+02  0.51100000000E-03 0. -1.
    9900012    2    1    2    0    0  0.22342621658E+02 -0.36584808072E+02 -0.67808383956E+01  0.47787300771E+02  0.20000135536E+02 0.  0.
        -12    1    1    2    0    0 -0.22342621658E+02  0.36584808072E+02  0.67808383956E+01  0.43400699229E+02  0.00000000000E+00 0.  1.
         11    1    3    3    0    0 -0.23426111380E+01 -0.45551222508E+01 -0.22540228939E+01  0.55962116768E+01  0.51100000000E-03 0.  1.
        -11    1    3    3    0    0  0.48573319499E+01 -0.10932794763E+01 -0.19788811865E+01  0.53576958383E+01  0.51100000000E-03 0. -1.
         12    1    3    3    0    0  0.19827900846E+02 -0.30936406345E+02 -0.25479343152E+01  0.36833393256E+02  0.00000000000E+00 0. -1.
</event>
<event>
 7    1  0.4675811E-010  0.4778727E+02  0.7816164E-02  0.1312668E+00
        -11   -1    0    0    0    0  0.00000000000E+00  0.00000000000E+00  0.45593999997E+02  0.45594000000E+02  0.51100000000E-03 0.  1.
         11   -1    0    0    0    0 -0.00000000000E+00 -0.00000000000E+00 -0.45593999997E+02  0.45594000000E+02  0.51100000000E-03 0. -1.
    9900012    2    1    2    0    0 -0.15057712622E+02  0.36502813207E+02 -0.18012026011E+02  0.47787272328E+02  0.20000005851E+02 0.  0.
        -12    1    1    2    0    0  0.15057712622E+02 -0.36502813207E+02  0.18012026011E+02  0.43400727672E+02  0.00000000000E+00 0.  1.
         11    1    3    3    0    0 -0.16162547288E+02  0.23903715276E+02 -0.61206906211E+01  0.29497091259E+02  0.51100000000E-03 0. -1.
        -11    1    3    3    0    0  0.10752084872E+01  0.47938159208E+01 -0.12079613283E+01  0.50592405759E+01  0.51100000000E-03 0.  1.
         12    1    3    3    0    0  0.29626178416E-01  0.78052820105E+01 -0.10683374062E+02  0.13230940492E+02  0.00000000000E+00 0. -1.
</event>
<event>
 7    1  0.4675811E-010  0.4778727E+02  0.7816164E-02  0.1312668E+00
        -11   -1    0    0    0    0  0.00000000000E+00  0.00000000000E+00  0.45593999997E+02  0.45594000000E+02  0.51100000000E-03 0.  1.
         11   -1    0    0    0    0 -0.00000000000E+00 -0.00000000000E+00 -0.45593999997E+02  0.45594000000E+02  0.51100000000E-03 0. -1.
    9900012    2    1    2    0    0 -0.74886122545E+01  0.60653794899E+01 -0.42317313824E+02  0.47787271998E+02  0.20000004347E+02 0.  0.
        -12    1    1    2    0    0  0.74886122545E+01 -0.60653794899E+01  0.42317313824E+02  0.43400728002E+02  0.00000000000E+00 0.  1.
         11    1    3    3    0    0 -0.48799445093E+01 -0.27272130910E+01 -0.11361440955E+02  0.12662301943E+02  0.51100000000E-03 0. -1.
        -11    1    3    3    0    0 -0.33333056572E+01  0.42319240799E+01 -0.19120071141E+01  0.57162819636E+01  0.51100000000E-03 0.  1.
        -12    1    3    3    0    0  0.72463791197E+00  0.45606685010E+01 -0.29043865754E+02  0.29408688091E+02  0.00000000000E+00 0.  1.
</event>
<event>
 7    1  0.4675811E-010  0.4778727E+02  0.7816164E-02  0.1312668E+00
        -11   -1    0    0    0    0  0.00000000000E+00  0.00000000000E+00  0.45593999997E+02  0.45594000000E+02  0.51100000000E-03 0.  1.
         11   -1    0    0    0    0 -0.00000000000E+00 -0.00000000000E+00 -0.45593999997E+02  0.45594000000E+02  0.51100000000E-03 0. -1.
    9900012    2    1    2    0    0  0.11075140201E+01  0.42939077532E+02 -0.62154891269E+01  0.47787271069E+02  0.20000000113E+02 0.  0.
        -12    1    1    2    0    0 -0.11075140201E+01 -0.42939077532E+02  0.62154891269E+01  0.43400728931E+02  0.00000000000E+00 0.  1.
         11    1    3    3    0    0  0.24903087757E+01  0.17136690402E+02 -0.46646548089E+00  0.17322972783E+02  0.51100000000E-03 0. -1.
        -11    1    3    3    0    0  0.57690952218E+01  0.18336958227E+02 -0.14825409842E+01  0.19280156242E+02  0.51100000000E-03 0.  1.
        -12    1    3    3    0    0 -0.71518899773E+01  0.74654289031E+01 -0.42664826618E+01  0.11184142044E+02  0.00000000000E+00 0.  1.
</event>
<event>
 7    1  0.4675811E-010  0.4778726E+02  0.7816164E-02  0.1312668E+00
        -11   -1    0    0    0    0  0.00000000000E+00  0.00000000000E+00  0.45593999997E+02  0.45594000000E+02  0.51100000000E-03 0.  1.
         11   -1    0    0    0    0 -0.00000000000E+00 -0.00000000000E+00 -0.45593999997E+02  0.45594000000E+02  0.51100000000E-03 0. -1.
    9900012    2    1    2    0    0 -0.39724417173E+02  0.13207794601E+02 -0.11452047641E+02  0.47787256306E+02  0.19999932804E+02 0.  0.
        -12    1    1    2    0    0  0.39724417173E+02 -0.13207794601E+02  0.11452047641E+02  0.43400743694E+02  0.00000000000E+00 0.  1.
         11    1    3    3    0    0 -0.37567363687E+01  0.54213587064E+01  0.12034887979E+00  0.65968691424E+01  0.51100000000E-03 0.  1.
        -11    1    3    3    0    0 -0.22493650742E+02 -0.24224980404E+01 -0.63789211357E+01  0.23505817483E+02  0.51100000000E-03 0. -1.
         12    1    3    3    0    0 -0.13474030063E+02  0.10208933935E+02 -0.51934753853E+01  0.17684569681E+02  0.00000000000E+00 0. -1.
</event>
<event>
 7    1  0.4675811E-010  0.4778727E+02  0.7816164E-02  0.1312668E+00
        -11   -1    0    0    0    0  0.00000000000E+00  0.00000000000E+00  0.45593999997E+02  0.45594000000E+02  0.51100000000E-03 0.  1.
         11   -1    0    0    0    0 -0.00000000000E+00 -0.00000000000E+00 -0.45593999997E+02  0.45594000000E+02  0.51100000000E-03 0. -1.
    9900012    2    1    2    0    0 -0.41597722491E+02 -0.10724956208E+02 -0.61828812250E+01  0.47787271638E+02  0.20000002708E+02 0.  0.
        -12    1    1    2    0    0  0.41597722491E+02  0.10724956208E+02  0.61828812250E+01  0.43400728362E+02  0.00000000000E+00 0.  1.
         11    1    3    3    0    0 -0.24523177972E+02 -0.11985945624E+02 -0.53393744431E+01  0.27812911931E+02  0.51100000000E-03 0. -1.
        -11    1    3    3    0    0  0.33659297274E+00 -0.20489509780E+01 -0.87017356077E+00  0.22513767402E+01  0.51100000000E-03 0.  1.
        -12    1    3    3    0    0 -0.17411137491E+02  0.33099403941E+01  0.26666778895E-01  0.17722982967E+02  0.00000000000E+00 0.  1.
</event>
<event>
 7    1  0.4675811E-010  0.4778726E+02  0.7816164E-02  0.1312668E+00
        -11   -1    0    0    0    0  0.00000000000E+00  0.00000000000E+00  0.45593999997E+02  0.45594000000E+02  0.51100000000E-03 0. -1.
         11   -1    0    0    0    0 -0.00000000000E+00 -0.00000000000E+00 -0.45593999997E+02  0.45594000000E+02  0.51100000000E-03 0.  1.
    9900012    2    1    2    0    0 -0.24299681787E+02  0.34303594911E+02 -0.10789469553E+02  0.47787264845E+02  0.19999971736E+02 0.  0.
        -12    1    1    2    0    0  0.24299681787E+02 -0.34303594911E+02  0.10789469553E+02  0.43400735155E+02  0.00000000000E+00 0.  1.
         11    1    3    3    0    0  0.16412419728E+01  0.29585545677E+01 -0.42566168227E+01  0.54374173447E+01  0.51100000000E-03 0. -1.
        -11    1    3    3    0    0 -0.70734992843E+01  0.15863232564E+02 -0.39059656853E+01  0.17802615193E+02  0.51100000000E-03 0.  1.
         12    1    3    3    0    0 -0.18867424475E+02  0.15481807779E+02 -0.26268870447E+01  0.24547232308E+02  0.00000000000E+00 0. -1.
</event>
<event>
 7    1  0.4675811E-010  0.4778725E+02  0.7816164E-02  0.1312668E+00
        -11   -1    0    0    0    0  0.00000000000E+00  0.00000000000E+00  0.45593999997E+02  0.45594000000E+02  0.51100000000E-03 0. -1.
         11   -1    0    0    0    0 -0.00000000000E+00 -0.00000000000E+00 -0.45593999997E+02  0.45594000000E+02  0.51100000000E-03 0.  1.
    9900012    2    1    2    0    0 -0.22074878070E+02 -0.28268482640E+02  0.24438031765E+02  0.47787254048E+02  0.19999922507E+02 0.  0.
        -12    1    1    2    0    0  0.22074878070E+02  0.28268482640E+02 -0.24438031765E+02  0.43400745952E+02  0.00000000000E+00 0.  1.
         11    1    3    3    0    0 -0.91789874562E+01 -0.90280283229E+01  0.18360400725E+02  0.22424616411E+02  0.51100000000E-03 0. -1.
        -11    1    3    3    0    0 -0.71146839171E+01 -0.46312871469E+01  0.44002401242E+01  0.95618858647E+01  0.51100000000E-03 0.  1.
        -12    1    3    3    0    0 -0.57812066970E+01 -0.14609167171E+02  0.16773909159E+01  0.15800751773E+02  0.00000000000E+00 0.  1.
</event>
<event>
 7    1  0.4675811E-010  0.4778728E+02  0.7816164E-02  0.1312668E+00
        -11   -1    0    0    0    0  0.00000000000E+00  0.00000000000E+00  0.45593999997E+02  0.45594000000E+02  0.51100000000E-03 0.  1.
         11   -1    0    0    0    0 -0.00000000000E+00 -0.00000000000E+00 -0.45593999997E+02  0.45594000000E+02  0.51100000000E-03 0. -1.
    9900012    2    1    2    0    0 -0.70236640070E+01  0.34058090361E+02 -0.25967997580E+02  0.47787282570E+02  0.20000052551E+02 0.  0.
        -12    1    1    2    0    0  0.70236640070E+01 -0.34058090361E+02  0.25967997580E+02  0.43400717430E+02  0.00000000000E+00 0.  1.
         11    1    3    3    0    0 -0.51353031420E+01  0.18147190552E+02 -0.14669714661E+02  0.23893354552E+02  0.51100000000E-03 0. -1.
        -11    1    3    3    0    0 -0.73766363533E+01  0.12279135149E+02 -0.63958113274E+01  0.15687521369E+02  0.51100000000E-03 0.  1.
         12    1    3    3    0    0  0.54882754882E+01  0.36317646593E+01 -0.49024715920E+01  0.82064066489E+01  0.00000000000E+00 0. -1.
</event>
<event>
 7    1  0.4675811E-010  0.4778728E+02  0.7816164E-02  0.1312668E+00
        -11   -1    0    0    0    0  0.00000000000E+00  0.00000000000E+00  0.45593999997E+02  0.45594000000E+02  0.51100000000E-03 0. -1.
         11   -1    0    0    0    0 -0.00000000000E+00 -0.00000000000E+00 -0.45593999997E+02  0.45594000000E+02  0.51100000000E-03 0.  1.
    9900012    2    1    2    0    0  0.21403767996E+02 -0.33838587606E+02  0.16746666880E+02  0.47787284025E+02  0.20000059183E+02 0.  0.
        -12    1    1    2    0    0 -0.21403767996E+02  0.33838587606E+02 -0.16746666880E+02  0.43400715975E+02  0.00000000000E+00 0.  1.
         11    1    3    3    0    0  0.57400286573E+01 -0.16096166370E+01  0.17577342006E+01  0.62151769473E+01  0.51100000000E-03 0. -1.
        -11    1    3    3    0    0 -0.23741339218E+01 -0.27542457264E+01 -0.55963096133E+00  0.36790716865E+01  0.51100000000E-03 0.  1.
         12    1    3    3    0    0  0.18037873260E+02 -0.29474725242E+02  0.15548563641E+02  0.37893035391E+02  0.00000000000E+00 0. -1.
</event>
<event>
 7    1  0.4675811E-010  0.4778727E+02  0.7816164E-02  0.1312668E+00
        -11   -1    0    0    0    0  0.00000000000E+00  0.00000000000E+00  0.45593999997E+02  0.45594000000E+02  0.51100000000E-03 0.  1.
         11   -1    0    0    0    0 -0.00000000000E+00 -0.00000000000E+00 -0.45593999997E+02  0.45594000000E+02  0.51100000000E-03 0. -1.
    9900012    2    1    2    0    0  0.23961748762E+02  0.32008280783E+02 -0.16879796318E+02  0.47787274589E+02  0.20000016163E+02 0.  0.
        -12    1    1    2    0    0 -0.23961748762E+02 -0.32008280783E+02  0.16879796318E+02  0.43400725411E+02  0.00000000000E+00 0.  1.
         11    1    3    3    0    0  0.96477611367E+01  0.88992913755E+01 -0.11531896685E+02  0.17471729260E+02  0.51100000000E-03 0. -1.
        -11    1    3    3    0    0  0.43403842780E+01  0.53077086605E+00 -0.34313048809E+01  0.55582827240E+01  0.51100000000E-03 0.  1.
         12    1    3    3    0    0  0.99736033469E+01  0.22578218542E+02 -0.19165947524E+01  0.24757262605E+02  0.00000000000E+00 0. -1.
</event>
<event>
 7    1  0.4675811E-010  0.4778727E+02  0.7816164E-02  0.1312668E+00
        -11   -1    0    0    0    0  0.00000000000E+00  0.00000000000E+00  0.45593999997E+02  0.45594000000E+02  0.51100000000E-03 0.  1.
         11   -1    0    0    0    0 -0.00000000000E+00 -0.00000000000E+00 -0.45593999997E+02  0.45594000000E+02  0.51100000000E-03 0. -1.
    9900012    2    1    2    0    0 -0.66816791867E+01 -0.16356363531E+02 -0.39641491881E+02  0.47787270245E+02  0.19999996356E+02 0.  0.
        -12    1    1    2    0    0  0.66816791867E+01  0.16356363531E+02  0.39641491881E+02  0.43400729755E+02  0.00000000000E+00 0.  1.
         11    1    3    3    0    0 -0.36273670366E+01 -0.15494545815E+02 -0.21501042598E+02  0.26749459335E+02  0.51100000000E-03 0. -1.
        -11    1    3    3    0    0 -0.26463097462E+01 -0.16149544117E+01 -0.23194183119E+00  0.31088310181E+01  0.51100000000E-03 0.  1.
         12    1    3    3    0    0 -0.40800240387E+00  0.75313669572E+00 -0.17908507451E+02  0.17928979892E+02  0.00000000000E+00 0. -1.
</event>
<event>
 7    1  0.4675811E-010  0.4778727E+02  0.7816164E-02  0.1312668E+00
        -11   -1    0    0    0    0  0.00000000000E+00  0.00000000000E+00  0.45593999997E+02  0.45594000000E+02  0.51100000000E-03 0.  1.
         11   -1    0    0    0    0 -0.00000000000E+00 -0.00000000000E+00 -0.45593999997E+02  0.45594000000E+02  0.51100000000E-03 0. -1.
    9900012    2    1    2    0    0 -0.41391511452E+01 -0.48151695117E+01 -0.42933727499E+02  0.47787269746E+02  0.19999994078E+02 0.  0.
        -12    1    1    2    0    0  0.41391511452E+01  0.48151695117E+01  0.42933727499E+02  0.43400730254E+02  0.00000000000E+00 0.  1.
         11    1    3    3    0    0 -0.39212328901E+01 -0.12474816905E+01 -0.15030620492E+02  0.15583704007E+02  0.51100000000E-03 0. -1.
        -11    1    3    3    0    0  0.98146107624E+00 -0.84251033527E+01 -0.25043053086E+02  0.26440501895E+02  0.51100000000E-03 0.  1.
        -12    1    3    3    0    0 -0.11993793314E+01  0.48574155315E+01 -0.28600539215E+01  0.57630638431E+01  0.00000000000E+00 0.  1.
</event>
<event>
 7    1  0.4675811E-010  0.4778727E+02  0.7816164E-02  0.1312668E+00
        -11   -1    0    0    0    0  0.00000000000E+00  0.00000000000E+00  0.45593999997E+02  0.45594000000E+02  0.51100000000E-03 0. -1.
         11   -1    0    0    0    0 -0.00000000000E+00 -0.00000000000E+00 -0.45593999997E+02  0.45594000000E+02  0.51100000000E-03 0.  1.
    9900012    2    1    2    0    0  0.10130637663E+02  0.37477788183E+02 -0.19401267133E+02  0.47787267369E+02  0.19999983243E+02 0.  0.
        -12    1    1    2    0    0 -0.10130637663E+02 -0.37477788183E+02  0.19401267133E+02  0.43400732631E+02  0.00000000000E+00 0.  1.
         11    1    3    3    0    0 -0.31204078289E+00  0.15224532171E+02 -0.54474418120E+01  0.16172766363E+02  0.51100000000E-03 0. -1.
        -11    1    3    3    0    0  0.85335568164E+01  0.22239211473E+02 -0.16093223638E+02  0.28747103614E+02  0.51100000000E-03 0.  1.
         12    1    3    3    0    0  0.19091216293E+01  0.14044539007E-01  0.21393983172E+01  0.28673973920E+01  0.00000000000E+00 0. -1.
</event>
<event>
 7    1  0.4675811E-010  0.4778727E+02  0.7816164E-02  0.1312668E+00
        -11   -1    0    0    0    0  0.00000000000E+00  0.00000000000E+00  0.45593999997E+02  0.45594000000E+02  0.51100000000E-03 0.  1.
         11   -1    0    0    0    0 -0.00000000000E+00 -0.00000000000E+00 -0.45593999997E+02  0.45594000000E+02  0.51100000000E-03 0. -1.
    9900012    2    1    2    0    0 -0.33322247011E+02  0.16749521720E+02 -0.22196948988E+02  0.47787272263E+02  0.20000005555E+02 0.  0.
        -12    1    1    2    0    0  0.33322247011E+02 -0.16749521720E+02  0.22196948988E+02  0.43400727737E+02  0.00000000000E+00 0.  1.
         11    1    3    3    0    0  0.17213814925E+01  0.16242359531E+01 -0.21593859290E+00  0.23765366421E+01  0.51100000000E-03 0. -1.
        -11    1    3    3    0    0 -0.11020729166E+02  0.64162631657E+01 -0.18610702568E+01  0.12887532236E+02  0.51100000000E-03 0.  1.
         12    1    3    3    0    0 -0.24022899338E+02  0.87090226017E+01 -0.20119940138E+02  0.32523203385E+02  0.00000000000E+00 0. -1.
</event>
<event>
 7    1  0.4675811E-010  0.4778728E+02  0.7816164E-02  0.1312668E+00
        -11   -1    0    0    0    0  0.00000000000E+00  0.00000000000E+00  0.45593999997E+02  0.45594000000E+02  0.51100000000E-03 0.  1.
         11   -1    0    0    0    0 -0.00000000000E+00 -0.00000000000E+00 -0.45593999997E+02  0.45594000000E+02  0.51100000000E-03 0. -1.
    9900012    2    1    2    0    0 -0.14072164697E+02 -0.46614771205E+01 -0.40790532539E+02  0.47787277275E+02  0.20000028409E+02 0.  0.
        -12    1    1    2    0    0  0.14072164697E+02  0.46614771205E+01  0.40790532539E+02  0.43400722725E+02  0.00000000000E+00 0.  1.
         11    1    3    3    0    0 -0.22575622766E+01 -0.82990489795E+00 -0.16614193512E+01  0.29232933644E+01  0.51100000000E-03 0. -1.
        -11    1    3    3    0    0 -0.48065224200E+01  0.31390425052E+01 -0.14654080704E+01  0.59248347401E+01  0.51100000000E-03 0.  1.
         12    1    3    3    0    0 -0.70080800007E+01 -0.69706147278E+01 -0.37663705117E+02  0.38939149171E+02  0.00000000000E+00 0. -1.
</event>
<event>
 7    1  0.4675811E-010  0.4778728E+02  0.7816164E-02  0.1312668E+00
        -11   -1    0    0    0    0  0.00000000000E+00  0.00000000000E+00  0.45593999997E+02  0.45594000000E+02  0.51100000000E-03 0.  1.
         11   -1    0    0    0    0 -0.00000000000E+00 -0.00000000000E+00 -0.45593999997E+02  0.45594000000E+02  0.51100000000E-03 0. -1.
    9900012    2    1    2    0    0  0.77174855676E+01 -0.27803641058E+02 -0.32419442425E+02  0.47787282417E+02  0.20000051852E+02 0.  0.
        -12    1    1    2    0    0 -0.77174855676E+01  0.27803641058E+02  0.32419442425E+02  0.43400717583E+02  0.00000000000E+00 0.  1.
         11    1    3    3    0    0 -0.13632576356E+01 -0.17877780355E+02 -0.11938743700E+02  0.21540824107E+02  0.51100000000E-03 0. -1.
        -11    1    3    3    0    0 -0.18930676670E+01 -0.16228587683E+01 -0.46062051081E+01  0.52377954841E+01  0.51100000000E-03 0.  1.
        -12    1    3    3    0    0  0.10973810870E+02 -0.83030019343E+01 -0.15874493617E+02  0.21008662826E+02  0.00000000000E+00 0.  1.
</event>
<event>
 7    1  0.4675811E-010  0.4778727E+02  0.7816164E-02  0.1312668E+00
        -11   -1    0    0    0    0  0.00000000000E+00  0.00000000000E+00  0.45593999997E+02  0.45594000000E+02  0.51100000000E-03 0.  1.
         11   -1    0    0    0    0 -0.00000000000E+00 -0.00000000000E+00 -0.45593999997E+02  0.45594000000E+02  0.51100000000E-03 0. -1.
    9900012    2    1    2    0    0  0.31036108146E+02 -0.33978825979E+01 -0.30146934155E+02  0.47787271274E+02  0.20000001046E+02 0.  0.
        -12    1    1    2    0    0 -0.31036108146E+02  0.33978825979E+01  0.30146934155E+02  0.43400728726E+02  0.00000000000E+00 0.  1.
         11    1    3    3    0    0  0.71018816593E+01  0.46914726261E+01 -0.41778770529E+01  0.94816293660E+01  0.51100000000E-03 0. -1.
        -11    1    3    3    0    0  0.51075921899E+00 -0.99427460951E+00 -0.76587001452E+01  0.77398414166E+01  0.51100000000E-03 0.  1.
        -12    1    3    3    0    0  0.23423467268E+02 -0.70950806145E+01 -0.18310356957E+02  0.30565800491E+02  0.00000000000E+00 0.  1.
</event>
<event>
 7    1  0.4675811E-010  0.4778727E+02  0.7816164E-02  0.1312668E+00
        -11   -1    0    0    0    0  0.00000000000E+00  0.00000000000E+00  0.45593999997E+02  0.45594000000E+02  0.51100000000E-03 0.  1.
         11   -1    0    0    0    0 -0.00000000000E+00 -0.00000000000E+00 -0.45593999997E+02  0.45594000000E+02  0.51100000000E-03 0. -1.
    9900012    2    1    2    0    0  0.29157558366E+02  0.25503521606E+02 -0.19571163731E+02  0.47787271044E+02  0.19999999996E+02 0.  0.
        -12    1    1    2    0    0 -0.29157558366E+02 -0.25503521606E+02  0.19571163731E+02  0.43400728956E+02  0.00000000000E+00 0.  1.
         11    1    3    3    0    0  0.15224638630E+02  0.10060732779E+02 -0.13414440733E+02  0.22648513989E+02  0.51100000000E-03 0. -1.
        -11    1    3    3    0    0  0.10971081100E+02  0.12508088383E+02 -0.10047141272E+02  0.19436098978E+02  0.51100000000E-03 0.  1.
        -12    1    3    3    0    0  0.29618386361E+01  0.29347004432E+01  0.38904182732E+01  0.57026580766E+01  0.00000000000E+00 0.  1.
</event>
<event>
 7    1  0.4675811E-010  0.4778727E+02  0.7816164E-02  0.1312668E+00
        -11   -1    0    0    0    0  0.00000000000E+00  0.00000000000E+00  0.45593999997E+02  0.45594000000E+02  0.51100000000E-03 0.  1.
         11   -1    0    0    0    0 -0.00000000000E+00 -0.00000000000E+00 -0.45593999997E+02  0.45594000000E+02  0.51100000000E-03 0. -1.
    9900012    2    1    2    0    0 -0.43524527090E+01 -0.32561620746E+02 -0.28362303780E+02  0.47787271137E+02  0.20000000421E+02 0.  0.
        -12    1    1    2    0    0  0.43524527090E+01  0.32561620746E+02  0.28362303780E+02  0.43400728863E+02  0.00000000000E+00 0.  1.
         11    1    3    3    0    0 -0.47661671607E+01 -0.23756296779E+01 -0.20541183882E+01  0.57078339485E+01  0.51100000000E-03 0. -1.
        -11    1    3    3    0    0 -0.23218401389E+01 -0.16670456101E+02 -0.67177917332E+01  0.18122466010E+02  0.51100000000E-03 0.  1.
         12    1    3    3    0    0  0.27355545905E+01 -0.13515534967E+02 -0.19590393658E+02  0.23956971178E+02  0.00000000000E+00 0. -1.
</event>
<event>
 7    1  0.4675811E-010  0.4778727E+02  0.7816164E-02  0.1312668E+00
        -11   -1    0    0    0    0  0.00000000000E+00  0.00000000000E+00  0.45593999997E+02  0.45594000000E+02  0.51100000000E-03 0. -1.
         11   -1    0    0    0    0 -0.00000000000E+00 -0.00000000000E+00 -0.45593999997E+02  0.45594000000E+02  0.51100000000E-03 0.  1.
    9900012    2    1    2    0    0 -0.30310468087E+02 -0.26064715323E+02  0.16897628943E+02  0.47787265854E+02  0.19999976333E+02 0.  0.
        -12    1    1    2    0    0  0.30310468087E+02  0.26064715323E+02 -0.16897628943E+02  0.43400734146E+02  0.00000000000E+00 0.  1.
         11    1    3    3    0    0 -0.32112324530E+02 -0.21141553502E+02  0.14001742472E+02  0.40917178101E+02  0.51100000000E-03 0. -1.
        -11    1    3    3    0    0  0.31466634291E-01 -0.19240442931E+00 -0.66301221687E+00  0.69108253800E+00  0.51100000000E-03 0.  1.
         12    1    3    3    0    0  0.17703898086E+01 -0.47307573919E+01  0.35588986879E+01  0.61790052150E+01  0.00000000000E+00 0. -1.
</event>
<event>
 7    1  0.4675811E-010  0.4778727E+02  0.7816164E-02  0.1312668E+00
        -11   -1    0    0    0    0  0.00000000000E+00  0.00000000000E+00  0.45593999997E+02  0.45594000000E+02  0.51100000000E-03 0.  1.
         11   -1    0    0    0    0 -0.00000000000E+00 -0.00000000000E+00 -0.45593999997E+02  0.45594000000E+02  0.51100000000E-03 0. -1.
    9900012    2    1    2    0    0  0.18251408620E+02  0.20360409353E+02 -0.33704051322E+02  0.47787271191E+02  0.20000000668E+02 0.  0.
        -12    1    1    2    0    0 -0.18251408620E+02 -0.20360409353E+02  0.33704051322E+02  0.43400728809E+02  0.00000000000E+00 0.  1.
         11    1    3    3    0    0 -0.45791446505E+00  0.53488411961E+01 -0.24862804091E+01  0.59161962723E+01  0.51100000000E-03 0. -1.
        -11    1    3    3    0    0  0.55871503350E+01 -0.48618439604E+00 -0.13747646770E+01  0.57743053531E+01  0.51100000000E-03 0.  1.
         12    1    3    3    0    0  0.13122172750E+02  0.15497752552E+02 -0.29843006236E+02  0.36096769566E+02  0.00000000000E+00 0. -1.
</event>
<event>
 7    1  0.4675811E-010  0.4778727E+02  0.7816164E-02  0.1312668E+00
        -11   -1    0    0    0    0  0.00000000000E+00  0.00000000000E+00  0.45593999997E+02  0.45594000000E+02  0.51100000000E-03 0.  1.
         11   -1    0    0    0    0 -0.00000000000E+00 -0.00000000000E+00 -0.45593999997E+02  0.45594000000E+02  0.51100000000E-03 0. -1.
    9900012    2    1    2    0    0 -0.41747637108E+02 -0.98495434299E+01 -0.66139605408E+01  0.47787272080E+02  0.20000004724E+02 0.  0.
        -12    1    1    2    0    0  0.41747637108E+02  0.98495434299E+01  0.66139605408E+01  0.43400727920E+02  0.00000000000E+00 0.  1.
         11    1    3    3    0    0 -0.14710092275E+02 -0.12916896310E+01 -0.67548575299E+01  0.16238330498E+02  0.51100000000E-03 0. -1.
        -11    1    3    3    0    0 -0.16116376376E+02  0.21355173771E+01 -0.25340753349E+00  0.16259220079E+02  0.51100000000E-03 0.  1.
        -12    1    3    3    0    0 -0.10921168458E+02 -0.10693371176E+02  0.39430452264E+00  0.15289721503E+02  0.00000000000E+00 0.  1.
</event>
<event>
 7    1  0.4675811E-010  0.4778727E+02  0.7816164E-02  0.1312668E+00
        -11   -1    0    0    0    0  0.00000000000E+00  0.00000000000E+00  0.45593999997E+02  0.45594000000E+02  0.51100000000E-03 0.  1.
         11   -1    0    0    0    0 -0.00000000000E+00 -0.00000000000E+00 -0.45593999997E+02  0.45594000000E+02  0.51100000000E-03 0. -1.
    9900012    2    1    2    0    0  0.31456155778E+02 -0.19324662613E+02 -0.22818654924E+02  0.47787270352E+02  0.19999996842E+02 0.  0.
        -12    1    1    2    0    0 -0.31456155778E+02  0.19324662613E+02  0.22818654924E+02  0.43400729648E+02  0.00000000000E+00 0.  1.
         11    1    3    3    0    0  0.19364777756E+02 -0.11062062511E+02 -0.13021461212E+02  0.25824838758E+02  0.51100000000E-03 0. -1.
        -11    1    3    3    0    0  0.11294960323E+02 -0.99598087202E+01 -0.35937616455E+01  0.15481893988E+02  0.51100000000E-03 0.  1.
        -12    1    3    3    0    0  0.79641769955E+00  0.16972086184E+01 -0.62034320667E+01  0.64805376052E+01  0.00000000000E+00 0.  1.
</event>
<event>
 7    1  0.4675811E-010  0.4778727E+02  0.7816164E-02  0.1312668E+00
        -11   -1    0    0    0    0  0.00000000000E+00  0.00000000000E+00  0.45593999997E+02  0.45594000000E+02  0.51100000000E-03 0. -1.
         11   -1    0    0    0    0 -0.00000000000E+00 -0.00000000000E+00 -0.45593999997E+02  0.45594000000E+02  0.51100000000E-03 0.  1.
    9900012    2    1    2    0    0 -0.29316848632E+02  0.31725678170E+02 -0.41984288022E+01  0.47787273354E+02  0.20000010529E+02 0.  0.
        -12    1    1    2    0    0  0.29316848632E+02 -0.31725678170E+02  0.41984288022E+01  0.43400726646E+02  0.00000000000E+00 0.  1.
         11    1    3    3    0    0 -0.13192123097E+02  0.45529433856E+01 -0.18516284184E+01  0.14077994649E+02  0.51100000000E-03 0. -1.
        -11    1    3    3    0    0 -0.22533391914E+00  0.43920979876E+01 -0.39104216438E+01  0.58849552081E+01  0.51100000000E-03 0.  1.
         12    1    3    3    0    0 -0.15899391615E+02  0.22780636796E+02  0.15636212600E+01  0.27824323496E+02  0.00000000000E+00 0. -1.
</event>
<event>
 7    1  0.4675811E-010  0.4778727E+02  0.7816164E-02  0.1312668E+00
        -11   -1    0    0    0    0  0.00000000000E+00  0.00000000000E+00  0.45593999997E+02  0.45594000000E+02  0.51100000000E-03 0.  1.
         11   -1    0    0    0    0 -0.00000000000E+00 -0.00000000000E+00 -0.45593999997E+02  0.45594000000E+02  0.51100000000E-03 0. -1.
    9900012    2    1    2    0    0 -0.30692899111E+02  0.21689546218E+02 -0.21705600103E+02  0.47787267900E+02  0.19999985664E+02 0.  0.
        -12    1    1    2    0    0  0.30692899111E+02 -0.21689546218E+02  0.21705600103E+02  0.43400732100E+02  0.00000000000E+00 0.  1.
         11    1    3    3    0    0 -0.47149502191E+01  0.32455337111E+01 -0.14961426075E+00  0.57259609959E+01  0.51100000000E-03 0. -1.
        -11    1    3    3    0    0 -0.64542452606E+01  0.14295663938E+02 -0.12888042030E+02  0.20300860005E+02  0.51100000000E-03 0.  1.
        -12    1    3    3    0    0 -0.19523703631E+02  0.41483485691E+01 -0.86679438119E+01  0.21760446899E+02  0.00000000000E+00 0.  1.
</event>
<event>
 7    1  0.4675811E-010  0.4778727E+02  0.7816164E-02  0.1312668E+00
        -11   -1    0    0    0    0  0.00000000000E+00  0.00000000000E+00  0.45593999997E+02  0.45594000000E+02  0.51100000000E-03 0. -1.
         11   -1    0    0    0    0 -0.00000000000E+00 -0.00000000000E+00 -0.45593999997E+02  0.45594000000E+02  0.51100000000E-03 0.  1.
    9900012    2    1    2    0    0  0.25842214924E+02  0.19938815168E+01  0.34811314166E+02  0.47787271554E+02  0.20000002323E+02 0.  0.
        -12    1    1    2    0    0 -0.25842214924E+02 -0.19938815168E+01 -0.34811314166E+02  0.43400728446E+02  0.00000000000E+00 0.  1.
         11    1    3    3    0    0  0.21738993654E+02 -0.42153360275E+01  0.27044924632E+02  0.34953981912E+02  0.51100000000E-03 0. -1.
        -11    1    3    3    0    0  0.28249219065E+01 -0.89139469707E+00  0.17605418470E+01  0.34459071578E+01  0.51100000000E-03 0.  1.
        -12    1    3    3    0    0  0.12782993641E+01  0.71006122414E+01  0.60058476863E+01  0.93873824838E+01  0.00000000000E+00 0.  1.
</event>
<event>
 7    1  0.4675811E-010  0.4778726E+02  0.7816164E-02  0.1312668E+00
        -11   -1    0    0    0    0  0.00000000000E+00  0.00000000000E+00  0.45593999997E+02  0.45594000000E+02  0.51100000000E-03 0.  1.
         11   -1    0    0    0    0 -0.00000000000E+00 -0.00000000000E+00 -0.45593999997E+02  0.45594000000E+02  0.51100000000E-03 0. -1.
    9900012    2    1    2    0    0 -0.40521021794E+02  0.32354324784E+01 -0.15205375185E+02  0.47787255017E+02  0.19999926924E+02 0.  0.
        -12    1    1    2    0    0  0.40521021794E+02 -0.32354324784E+01  0.15205375185E+02  0.43400744983E+02  0.00000000000E+00 0.  1.
         11    1    3    3    0    0 -0.55842033628E+01 -0.24310153595E+01 -0.38668749890E+01  0.72142834236E+01  0.51100000000E-03 0. -1.
        -11    1    3    3    0    0  0.47272299006E+00  0.32483973565E+01  0.97425659942E-01  0.32840591394E+01  0.51100000000E-03 0.  1.
         12    1    3    3    0    0 -0.35409541421E+02  0.24180504814E+01 -0.11435925856E+02  0.37288912454E+02  0.00000000000E+00 0. -1.
</event>
<event>
 7    1  0.4675811E-010  0.4778725E+02  0.7816164E-02  0.1312668E+00
        -11   -1    0    0    0    0  0.00000000000E+00  0.00000000000E+00  0.45593999997E+02  0.45594000000E+02  0.51100000000E-03 0. -1.
         11   -1    0    0    0    0 -0.00000000000E+00 -0.00000000000E+00 -0.45593999997E+02  0.45594000000E+02  0.51100000000E-03 0.  1.
    9900012    2    1    2    0    0  0.21797956139E+02 -0.37979794300E+01  0.37336976970E+02  0.47787246679E+02  0.19999888909E+02 0.  0.
        -12    1    1    2    0    0 -0.21797956139E+02  0.37979794300E+01 -0.37336976970E+02  0.43400753321E+02  0.00000000000E+00 0.  1.
         11    1    3    3    0    0  0.30835778191E+01 -0.47043977459E+01  0.21953845111E+01  0.60381722177E+01  0.51100000000E-03 0.  1.
        -11    1    3    3    0    0  0.13206737870E+02 -0.52620092899E+01  0.23590852156E+02  0.27543329005E+02  0.51100000000E-03 0. -1.
         12    1    3    3    0    0  0.55076404495E+01  0.61684276058E+01  0.11550740302E+02  0.14205745457E+02  0.00000000000E+00 0. -1.
</event>
<event>
 7    1  0.4675811E-010  0.4778727E+02  0.7816164E-02  0.1312668E+00
        -11   -1    0    0    0    0  0.00000000000E+00  0.00000000000E+00  0.45593999997E+02  0.45594000000E+02  0.51100000000E-03 0. -1.
         11   -1    0    0    0    0 -0.00000000000E+00 -0.00000000000E+00 -0.45593999997E+02  0.45594000000E+02  0.51100000000E-03 0.  1.
    9900012    2    1    2    0    0 -0.85948904959E+01 -0.35201534484E+02  0.23887303015E+02  0.47787269384E+02  0.19999992431E+02 0.  0.
        -12    1    1    2    0    0  0.85948904959E+01  0.35201534484E+02 -0.23887303015E+02  0.43400730616E+02  0.00000000000E+00 0.  1.
         11    1    3    3    0    0 -0.10746458578E+01 -0.88355975222E+01  0.86127879164E+01  0.12385586916E+02  0.51100000000E-03 0.  1.
        -11    1    3    3    0    0 -0.67856200052E+01 -0.19364417548E+02  0.18528087363E+02  0.27646253406E+02  0.51100000000E-03 0. -1.
        -12    1    3    3    0    0 -0.73462463289E+00 -0.70015194141E+01 -0.32535722646E+01  0.77554290622E+01  0.00000000000E+00 0.  1.
</event>
<event>
 7    1  0.4675811E-010  0.4778734E+02  0.7816164E-02  0.1312667E+00
        -11   -1    0    0    0    0  0.00000000000E+00  0.00000000000E+00  0.45593999997E+02  0.45594000000E+02  0.51100000000E-03 0.  1.
         11   -1    0    0    0    0 -0.00000000000E+00 -0.00000000000E+00 -0.45593999997E+02  0.45594000000E+02  0.51100000000E-03 0. -1.
    9900012    2    1    2    0    0  0.11659256007E+02 -0.39915598035E+02 -0.12426765075E+02  0.47787335173E+02  0.20000292387E+02 0.  0.
        -12    1    1    2    0    0 -0.11659256007E+02  0.39915598035E+02  0.12426765075E+02  0.43400664827E+02  0.00000000000E+00 0.  1.
         11    1    3    3    0    0  0.18837333391E+01 -0.17940973060E+02 -0.46252646373E+01  0.18623104974E+02  0.51100000000E-03 0. -1.
        -11    1    3    3    0    0  0.65948933215E+01 -0.21574393320E+02 -0.21438475357E+01  0.22661490409E+02  0.51100000000E-03 0.  1.
        -12    1    3    3    0    0  0.31806293469E+01 -0.40023165510E+00 -0.56576529021E+01  0.65027397903E+01  0.00000000000E+00 0.  1.
</event>
<event>
 7    1  0.4675811E-010  0.4778726E+02  0.7816164E-02  0.1312668E+00
        -11   -1    0    0    0    0  0.00000000000E+00  0.00000000000E+00  0.45593999997E+02  0.45594000000E+02  0.51100000000E-03 0. -1.
         11   -1    0    0    0    0 -0.00000000000E+00 -0.00000000000E+00 -0.45593999997E+02  0.45594000000E+02  0.51100000000E-03 0.  1.
    9900012    2    1    2    0    0 -0.36948221861E+02  0.12993331595E+02  0.18698302671E+02  0.47787259368E+02  0.19999946764E+02 0.  0.
        -12    1    1    2    0    0  0.36948221861E+02 -0.12993331595E+02 -0.18698302671E+02  0.43400740632E+02  0.00000000000E+00 0.  1.
         11    1    3    3    0    0 -0.19623486395E+02  0.10320319581E+02  0.14780542854E+02  0.26646850881E+02  0.51100000000E-03 0. -1.
        -11    1    3    3    0    0 -0.17389501409E+02  0.52268249854E+01  0.39625680019E+01  0.18585381463E+02  0.51100000000E-03 0.  1.
        -12    1    3    3    0    0  0.64765943568E-01 -0.25538129716E+01 -0.44808185153E-01  0.25550270243E+01  0.00000000000E+00 0.  1.
</event>
<event>
 7    1  0.4675811E-010  0.4778727E+02  0.7816164E-02  0.1312668E+00
        -11   -1    0    0    0    0  0.00000000000E+00  0.00000000000E+00  0.45593999997E+02  0.45594000000E+02  0.51100000000E-03 0.  1.
         11   -1    0    0    0    0 -0.00000000000E+00 -0.00000000000E+00 -0.45593999997E+02  0.45594000000E+02  0.51100000000E-03 0. -1.
    9900012    2    1    2    0    0  0.24727837812E+02  0.15036421829E+02 -0.32342900825E+02  0.47787272148E+02  0.20000005033E+02 0.  0.
        -12    1    1    2    0    0 -0.24727837812E+02 -0.15036421829E+02  0.32342900825E+02  0.43400727852E+02  0.00000000000E+00 0.  1.
         11    1    3    3    0    0  0.23884234832E+02  0.10854474318E+02 -0.25504919051E+02  0.36589304207E+02  0.51100000000E-03 0. -1.
        -11    1    3    3    0    0  0.33830629738E+01  0.12997803364E+01 -0.63692465494E+01  0.73281543294E+01  0.51100000000E-03 0.  1.
        -12    1    3    3    0    0 -0.25394599943E+01  0.28821671742E+01 -0.46873522452E+00  0.38698136122E+01  0.00000000000E+00 0.  1.
</event>
<event>
 7    1  0.4675811E-010  0.4778727E+02  0.7816164E-02  0.1312668E+00
        -11   -1    0    0    0    0  0.00000000000E+00  0.00000000000E+00  0.45593999997E+02  0.45594000000E+02  0.51100000000E-03 0. -1.
         11   -1    0    0    0    0 -0.00000000000E+00 -0.00000000000E+00 -0.45593999997E+02  0.45594000000E+02  0.51100000000E-03 0.  1.
    9900012    2    1    2    0    0  0.40367452168E+02  0.45786675596E+01 -0.15268526160E+02  0.47787270948E+02  0.19999999559E+02 0.  0.
        -12    1    1    2    0    0 -0.40367452168E+02 -0.45786675596E+01  0.15268526160E+02  0.43400729052E+02  0.00000000000E+00 0.  1.
         11    1    3    3    0    0  0.17071560930E+02  0.66103388289E+01  0.55213470276E+00  0.18315010921E+02  0.51100000000E-03 0. -1.
        -11    1    3    3    0    0  0.90143835945E+01  0.60125878214E+00 -0.16538918172E+01  0.91845512746E+01  0.51100000000E-03 0.  1.
        -12    1    3    3    0    0  0.14281507643E+02 -0.26329300514E+01 -0.14166769046E+02  0.20287708752E+02  0.00000000000E+00 0.  1.
</event>
<event>
 7    1  0.4675811E-010  0.4778727E+02  0.7816164E-02  0.1312668E+00
        -11   -1    0    0    0    0  0.00000000000E+00  0.00000000000E+00  0.45593999997E+02  0.45594000000E+02  0.51100000000E-03 0.  1.
         11   -1    0    0    0    0 -0.00000000000E+00 -0.00000000000E+00 -0.45593999997E+02  0.45594000000E+02  0.51100000000E-03 0. -1.
    9900012    2    1    2    0    0 -0.19198484611E+02  0.11222076705E+02 -0.37270718968E+02  0.47787270636E+02  0.19999998137E+02 0.  0.
        -12    1    1    2    0    0  0.19198484611E+02 -0.11222076705E+02  0.37270718968E+02  0.43400729364E+02  0.00000000000E+00 0.  1.
         11    1    3    3    0    0 -0.13489920835E+02  0.78035020790E+01 -0.18315280993E+02  0.24048328985E+02  0.51100000000E-03 0. -1.
        -11    1    3    3    0    0 -0.64115536436E+01  0.19285442869E+01 -0.24163688525E+01  0.71180153051E+01  0.51100000000E-03 0.  1.
        -12    1    3    3    0    0  0.70298986716E+00  0.14900303389E+01 -0.16539069122E+02  0.16620926346E+02  0.00000000000E+00 0.  1.
</event>
<event>
 7    1  0.4675811E-010  0.4778727E+02  0.7816164E-02  0.1312668E+00
        -11   -1    0    0    0    0  0.00000000000E+00  0.00000000000E+00  0.45593999997E+02  0.45594000000E+02  0.51100000000E-03 0.  1.
         11   -1    0    0    0    0 -0.00000000000E+00 -0.00000000000E+00 -0.45593999997E+02  0.45594000000E+02  0.51100000000E-03 0. -1.
    9900012    2    1    2    0    0 -0.61515008132E+01  0.14995266837E+02 -0.40260705506E+02  0.47787269619E+02  0.19999993500E+02 0.  0.
        -12    1    1    2    0    0  0.61515008132E+01 -0.14995266837E+02  0.40260705506E+02  0.43400730381E+02  0.00000000000E+00 0.  1.
         11    1    3    3    0    0 -0.19497902945E+01  0.42738356481E+01 -0.82330945737E+00  0.47691919717E+01  0.51100000000E-03 0.  1.
        -11    1    3    3    0    0 -0.50208852286E+01  0.94717683390E+01 -0.40007430377E+02  0.41418814198E+02  0.51100000000E-03 0. -1.
         12    1    3    3    0    0  0.81917470992E+00  0.12496628495E+01  0.57003432826E+00  0.15992634486E+01  0.00000000000E+00 0. -1.
</event>
<event>
 7    1  0.4675811E-010  0.4778727E+02  0.7816164E-02  0.1312668E+00
        -11   -1    0    0    0    0  0.00000000000E+00  0.00000000000E+00  0.45593999997E+02  0.45594000000E+02  0.51100000000E-03 0.  1.
         11   -1    0    0    0    0 -0.00000000000E+00 -0.00000000000E+00 -0.45593999997E+02  0.45594000000E+02  0.51100000000E-03 0. -1.
    9900012    2    1    2    0    0 -0.37912993669E+02 -0.20968513536E+02  0.25592437923E+01  0.47787269849E+02  0.19999994548E+02 0.  0.
        -12    1    1    2    0    0  0.37912993669E+02  0.20968513536E+02 -0.25592437923E+01  0.43400730151E+02  0.00000000000E+00 0.  1.
         11    1    3    3    0    0 -0.20722559348E+02 -0.13937853759E+02 -0.37793561366E+01  0.25258102985E+02  0.51100000000E-03 0. -1.
        -11    1    3    3    0    0 -0.17572557722E+02 -0.60510783752E+01  0.27473886219E+01  0.18787189223E+02  0.51100000000E-03 0.  1.
        -12    1    3    3    0    0  0.38212340013E+00 -0.97958140205E+00  0.35912113070E+01  0.37419776413E+01  0.00000000000E+00 0.  1.
</event>
<event>
 7    1  0.4675811E-010  0.4778727E+02  0.7816164E-02  0.1312668E+00
        -11   -1    0    0    0    0  0.00000000000E+00  0.00000000000E+00  0.45593999997E+02  0.45594000000E+02  0.51100000000E-03 0. -1.
         11   -1    0    0    0    0 -0.00000000000E+00 -0.00000000000E+00 -0.45593999997E+02  0.45594000000E+02  0.51100000000E-03 0.  1.
    9900012    2    1    2    0    0 -0.15345767536E+02  0.19968294111E+02  0.35346827115E+02  0.47787268001E+02  0.19999986125E+02 0.  0.
        -12    1    1    2    0    0  0.15345767536E+02 -0.19968294111E+02 -0.35346827115E+02  0.43400731999E+02  0.00000000000E+00 0.  1.
         11    1    3    3    0    0 -0.62346176056E+01  0.18174164388E+02  0.16941041573E+02  0.25615807575E+02  0.51100000000E-03 0.  1.
        -11    1    3    3    0    0  0.14511016983E+00  0.95345030637E+00  0.86255926992E+01  0.86793418024E+01  0.51100000000E-03 0. -1.
        -12    1    3    3    0    0 -0.92562600997E+01  0.84067941624E+00  0.97801928426E+01  0.13492118624E+02  0.00000000000E+00 0.  1.
</event>
<event>
 7    1  0.4675811E-010  0.4778727E+02  0.7816164E-02  0.1312668E+00
        -11   -1    0    0    0    0  0.00000000000E+00  0.00000000000E+00  0.45593999997E+02  0.45594000000E+02  0.51100000000E-03 0.  1.
         11   -1    0    0    0    0 -0.00000000000E+00 -0.00000000000E+00 -0.45593999997E+02  0.45594000000E+02  0.51100000000E-03 0. -1.
    9900012    2    1    2    0    0  0.21669646312E+02 -0.15512332112E+02 -0.34255179307E+02  0.47787270418E+02  0.19999997145E+02 0.  0.
        -12    1    1    2    0    0 -0.21669646312E+02  0.15512332112E+02  0.34255179307E+02  0.43400729582E+02  0.00000000000E+00 0.  1.
         11    1    3    3    0    0  0.44825312181E+01 -0.10469733006E+02 -0.95760397862E+01  0.14879816316E+02  0.51100000000E-03 0. -1.
        -11    1    3    3    0    0 -0.18078601069E+01 -0.85023200852E+00 -0.42640234162E+01  0.47088372864E+01  0.51100000000E-03 0.  1.
         12    1    3    3    0    0  0.18994975201E+02 -0.41923670967E+01 -0.20415116105E+02  0.28198616816E+02  0.00000000000E+00 0. -1.
</event>
<event>
 7    1  0.4675811E-010  0.4778727E+02  0.7816164E-02  0.1312668E+00
        -11   -1    0    0    0    0  0.00000000000E+00  0.00000000000E+00  0.45593999997E+02  0.45594000000E+02  0.51100000000E-03 0.  1.
         11   -1    0    0    0    0 -0.00000000000E+00 -0.00000000000E+00 -0.45593999997E+02  0.45594000000E+02  0.51100000000E-03 0. -1.
    9900012    2    1    2    0    0 -0.31417323623E+02  0.69438171598E+01 -0.29126597552E+02  0.47787268378E+02  0.19999987842E+02 0.  0.
        -12    1    1    2    0    0  0.31417323623E+02 -0.69438171598E+01  0.29126597552E+02  0.43400731622E+02  0.00000000000E+00 0.  1.
         11    1    3    3    0    0 -0.77943066044E+01 -0.15216924880E+01 -0.55414360852E+01  0.96837119753E+01  0.51100000000E-03 0. -1.
        -11    1    3    3    0    0 -0.22502140786E+02  0.15490623509E+01 -0.15310660195E+02  0.27261002366E+02  0.51100000000E-03 0.  1.
        -12    1    3    3    0    0 -0.11208762320E+01  0.69164472968E+01 -0.82745012721E+01  0.10842554037E+02  0.00000000000E+00 0.  1.
</event>
<event>
 7    1  0.4675811E-010  0.4778727E+02  0.7816164E-02  0.1312668E+00
        -11   -1    0    0    0    0  0.00000000000E+00  0.00000000000E+00  0.45593999997E+02  0.45594000000E+02  0.51100000000E-03 0.  1.
         11   -1    0    0    0    0 -0.00000000000E+00 -0.00000000000E+00 -0.45593999997E+02  0.45594000000E+02  0.51100000000E-03 0. -1.
    9900012    2    1    2    0    0  0.11949239869E+02  0.36782834726E+02 -0.19694213877E+02  0.47787270465E+02  0.19999997358E+02 0.  0.
        -12    1    1    2    0    0 -0.11949239869E+02 -0.36782834726E+02  0.19694213877E+02  0.43400729535E+02  0.00000000000E+00 0.  1.
         11    1    3    3    0    0  0.59240224055E+01  0.68499796030E+01 -0.91029439764E+01  0.12840554946E+02  0.51100000000E-03 0. -1.
        -11    1    3    3    0    0  0.17923665077E+01  0.11293745868E+02 -0.10946180763E+02  0.15829723528E+02  0.51100000000E-03 0.  1.
        -12    1    3    3    0    0  0.42328509561E+01  0.18639109255E+02  0.35491086237E+00  0.19116991991E+02  0.00000000000E+00 0.  1.
</event>
<event>
 7    1  0.4675811E-010  0.4778727E+02  0.7816164E-02  0.1312668E+00
        -11   -1    0    0    0    0  0.00000000000E+00  0.00000000000E+00  0.45593999997E+02  0.45594000000E+02  0.51100000000E-03 0.  1.
         11   -1    0    0    0    0 -0.00000000000E+00 -0.00000000000E+00 -0.45593999997E+02  0.45594000000E+02  0.51100000000E-03 0. -1.
    9900012    2    1    2    0    0  0.22738278234E+01 -0.24483804445E+02 -0.35763060864E+02  0.47787268491E+02  0.19999988360E+02 0.  0.
        -12    1    1    2    0    0 -0.22738278234E+01  0.24483804445E+02  0.35763060864E+02  0.43400731509E+02  0.00000000000E+00 0.  1.
         11    1    3    3    0    0 -0.10445088227E+01 -0.57187821403E+01 -0.16549887966E+02  0.17541216030E+02  0.51100000000E-03 0. -1.
        -11    1    3    3    0    0 -0.21596664574E+00 -0.82423516444E+01 -0.22133844955E+00  0.82481508953E+01  0.51100000000E-03 0.  1.
         12    1    3    3    0    0  0.35343032918E+01 -0.10522670661E+02 -0.18991834449E+02  0.21997901566E+02  0.00000000000E+00 0. -1.
</event>
<event>
 7    1  0.4675811E-010  0.4778727E+02  0.7816164E-02  0.1312668E+00
        -11   -1    0    0    0    0  0.00000000000E+00  0.00000000000E+00  0.45593999997E+02  0.45594000000E+02  0.51100000000E-03 0. -1.
         11   -1    0    0    0    0 -0.00000000000E+00 -0.00000000000E+00 -0.45593999997E+02  0.45594000000E+02  0.51100000000E-03 0.  1.
    9900012    2    1    2    0    0 -0.86931993078E+01 -0.23738957079E+02  0.35277664294E+02  0.47787269644E+02  0.19999993613E+02 0.  0.
        -12    1    1    2    0    0  0.86931993078E+01  0.23738957079E+02 -0.35277664294E+02  0.43400730356E+02  0.00000000000E+00 0.  1.
         11    1    3    3    0    0 -0.58846267165E+01 -0.16334301151E+02  0.15832467098E+02  0.23496919806E+02  0.51100000000E-03 0. -1.
        -11    1    3    3    0    0  0.87389921248E+00 -0.32666286625E+01 -0.65195821798E+00  0.34437788012E+01  0.51100000000E-03 0.  1.
        -12    1    3    3    0    0 -0.36824718038E+01 -0.41380272652E+01  0.20097155415E+02  0.20846571037E+02  0.00000000000E+00 0.  1.
</event>
<event>
 7    1  0.4675811E-010  0.4778727E+02  0.7816164E-02  0.1312668E+00
        -11   -1    0    0    0    0  0.00000000000E+00  0.00000000000E+00  0.45593999997E+02  0.45594000000E+02  0.51100000000E-03 0.  1.
         11   -1    0    0    0    0 -0.00000000000E+00 -0.00000000000E+00 -0.45593999997E+02  0.45594000000E+02  0.51100000000E-03 0. -1.
    9900012    2    1    2    0    0  0.65143984352E+01  0.42897686579E+02 -0.98722291259E+00  0.47787268325E+02  0.19999987603E+02 0.  0.
        -12    1    1    2    0    0 -0.65143984352E+01 -0.42897686579E+02  0.98722291259E+00  0.43400731675E+02  0.00000000000E+00 0.  1.
         11    1    3    3    0    0  0.17979547019E+01  0.20028972243E+01  0.97475757890E+00  0.28625846712E+01  0.51100000000E-03 0. -1.
        -11    1    3    3    0    0 -0.64001935216E+00  0.13225656178E+01 -0.46740959405E+01  0.48995895447E+01  0.51100000000E-03 0.  1.
         12    1    3    3    0    0  0.53564630854E+01  0.39572223737E+02  0.27121154490E+01  0.40025094110E+02  0.00000000000E+00 0. -1.
</event>
<event>
 7    1  0.4675811E-010  0.4778727E+02  0.7816164E-02  0.1312668E+00
        -11   -1    0    0    0    0  0.00000000000E+00  0.00000000000E+00  0.45593999997E+02  0.45594000000E+02  0.51100000000E-03 0.  1.
         11   -1    0    0    0    0 -0.00000000000E+00 -0.00000000000E+00 -0.45593999997E+02  0.45594000000E+02  0.51100000000E-03 0. -1.
    9900012    2    1    2    0    0 -0.49311441406E+01  0.15971696638E+02 -0.40052616393E+02  0.47787270098E+02  0.19999995687E+02 0.  0.
        -12    1    1    2    0    0  0.49311441406E+01 -0.15971696638E+02  0.40052616393E+02  0.43400729902E+02  0.00000000000E+00 0.  1.
         11    1    3    3    0    0 -0.50025167703E+01  0.18044007095E+01 -0.19002920096E+02  0.19733018228E+02  0.51100000000E-03 0. -1.
        -11    1    3    3    0    0  0.15875705123E+01 -0.11255263357E+01  0.55436976607E-01  0.19468598263E+01  0.51100000000E-03 0.  1.
        -12    1    3    3    0    0 -0.15161978826E+01  0.15292822265E+02 -0.21105133274E+02  0.26107392044E+02  0.00000000000E+00 0.  1.
</event>
<event>
 7    1  0.4675811E-010  0.4778727E+02  0.7816164E-02  0.1312668E+00
        -11   -1    0    0    0    0  0.00000000000E+00  0.00000000000E+00  0.45593999997E+02  0.45594000000E+02  0.51100000000E-03 0.  1.
         11   -1    0    0    0    0 -0.00000000000E+00 -0.00000000000E+00 -0.45593999997E+02  0.45594000000E+02  0.51100000000E-03 0. -1.
    9900012    2    1    2    0    0  0.45694856344E+01  0.18726498370E+02 -0.38885233845E+02  0.47787270152E+02  0.19999995931E+02 0.  0.
        -12    1    1    2    0    0 -0.45694856344E+01 -0.18726498370E+02  0.38885233845E+02  0.43400729848E+02  0.00000000000E+00 0.  1.
         11    1    3    3    0    0 -0.57324092808E+01  0.10394073047E+02 -0.21883713220E+02  0.24895665792E+02  0.51100000000E-03 0. -1.
        -11    1    3    3    0    0  0.36384595031E+00  0.12594496400E+01  0.62792208947E+00  0.14535761703E+01  0.51100000000E-03 0.  1.
         12    1    3    3    0    0  0.99380489649E+01  0.70729756829E+01 -0.17629442715E+02  0.21438028190E+02  0.00000000000E+00 0. -1.
</event>
<event>
 7    1  0.4675811E-010  0.4778727E+02  0.7816164E-02  0.1312668E+00
        -11   -1    0    0    0    0  0.00000000000E+00  0.00000000000E+00  0.45593999997E+02  0.45594000000E+02  0.51100000000E-03 0. -1.
         11   -1    0    0    0    0 -0.00000000000E+00 -0.00000000000E+00 -0.45593999997E+02  0.45594000000E+02  0.51100000000E-03 0.  1.
    9900012    2    1    2    0    0 -0.41684320051E+02  0.10760080233E+02  0.55010551529E+01  0.47787268756E+02  0.19999989565E+02 0.  0.
        -12    1    1    2    0    0  0.41684320051E+02 -0.10760080233E+02 -0.55010551529E+01  0.43400731244E+02  0.00000000000E+00 0.  1.
         11    1    3    3    0    0 -0.10757148468E+02  0.52588899927E+01  0.25903303016E+01  0.12250795013E+02  0.51100000000E-03 0. -1.
        -11    1    3    3    0    0 -0.44656464740E+01  0.66492930787E+01  0.41502446094E+01  0.90210657605E+01  0.51100000000E-03 0.  1.
         12    1    3    3    0    0 -0.26461525109E+02 -0.11481028388E+01 -0.12395197581E+01  0.26515407982E+02  0.00000000000E+00 0. -1.
</event>
<event>
 7    1  0.4675811E-010  0.4778727E+02  0.7816164E-02  0.1312668E+00
        -11   -1    0    0    0    0  0.00000000000E+00  0.00000000000E+00  0.45593999997E+02  0.45594000000E+02  0.51100000000E-03 0.  1.
         11   -1    0    0    0    0 -0.00000000000E+00 -0.00000000000E+00 -0.45593999997E+02  0.45594000000E+02  0.51100000000E-03 0. -1.
    9900012    2    1    2    0    0  0.16982075294E+02  0.34368288165E+02 -0.20348296183E+02  0.47787271086E+02  0.20000000191E+02 0.  0.
        -12    1    1    2    0    0 -0.16982075294E+02 -0.34368288165E+02  0.20348296183E+02  0.43400728914E+02  0.00000000000E+00 0.  1.
         11    1    3    3    0    0  0.69551667411E+00  0.15973492303E+01 -0.40727030815E+01  0.44296928403E+01  0.51100000000E-03 0. -1.
        -11    1    3    3    0    0  0.22326815147E+01  0.71181182815E+01  0.33040363310E+01  0.81589908048E+01  0.51100000000E-03 0.  1.
         12    1    3    3    0    0  0.14053877105E+02  0.25652820653E+02 -0.19579629432E+02  0.35198587441E+02  0.00000000000E+00 0. -1.
</event>
<event>
 7    1  0.4675811E-010  0.4778727E+02  0.7816164E-02  0.1312668E+00
        -11   -1    0    0    0    0  0.00000000000E+00  0.00000000000E+00  0.45593999997E+02  0.45594000000E+02  0.51100000000E-03 0.  1.
         11   -1    0    0    0    0 -0.00000000000E+00 -0.00000000000E+00 -0.45593999997E+02  0.45594000000E+02  0.51100000000E-03 0. -1.
    9900012    2    1    2    0    0  0.26971430593E+02  0.31672825561E+02 -0.12369205115E+02  0.47787272098E+02  0.20000004805E+02 0.  0.
        -12    1    1    2    0    0 -0.26971430593E+02 -0.31672825561E+02  0.12369205115E+02  0.43400727902E+02  0.00000000000E+00 0.  1.
         11    1    3    3    0    0  0.17598566373E+01  0.22144193484E+01  0.97637029910E+00  0.29923314750E+01  0.51100000000E-03 0. -1.
        -11    1    3    3    0    0  0.68662171243E+00  0.98697563893E+01 -0.84837114285E+01  0.13032916037E+02  0.51100000000E-03 0.  1.
         12    1    3    3    0    0  0.24524952243E+02  0.19588649823E+02 -0.48618639857E+01  0.31762024586E+02  0.00000000000E+00 0. -1.
</event>
<event>
 7    1  0.4675811E-010  0.4778727E+02  0.7816164E-02  0.1312668E+00
        -11   -1    0    0    0    0  0.00000000000E+00  0.00000000000E+00  0.45593999997E+02  0.45594000000E+02  0.51100000000E-03 0.  1.
         11   -1    0    0    0    0 -0.00000000000E+00 -0.00000000000E+00 -0.45593999997E+02  0.45594000000E+02  0.51100000000E-03 0. -1.
    9900012    2    1    2    0    0 -0.27232062326E+01 -0.34515683853E+02 -0.26170117303E+02  0.47787270470E+02  0.19999997382E+02 0.  0.
        -12    1    1    2    0    0  0.27232062326E+01  0.34515683853E+02  0.26170117303E+02  0.43400729530E+02  0.00000000000E+00 0.  1.
         11    1    3    3    0    0  0.15082947395E+01 -0.96471246848E+00 -0.74118318404E+00  0.19377760298E+01  0.51100000000E-03 0. -1.
        -11    1    3    3    0    0 -0.12664112548E+01 -0.34669684645E+02 -0.21552076972E+02  0.40842170032E+02  0.51100000000E-03 0.  1.
        -12    1    3    3    0    0 -0.29650897173E+01  0.11187132602E+01 -0.38768571479E+01  0.50073244088E+01  0.00000000000E+00 0.  1.
</event>
<event>
 7    1  0.4675811E-010  0.4778727E+02  0.7816164E-02  0.1312668E+00
        -11   -1    0    0    0    0  0.00000000000E+00  0.00000000000E+00  0.45593999997E+02  0.45594000000E+02  0.51100000000E-03 0.  1.
         11   -1    0    0    0    0 -0.00000000000E+00 -0.00000000000E+00 -0.45593999997E+02  0.45594000000E+02  0.51100000000E-03 0. -1.
    9900012    2    1    2    0    0 -0.29316594101E+02  0.27708832747E+01 -0.31882324304E+02  0.47787273199E+02  0.20000009823E+02 0.  0.
        -12    1    1    2    0    0  0.29316594101E+02 -0.27708832747E+01  0.31882324304E+02  0.43400726801E+02  0.00000000000E+00 0.  1.
         11    1    3    3    0    0 -0.64965544496E+01  0.17339449709E+01 -0.19916353558E+02  0.21020773634E+02  0.51100000000E-03 0. -1.
        -11    1    3    3    0    0  0.44174822233E+00  0.38134876341E-01 -0.86564487246E+00  0.97259296063E+00  0.51100000000E-03 0.  1.
         12    1    3    3    0    0 -0.23261787874E+02  0.99880342749E+00 -0.11100325874E+02  0.25793906604E+02  0.00000000000E+00 0. -1.
</event>
<event>
 7    1  0.4675811E-010  0.4778728E+02  0.7816164E-02  0.1312668E+00
        -11   -1    0    0    0    0  0.00000000000E+00  0.00000000000E+00  0.45593999997E+02  0.45594000000E+02  0.51100000000E-03 0. -1.
         11   -1    0    0    0    0 -0.00000000000E+00 -0.00000000000E+00 -0.45593999997E+02  0.45594000000E+02  0.51100000000E-03 0.  1.
    9900012    2    1    2    0    0 -0.25124914713E+02 -0.24777898435E+02 -0.25266914513E+02  0.47787279278E+02  0.20000037538E+02 0.  0.
        -12    1    1    2    0    0  0.25124914713E+02  0.24777898435E+02  0.25266914513E+02  0.43400720722E+02  0.00000000000E+00 0.  1.
         11    1    3    3    0    0 -0.90273535329E+01 -0.74263335069E+01  0.19418483368E+00  0.11691075621E+02  0.51100000000E-03 0. -1.
        -11    1    3    3    0    0 -0.44184120851E+01  0.10455208171E+00 -0.60862260318E+01  0.75216649795E+01  0.51100000000E-03 0.  1.
        -12    1    3    3    0    0 -0.11679149095E+02 -0.17456117010E+02 -0.19374873314E+02  0.28574538677E+02  0.00000000000E+00 0.  1.
</event>
<event>
 7    1  0.4675811E-010  0.4778727E+02  0.7816164E-02  0.1312668E+00
        -11   -1    0    0    0    0  0.00000000000E+00  0.00000000000E+00  0.45593999997E+02  0.45594000000E+02  0.51100000000E-03 0.  1.
         11   -1    0    0    0    0 -0.00000000000E+00 -0.00000000000E+00 -0.45593999997E+02  0.45594000000E+02  0.51100000000E-03 0. -1.
    9900012    2    1    2    0    0  0.37004164876E+01 -0.40270431964E+02 -0.15755079928E+02  0.47787270556E+02  0.19999997773E+02 0.  0.
        -12    1    1    2    0    0 -0.37004164876E+01  0.40270431964E+02  0.15755079928E+02  0.43400729444E+02  0.00000000000E+00 0.  1.
         11    1    3    3    0    0  0.36617936473E+00 -0.17738719194E+02 -0.52474823709E+01  0.18502224663E+02  0.51100000000E-03 0. -1.
        -11    1    3    3    0    0 -0.37158751413E+01 -0.18365637389E+02 -0.49251603899E+01  0.19374250176E+02  0.51100000000E-03 0.  1.
         12    1    3    3    0    0  0.70501122642E+01 -0.41660753809E+01 -0.55824371673E+01  0.99107957170E+01  0.00000000000E+00 0. -1.
</event>
<event>
 7    1  0.4675811E-010  0.4778728E+02  0.7816164E-02  0.1312668E+00
        -11   -1    0    0    0    0  0.00000000000E+00  0.00000000000E+00  0.45593999997E+02  0.45594000000E+02  0.51100000000E-03 0.  1.
         11   -1    0    0    0    0 -0.00000000000E+00 -0.00000000000E+00 -0.45593999997E+02  0.45594000000E+02  0.51100000000E-03 0. -1.
    9900012    2    1    2    0    0  0.10532935176E+02 -0.41262341576E+02 -0.83724956072E+01  0.47787282973E+02  0.20000054386E+02 0.  0.
        -12    1    1    2    0    0 -0.10532935176E+02  0.41262341576E+02  0.83724956072E+01  0.43400717027E+02  0.00000000000E+00 0.  1.
         11    1    3    3    0    0  0.42473288660E+01 -0.11400424725E+02 -0.21297291916E+01  0.12350920334E+02  0.51100000000E-03 0. -1.
        -11    1    3    3    0    0  0.24346258528E+01 -0.47241974354E+01  0.53024273380E+01  0.75074083669E+01  0.51100000000E-03 0.  1.
        -12    1    3    3    0    0  0.38509804574E+01 -0.25137719416E+02 -0.11545193754E+02  0.27928954272E+02  0.00000000000E+00 0.  1.
</event>
<event>
 7    1  0.4675811E-010  0.4778727E+02  0.7816164E-02  0.1312668E+00
        -11   -1    0    0    0    0  0.00000000000E+00  0.00000000000E+00  0.45593999997E+02  0.45594000000E+02  0.51100000000E-03 0.  1.
         11   -1    0    0    0    0 -0.00000000000E+00 -0.00000000000E+00 -0.45593999997E+02  0.45594000000E+02  0.51100000000E-03 0. -1.
    9900012    2    1    2    0    0  0.12729792412E+02 -0.73535872031E+01 -0.40835044645E+02  0.47787265781E+02  0.19999976001E+02 0.  0.
        -12    1    1    2    0    0 -0.12729792412E+02  0.73535872031E+01  0.40835044645E+02  0.43400734219E+02  0.00000000000E+00 0.  1.
         11    1    3    3    0    0 -0.18339834357E+01  0.22598059408E+01 -0.26151915646E+01  0.39127286276E+01  0.51100000000E-03 0. -1.
        -11    1    3    3    0    0  0.55395248792E+01 -0.25941481094E+01 -0.29365822900E+01  0.67852381025E+01  0.51100000000E-03 0.  1.
         12    1    3    3    0    0  0.90242509684E+01 -0.70192450345E+01 -0.35283270790E+02  0.37089299051E+02  0.00000000000E+00 0. -1.
</event>
<event>
 7    1  0.4675811E-010  0.4778726E+02  0.7816164E-02  0.1312668E+00
        -11   -1    0    0    0    0  0.00000000000E+00  0.00000000000E+00  0.45593999997E+02  0.45594000000E+02  0.51100000000E-03 0.  1.
         11   -1    0    0    0    0 -0.00000000000E+00 -0.00000000000E+00 -0.45593999997E+02  0.45594000000E+02  0.51100000000E-03 0. -1.
    9900012    2    1    2    0    0  0.33754620270E+02  0.11436359083E+02 -0.24768109803E+02  0.47787263118E+02  0.19999963862E+02 0.  0.
        -12    1    1    2    0    0 -0.33754620270E+02 -0.11436359083E+02  0.24768109803E+02  0.43400736882E+02  0.00000000000E+00 0.  1.
         11    1    3    3    0    0  0.51739112343E+01  0.87015821990E+00 -0.10583614993E+02  0.11812681294E+02  0.51100000000E-03 0. -1.
        -11    1    3    3    0    0  0.15270054152E+02  0.95306236275E+01 -0.13689781477E+02  0.22614540846E+02  0.51100000000E-03 0.  1.
        -12    1    3    3    0    0  0.13310654884E+02  0.10355772356E+01 -0.49471333367E+00  0.13360040978E+02  0.00000000000E+00 0.  1.
</event>
<event>
 7    1  0.4675811E-010  0.4778727E+02  0.7816164E-02  0.1312668E+00
        -11   -1    0    0    0    0  0.00000000000E+00  0.00000000000E+00  0.45593999997E+02  0.45594000000E+02  0.51100000000E-03 0. -1.
         11   -1    0    0    0    0 -0.00000000000E+00 -0.00000000000E+00 -0.45593999997E+02  0.45594000000E+02  0.51100000000E-03 0.  1.
    9900012    2    1    2    0    0 -0.37022069921E+02  0.21025522287E+02  0.84212296403E+01  0.47787270083E+02  0.19999995615E+02 0.  0.
        -12    1    1    2    0    0  0.37022069921E+02 -0.21025522287E+02 -0.84212296403E+01  0.43400729917E+02  0.00000000000E+00 0.  1.
         11    1    3    3    0    0 -0.93546983592E+01  0.65229905104E-01  0.49677996765E+01  0.10592151350E+02  0.51100000000E-03 0. -1.
        -11    1    3    3    0    0 -0.28457698758E+01  0.62577125343E+01  0.46859374082E+01  0.83195782346E+01  0.51100000000E-03 0.  1.
         12    1    3    3    0    0 -0.24821601686E+02  0.14702579848E+02 -0.12325074444E+01  0.28875540498E+02  0.00000000000E+00 0. -1.
</event>
<event>
 7    1  0.4675811E-010  0.4778727E+02  0.7816164E-02  0.1312668E+00
        -11   -1    0    0    0    0  0.00000000000E+00  0.00000000000E+00  0.45593999997E+02  0.45594000000E+02  0.51100000000E-03 0. -1.
         11   -1    0    0    0    0 -0.00000000000E+00 -0.00000000000E+00 -0.45593999997E+02  0.45594000000E+02  0.51100000000E-03 0.  1.
    9900012    2    1    2    0    0  0.32822087748E+02  0.35411234001E+01  0.28174357285E+02  0.47787269505E+02  0.19999992981E+02 0.  0.
        -12    1    1    2    0    0 -0.32822087748E+02 -0.35411234001E+01 -0.28174357285E+02  0.43400730495E+02  0.00000000000E+00 0.  1.
         11    1    3    3    0    0  0.19176384631E+02  0.74882648211E+01  0.16041856917E+02  0.26098831605E+02  0.51100000000E-03 0. -1.
        -11    1    3    3    0    0  0.68916718934E+01  0.31170662807E+01  0.25006357739E+01  0.79664561268E+01  0.51100000000E-03 0.  1.
         12    1    3    3    0    0  0.67540312234E+01 -0.70642077017E+01  0.96318645942E+01  0.13721981773E+02  0.00000000000E+00 0. -1.
</event>
<event>
 7    1  0.4675811E-010  0.4778728E+02  0.7816164E-02  0.1312668E+00
        -11   -1    0    0    0    0  0.00000000000E+00  0.00000000000E+00  0.45593999997E+02  0.45594000000E+02  0.51100000000E-03 0.  1.
         11   -1    0    0    0    0 -0.00000000000E+00 -0.00000000000E+00 -0.45593999997E+02  0.45594000000E+02  0.51100000000E-03 0. -1.
    9900012    2    1    2    0    0 -0.27517581179E+02  0.32848648368E+02 -0.68827107157E+01  0.47787277883E+02  0.20000031178E+02 0.  0.
        -12    1    1    2    0    0  0.27517581179E+02 -0.32848648368E+02  0.68827107157E+01  0.43400722117E+02  0.00000000000E+00 0.  1.
         11    1    3    3    0    0 -0.16641338932E+02  0.90717028715E+01 -0.20028768091E+01  0.19058894780E+02  0.51100000000E-03 0. -1.
        -11    1    3    3    0    0 -0.28700855497E+01 -0.16454275733E+00 -0.15471479045E+01  0.32646795067E+01  0.51100000000E-03 0.  1.
         12    1    3    3    0    0 -0.80061566968E+01  0.23941488254E+02 -0.33326860021E+01  0.25463703596E+02  0.00000000000E+00 0. -1.
</event>
<event>
 7    1  0.4675811E-010  0.4778727E+02  0.7816164E-02  0.1312668E+00
        -11   -1    0    0    0    0  0.00000000000E+00  0.00000000000E+00  0.45593999997E+02  0.45594000000E+02  0.51100000000E-03 0.  1.
         11   -1    0    0    0    0 -0.00000000000E+00 -0.00000000000E+00 -0.45593999997E+02  0.45594000000E+02  0.51100000000E-03 0. -1.
    9900012    2    1    2    0    0 -0.15982944918E+02  0.38219941585E+02 -0.12938498889E+02  0.47787271705E+02  0.20000003012E+02 0.  0.
        -12    1    1    2    0    0  0.15982944918E+02 -0.38219941585E+02  0.12938498889E+02  0.43400728295E+02  0.00000000000E+00 0.  1.
         11    1    3    3    0    0  0.41592172616E+00  0.16872707199E+00 -0.29071166042E+01  0.29415619862E+01  0.51100000000E-03 0. -1.
        -11    1    3    3    0    0 -0.44043957356E+01  0.68739606401E+00 -0.73737264176E+00  0.45182888153E+01  0.51100000000E-03 0.  1.
         12    1    3    3    0    0 -0.11994470909E+02  0.37363818449E+02 -0.92940096426E+01  0.40327420904E+02  0.00000000000E+00 0. -1.
</event>
<event>
 7    1  0.4675811E-010  0.4778726E+02  0.7816164E-02  0.1312668E+00
        -11   -1    0    0    0    0  0.00000000000E+00  0.00000000000E+00  0.45593999997E+02  0.45594000000E+02  0.51100000000E-03 0. -1.
         11   -1    0    0    0    0 -0.00000000000E+00 -0.00000000000E+00 -0.45593999997E+02  0.45594000000E+02  0.51100000000E-03 0.  1.
    9900012    2    1    2    0    0 -0.42658604317E+02 -0.77161445090E+00 -0.79543707509E+01  0.47787263541E+02  0.19999965787E+02 0.  0.
        -12    1    1    2    0    0  0.42658604317E+02  0.77161445090E+00  0.79543707509E+01  0.43400736459E+02  0.00000000000E+00 0.  1.
         11    1    3    3    0    0 -0.13544831345E+02  0.15602198091E+01  0.53206037372E+01  0.14635763267E+02  0.51100000000E-03 0. -1.
        -11    1    3    3    0    0 -0.11356337728E+01  0.17220970987E+01 -0.13726940584E+01  0.24778159177E+01  0.51100000000E-03 0.  1.
         12    1    3    3    0    0 -0.27978139200E+02 -0.40539313587E+01 -0.11902280430E+02  0.30673684356E+02  0.00000000000E+00 0. -1.
</event>
<event>
 7    1  0.4675811E-010  0.4778727E+02  0.7816164E-02  0.1312668E+00
        -11   -1    0    0    0    0  0.00000000000E+00  0.00000000000E+00  0.45593999997E+02  0.45594000000E+02  0.51100000000E-03 0.  1.
         11   -1    0    0    0    0 -0.00000000000E+00 -0.00000000000E+00 -0.45593999997E+02  0.45594000000E+02  0.51100000000E-03 0. -1.
    9900012    2    1    2    0    0 -0.31796957527E+02 -0.17861336067E+02 -0.23527628199E+02  0.47787272786E+02  0.20000007940E+02 0.  0.
        -12    1    1    2    0    0  0.31796957527E+02  0.17861336067E+02  0.23527628199E+02  0.43400727214E+02  0.00000000000E+00 0.  1.
         11    1    3    3    0    0 -0.43810929338E+01  0.10333642102E+01 -0.17880395861E+01  0.48434391406E+01  0.51100000000E-03 0. -1.
        -11    1    3    3    0    0 -0.53616290836E+01  0.12311144340E+01 -0.88565499898E+01  0.10425986148E+02  0.51100000000E-03 0.  1.
         12    1    3    3    0    0 -0.22054235509E+02 -0.20125814711E+02 -0.12883038623E+02  0.32517847497E+02  0.00000000000E+00 0. -1.
</event>
<event>
 7    1  0.4675811E-010  0.4778727E+02  0.7816164E-02  0.1312668E+00
        -11   -1    0    0    0    0  0.00000000000E+00  0.00000000000E+00  0.45593999997E+02  0.45594000000E+02  0.51100000000E-03 0.  1.
         11   -1    0    0    0    0 -0.00000000000E+00 -0.00000000000E+00 -0.45593999997E+02  0.45594000000E+02  0.51100000000E-03 0. -1.
    9900012    2    1    2    0    0 -0.31713299904E+02 -0.41763749861E+01 -0.29333389685E+02  0.47787271328E+02  0.20000001291E+02 0.  0.
        -12    1    1    2    0    0  0.31713299904E+02  0.41763749861E+01  0.29333389685E+02  0.43400728672E+02  0.00000000000E+00 0.  1.
         11    1    3    3    0    0 -0.28227296799E+02 -0.89479359193E+01 -0.19637901296E+02  0.35531577637E+02  0.51100000000E-03 0. -1.
        -11    1    3    3    0    0  0.20525121975E-01 -0.53335427784E+00 -0.29007262562E+01  0.29494238659E+01  0.51100000000E-03 0.  1.
         12    1    3    3    0    0 -0.35065282274E+01  0.53049152110E+01 -0.67947621328E+01  0.93062698245E+01  0.00000000000E+00 0. -1.
</event>
<event>
 7    1  0.4675811E-010  0.4778727E+02  0.7816164E-02  0.1312668E+00
        -11   -1    0    0    0    0  0.00000000000E+00  0.00000000000E+00  0.45593999997E+02  0.45594000000E+02  0.51100000000E-03 0.  1.
         11   -1    0    0    0    0 -0.00000000000E+00 -0.00000000000E+00 -0.45593999997E+02  0.45594000000E+02  0.51100000000E-03 0. -1.
    9900012    2    1    2    0    0  0.18381907431E+01  0.48294812256E+01 -0.43092002987E+02  0.47787267800E+02  0.19999985206E+02 0.  0.
        -12    1    1    2    0    0 -0.18381907431E+01 -0.48294812256E+01  0.43092002987E+02  0.43400732200E+02  0.00000000000E+00 0.  1.
         11    1    3    3    0    0 -0.39280339366E+01  0.10816732411E+01 -0.10424424498E+02  0.11192322993E+02  0.51100000000E-03 0. -1.
        -11    1    3    3    0    0 -0.35555487316E+01  0.53765315204E+01 -0.87064341831E+01  0.10832867322E+02  0.51100000000E-03 0.  1.
        -12    1    3    3    0    0  0.93217734113E+01 -0.16287235359E+01 -0.23961144306E+02  0.25762077485E+02  0.00000000000E+00 0.  1.
</event>
<event>
 7    1  0.4675811E-010  0.4778728E+02  0.7816164E-02  0.1312668E+00
        -11   -1    0    0    0    0  0.00000000000E+00  0.00000000000E+00  0.45593999997E+02  0.45594000000E+02  0.51100000000E-03 0.  1.
         11   -1    0    0    0    0 -0.00000000000E+00 -0.00000000000E+00 -0.45593999997E+02  0.45594000000E+02  0.51100000000E-03 0. -1.
    9900012    2    1    2    0    0 -0.11533798919E+02  0.35567869638E+02 -0.22034534482E+02  0.47787279062E+02  0.20000036557E+02 0.  0.
        -12    1    1    2    0    0  0.11533798919E+02 -0.35567869638E+02  0.22034534482E+02  0.43400720938E+02  0.00000000000E+00 0.  1.
         11    1    3    3    0    0 -0.19228150189E+01  0.15100557499E+02 -0.78508601045E+01  0.17127756975E+02  0.51100000000E-03 0. -1.
        -11    1    3    3    0    0 -0.37933875932E+01  0.20076061878E+02 -0.74378426649E+01  0.21743034603E+02  0.51100000000E-03 0.  1.
        -12    1    3    3    0    0 -0.58175963069E+01  0.39125026070E+00 -0.67458317127E+01  0.89164874840E+01  0.00000000000E+00 0.  1.
</event>
<event>
 7    1  0.4675811E-010  0.4778728E+02  0.7816164E-02  0.1312668E+00
        -11   -1    0    0    0    0  0.00000000000E+00  0.00000000000E+00  0.45593999997E+02  0.45594000000E+02  0.51100000000E-03 0.  1.
         11   -1    0    0    0    0 -0.00000000000E+00 -0.00000000000E+00 -0.45593999997E+02  0.45594000000E+02  0.51100000000E-03 0. -1.
    9900012    2    1    2    0    0  0.37373578302E+02 -0.38435670790E+01 -0.21727056072E+02  0.47787281935E+02  0.20000049656E+02 0.  0.
        -12    1    1    2    0    0 -0.37373578302E+02  0.38435670790E+01  0.21727056072E+02  0.43400718065E+02  0.00000000000E+00 0.  1.
         11    1    3    3    0    0  0.12983955679E+02  0.25253622188E+01 -0.96282997886E+01  0.16360461989E+02  0.51100000000E-03 0. -1.
        -11    1    3    3    0    0  0.30901068751E+01 -0.24694446176E+01 -0.86351360622E+01  0.94980257050E+01  0.51100000000E-03 0.  1.
        -12    1    3    3    0    0  0.21299515748E+02 -0.38994846802E+01 -0.34636202215E+01  0.21928794242E+02  0.00000000000E+00 0.  1.
</event>
<event>
 7    1  0.4675811E-010  0.4778727E+02  0.7816164E-02  0.1312668E+00
        -11   -1    0    0    0    0  0.00000000000E+00  0.00000000000E+00  0.45593999997E+02  0.45594000000E+02  0.51100000000E-03 0.  1.
         11   -1    0    0    0    0 -0.00000000000E+00 -0.00000000000E+00 -0.45593999997E+02  0.45594000000E+02  0.51100000000E-03 0. -1.
    9900012    2    1    2    0    0  0.20672888932E+02  0.35682066731E+02  0.13529411055E+02  0.47787272051E+02  0.20000004591E+02 0.  0.
        -12    1    1    2    0    0 -0.20672888932E+02 -0.35682066731E+02 -0.13529411055E+02  0.43400727949E+02  0.00000000000E+00 0.  1.
         11    1    3    3    0    0  0.10192897198E+02  0.16243470536E+02  0.75832379575E+01  0.20621614547E+02  0.51100000000E-03 0. -1.
        -11    1    3    3    0    0  0.47166004377E+01  0.35410113553E+01  0.82056351838E+01  0.10105321872E+02  0.51100000000E-03 0.  1.
         12    1    3    3    0    0  0.57633912960E+01  0.15897584840E+02 -0.22594620860E+01  0.17060335632E+02  0.00000000000E+00 0. -1.
</event>
<event>
 7    1  0.4675811E-010  0.4778727E+02  0.7816164E-02  0.1312668E+00
        -11   -1    0    0    0    0  0.00000000000E+00  0.00000000000E+00  0.45593999997E+02  0.45594000000E+02  0.51100000000E-03 0.  1.
         11   -1    0    0    0    0 -0.00000000000E+00 -0.00000000000E+00 -0.45593999997E+02  0.45594000000E+02  0.51100000000E-03 0. -1.
    9900012    2    1    2    0    0 -0.36913432877E+02 -0.18015289743E+02 -0.14016822546E+02  0.47787268375E+02  0.19999987830E+02 0.  0.
        -12    1    1    2    0    0  0.36913432877E+02  0.18015289743E+02  0.14016822546E+02  0.43400731625E+02  0.00000000000E+00 0.  1.
         11    1    3    3    0    0 -0.98949447222E+01 -0.80706006490E+01 -0.32231434964E+01  0.13169403181E+02  0.51100000000E-03 0. -1.
        -11    1    3    3    0    0 -0.68618958569E+01  0.90121955884E+00  0.33731419999E+01  0.76990842739E+01  0.51100000000E-03 0.  1.
        -12    1    3    3    0    0 -0.20156592298E+02 -0.10845908653E+02 -0.14166821050E+02  0.26918780920E+02  0.00000000000E+00 0.  1.
</event>
<event>
 7    1  0.4675811E-010  0.4778728E+02  0.7816164E-02  0.1312668E+00
        -11   -1    0    0    0    0  0.00000000000E+00  0.00000000000E+00  0.45593999997E+02  0.45594000000E+02  0.51100000000E-03 0. -1.
         11   -1    0    0    0    0 -0.00000000000E+00 -0.00000000000E+00 -0.45593999997E+02  0.45594000000E+02  0.51100000000E-03 0.  1.
    9900012    2    1    2    0    0  0.38654003357E+02 -0.18356555599E+02  0.72475545313E+01  0.47787283927E+02  0.20000058737E+02 0.  0.
        -12    1    1    2    0    0 -0.38654003357E+02  0.18356555599E+02 -0.72475545313E+01  0.43400716073E+02  0.00000000000E+00 0.  1.
         11    1    3    3    0    0  0.14357985305E+02 -0.31537867221E+01 -0.72599614122E+00  0.14718192259E+02  0.51100000000E-03 0.  1.
        -11    1    3    3    0    0  0.12605841236E+02 -0.11420940245E+01  0.76319035712E+01  0.14780310024E+02  0.51100000000E-03 0. -1.
         12    1    3    3    0    0  0.11690176816E+02 -0.14060674852E+02  0.34164710141E+00  0.18288781644E+02  0.00000000000E+00 0. -1.
</event>
<event>
 7    1  0.4675811E-010  0.4778727E+02  0.7816164E-02  0.1312668E+00
        -11   -1    0    0    0    0  0.00000000000E+00  0.00000000000E+00  0.45593999997E+02  0.45594000000E+02  0.51100000000E-03 0.  1.
         11   -1    0    0    0    0 -0.00000000000E+00 -0.00000000000E+00 -0.45593999997E+02  0.45594000000E+02  0.51100000000E-03 0. -1.
    9900012    2    1    2    0    0 -0.32317976694E+02 -0.28899681289E+02  0.19949853763E+01  0.47787272323E+02  0.20000005830E+02 0.  0.
        -12    1    1    2    0    0  0.32317976694E+02  0.28899681289E+02 -0.19949853763E+01  0.43400727677E+02  0.00000000000E+00 0.  1.
         11    1    3    3    0    0 -0.16519011828E+02 -0.10212272494E+02  0.14798811010E+01  0.19477122723E+02  0.51100000000E-03 0. -1.
        -11    1    3    3    0    0 -0.14649578404E+02 -0.67153822541E+01 -0.12063598631E+01  0.16160501558E+02  0.51100000000E-03 0.  1.
         12    1    3    3    0    0 -0.11493864628E+01 -0.11972026541E+02  0.17214641384E+01  0.12149648041E+02  0.00000000000E+00 0. -1.
</event>
<event>
 7    1  0.4675811E-010  0.4778727E+02  0.7816164E-02  0.1312668E+00
        -11   -1    0    0    0    0  0.00000000000E+00  0.00000000000E+00  0.45593999997E+02  0.45594000000E+02  0.51100000000E-03 0.  1.
         11   -1    0    0    0    0 -0.00000000000E+00 -0.00000000000E+00 -0.45593999997E+02  0.45594000000E+02  0.51100000000E-03 0. -1.
    9900012    2    1    2    0    0  0.40066044138E+02 -0.86869988668E+01 -0.14243304130E+02  0.47787267809E+02  0.19999985249E+02 0.  0.
        -12    1    1    2    0    0 -0.40066044138E+02  0.86869988668E+01  0.14243304130E+02  0.43400732191E+02  0.00000000000E+00 0.  1.
         11    1    3    3    0    0  0.14158779438E+02 -0.51104791571E+01 -0.10750229336E+02  0.18497444781E+02  0.51100000000E-03 0. -1.
        -11    1    3    3    0    0  0.91102198991E+01  0.23728300374E+01 -0.61907017206E+01  0.11267263068E+02  0.51100000000E-03 0.  1.
        -12    1    3    3    0    0  0.16797044801E+02 -0.59493497471E+01  0.26976269271E+01  0.18022559960E+02  0.00000000000E+00 0.  1.
</event>
<event>
 7    1  0.4675811E-010  0.4778726E+02  0.7816164E-02  0.1312668E+00
        -11   -1    0    0    0    0  0.00000000000E+00  0.00000000000E+00  0.45593999997E+02  0.45594000000E+02  0.51100000000E-03 0. -1.
         11   -1    0    0    0    0 -0.00000000000E+00 -0.00000000000E+00 -0.45593999997E+02  0.45594000000E+02  0.51100000000E-03 0.  1.
    9900012    2    1    2    0    0  0.12552573117E+02  0.41471921844E+02 -0.24771936669E+01  0.47787264042E+02  0.19999968073E+02 0.  0.
        -12    1    1    2    0    0 -0.12552573117E+02 -0.41471921844E+02  0.24771936669E+01  0.43400735958E+02  0.00000000000E+00 0.  1.
         11    1    3    3    0    0  0.33195330912E+01  0.24038060489E+01  0.95794120710E+00  0.42089470277E+01  0.51100000000E-03 0. -1.
        -11    1    3    3    0    0  0.43843589341E+00  0.15408048688E+02  0.61253054969E+01  0.16586728373E+02  0.51100000000E-03 0.  1.
         12    1    3    3    0    0  0.87946041321E+01  0.23660067106E+02 -0.95604403709E+01  0.26991588642E+02  0.00000000000E+00 0. -1.
</event>
<event>
 7    1  0.4675811E-010  0.4778727E+02  0.7816164E-02  0.1312668E+00
        -11   -1    0    0    0    0  0.00000000000E+00  0.00000000000E+00  0.45593999997E+02  0.45594000000E+02  0.51100000000E-03 0.  1.
         11   -1    0    0    0    0 -0.00000000000E+00 -0.00000000000E+00 -0.45593999997E+02  0.45594000000E+02  0.51100000000E-03 0. -1.
    9900012    2    1    2    0    0  0.35851645236E+02  0.20885931719E+02 -0.12730310307E+02  0.47787269472E+02  0.19999992829E+02 0.  0.
        -12    1    1    2    0    0 -0.35851645236E+02 -0.20885931719E+02  0.12730310307E+02  0.43400730528E+02  0.00000000000E+00 0.  1.
         11    1    3    3    0    0 -0.12763282858E+01 -0.12820357708E+01  0.90455871229E+00  0.20225865460E+01  0.51100000000E-03 0.  1.
        -11    1    3    3    0    0  0.14563659256E+01  0.98854043960E+00  0.66845966818E+00  0.18828309799E+01  0.51100000000E-03 0. -1.
        -12    1    3    3    0    0  0.35671607596E+02  0.21179427051E+02 -0.14303328687E+02  0.43881851946E+02  0.00000000000E+00 0.  1.
</event>
<event>
 7    1  0.4675811E-010  0.4778727E+02  0.7816164E-02  0.1312668E+00
        -11   -1    0    0    0    0  0.00000000000E+00  0.00000000000E+00  0.45593999997E+02  0.45594000000E+02  0.51100000000E-03 0. -1.
         11   -1    0    0    0    0 -0.00000000000E+00 -0.00000000000E+00 -0.45593999997E+02  0.45594000000E+02  0.51100000000E-03 0.  1.
    9900012    2    1    2    0    0 -0.25360186822E+02 -0.25645810156E+02  0.24140767928E+02  0.47787270394E+02  0.19999997033E+02 0.  0.
        -12    1    1    2    0    0  0.25360186822E+02  0.25645810156E+02 -0.24140767928E+02  0.43400729606E+02  0.00000000000E+00 0.  1.
         11    1    3    3    0    0 -0.27046983520E+00 -0.99687822567E+01  0.55257732851E+01  0.11401050139E+02  0.51100000000E-03 0. -1.
        -11    1    3    3    0    0  0.60401896771E+00 -0.38112925211E+00 -0.52206566449E+00  0.88467578203E+00  0.51100000000E-03 0.  1.
         12    1    3    3    0    0 -0.25693735954E+02 -0.15295898647E+02  0.19137060308E+02  0.35501544473E+02  0.00000000000E+00 0. -1.
</event>
<event>
 7    1  0.4675811E-010  0.4778724E+02  0.7816164E-02  0.1312668E+00
        -11   -1    0    0    0    0  0.00000000000E+00  0.00000000000E+00  0.45593999997E+02  0.45594000000E+02  0.51100000000E-03 0. -1.
         11   -1    0    0    0    0 -0.00000000000E+00 -0.00000000000E+00 -0.45593999997E+02  0.45594000000E+02  0.51100000000E-03 0.  1.
    9900012    2    1    2    0    0 -0.42441476926E+02  0.16814116054E+01  0.89174077907E+01  0.47787236524E+02  0.19999842605E+02 0.  0.
        -12    1    1    2    0    0  0.42441476926E+02 -0.16814116054E+01 -0.89174077907E+01  0.43400763476E+02  0.00000000000E+00 0.  1.
         11    1    3    3    0    0 -0.51441525876E+00 -0.29834767751E+01  0.13128937969E+01  0.32999162276E+01  0.51100000000E-03 0. -1.
        -11    1    3    3    0    0 -0.16489239226E+02  0.11291810465E+01 -0.28258921660E+01  0.16767698914E+02  0.51100000000E-03 0.  1.
         12    1    3    3    0    0 -0.25437822441E+02  0.35357073340E+01  0.10430406160E+02  0.27719621382E+02  0.00000000000E+00 0. -1.
</event>
<event>
 7    1  0.4675811E-010  0.4778724E+02  0.7816164E-02  0.1312668E+00
        -11   -1    0    0    0    0  0.00000000000E+00  0.00000000000E+00  0.45593999997E+02  0.45594000000E+02  0.51100000000E-03 0.  1.
         11   -1    0    0    0    0 -0.00000000000E+00 -0.00000000000E+00 -0.45593999997E+02  0.45594000000E+02  0.51100000000E-03 0. -1.
    9900012    2    1    2    0    0  0.31752723387E+02 -0.25138825106E+02 -0.15602252621E+02  0.47787236677E+02  0.19999843304E+02 0.  0.
        -12    1    1    2    0    0 -0.31752723387E+02  0.25138825106E+02  0.15602252621E+02  0.43400763323E+02  0.00000000000E+00 0.  1.
         11    1    3    3    0    0  0.41847358892E+01 -0.15666504525E+01 -0.15173318728E+01  0.47189728094E+01  0.51100000000E-03 0. -1.
        -11    1    3    3    0    0  0.14614344543E+02 -0.20268553788E+02 -0.15839729766E+02  0.29585306799E+02  0.51100000000E-03 0.  1.
        -12    1    3    3    0    0  0.12953642955E+02 -0.33036208648E+01  0.17548090170E+01  0.13482957068E+02  0.00000000000E+00 0.  1.
</event>
<event>
 7    1  0.4675811E-010  0.4778727E+02  0.7816164E-02  0.1312668E+00
        -11   -1    0    0    0    0  0.00000000000E+00  0.00000000000E+00  0.45593999997E+02  0.45594000000E+02  0.51100000000E-03 0.  1.
         11   -1    0    0    0    0 -0.00000000000E+00 -0.00000000000E+00 -0.45593999997E+02  0.45594000000E+02  0.51100000000E-03 0. -1.
    9900012    2    1    2    0    0 -0.12479948055E+02 -0.97040465660E+01 -0.40419124903E+02  0.47787270961E+02  0.19999999617E+02 0.  0.
        -12    1    1    2    0    0  0.12479948055E+02  0.97040465660E+01  0.40419124903E+02  0.43400729039E+02  0.00000000000E+00 0.  1.
         11    1    3    3    0    0  0.18910685679E+01 -0.69961957863E+01 -0.66199909426E+01  0.98156597410E+01  0.51100000000E-03 0. -1.
        -11    1    3    3    0    0 -0.30436214888E+00  0.95734269709E+00  0.17373838265E+00  0.10194737094E+01  0.51100000000E-03 0.  1.
        -12    1    3    3    0    0 -0.14066654474E+02 -0.36651934768E+01 -0.33972872343E+02  0.36952137510E+02  0.00000000000E+00 0.  1.
</event>
<event>
 7    1  0.4675811E-010  0.4778727E+02  0.7816164E-02  0.1312668E+00
        -11   -1    0    0    0    0  0.00000000000E+00  0.00000000000E+00  0.45593999997E+02  0.45594000000E+02  0.51100000000E-03 0.  1.
         11   -1    0    0    0    0 -0.00000000000E+00 -0.00000000000E+00 -0.45593999997E+02  0.45594000000E+02  0.51100000000E-03 0. -1.
    9900012    2    1    2    0    0 -0.24828856384E+02  0.16416030349E+02 -0.31585833522E+02  0.47787273727E+02  0.20000012231E+02 0.  0.
        -12    1    1    2    0    0  0.24828856384E+02 -0.16416030349E+02  0.31585833522E+02  0.43400726273E+02  0.00000000000E+00 0.  1.
         11    1    3    3    0    0 -0.24214045218E+01  0.58026441364E+01 -0.26006589521E+01  0.68042123775E+01  0.51100000000E-03 0. -1.
        -11    1    3    3    0    0 -0.11491212919E+02  0.47907884979E+01 -0.39563893469E+01  0.13063408655E+02  0.51100000000E-03 0.  1.
        -12    1    3    3    0    0 -0.10916238943E+02  0.58225977142E+01 -0.25028785223E+02  0.27919652694E+02  0.00000000000E+00 0.  1.
</event>
<event>
 7    1  0.4675811E-010  0.4778727E+02  0.7816164E-02  0.1312668E+00
        -11   -1    0    0    0    0  0.00000000000E+00  0.00000000000E+00  0.45593999997E+02  0.45594000000E+02  0.51100000000E-03 0.  1.
         11   -1    0    0    0    0 -0.00000000000E+00 -0.00000000000E+00 -0.45593999997E+02  0.45594000000E+02  0.51100000000E-03 0. -1.
    9900012    2    1    2    0    0 -0.52014232203E+01 -0.76854060093E+01 -0.42396969340E+02  0.47787270994E+02  0.19999999771E+02 0.  0.
        -12    1    1    2    0    0  0.52014232203E+01  0.76854060093E+01  0.42396969340E+02  0.43400729006E+02  0.00000000000E+00 0.  1.
         11    1    3    3    0    0 -0.57303551055E+01 -0.70107373673E+00 -0.15538798675E+02  0.16576571978E+02  0.51100000000E-03 0.  1.
        -11    1    3    3    0    0 -0.53991644275E+01 -0.72647971672E+01 -0.21018759363E+02  0.22884853065E+02  0.51100000000E-03 0. -1.
         12    1    3    3    0    0  0.59280963127E+01  0.28046489460E+00 -0.58394113026E+01  0.83258459517E+01  0.00000000000E+00 0. -1.
</event>
<event>
 7    1  0.4675811E-010  0.4778726E+02  0.7816164E-02  0.1312668E+00
        -11   -1    0    0    0    0  0.00000000000E+00  0.00000000000E+00  0.45593999997E+02  0.45594000000E+02  0.51100000000E-03 0.  1.
         11   -1    0    0    0    0 -0.00000000000E+00 -0.00000000000E+00 -0.45593999997E+02  0.45594000000E+02  0.51100000000E-03 0. -1.
    9900012    2    1    2    0    0 -0.41536507713E+02  0.12369318670E+02 -0.23114942668E+01  0.47787256653E+02  0.19999934384E+02 0.  0.
        -12    1    1    2    0    0  0.41536507713E+02 -0.12369318670E+02  0.23114942668E+01  0.43400743347E+02  0.00000000000E+00 0.  1.
         11    1    3    3    0    0 -0.19094743826E+02 -0.25790539242E+00  0.75899183131E+00  0.19111562621E+02  0.51100000000E-03 0. -1.
        -11    1    3    3    0    0 -0.12753566389E+02  0.28274429293E+01  0.33308009993E+01  0.13481176681E+02  0.51100000000E-03 0.  1.
        -12    1    3    3    0    0 -0.96881974983E+01  0.97997811327E+01 -0.64012870974E+01  0.15194517351E+02  0.00000000000E+00 0.  1.
</event>
<event>
 7    1  0.4675811E-010  0.4778729E+02  0.7816164E-02  0.1312668E+00
        -11   -1    0    0    0    0  0.00000000000E+00  0.00000000000E+00  0.45593999997E+02  0.45594000000E+02  0.51100000000E-03 0.  1.
         11   -1    0    0    0    0 -0.00000000000E+00 -0.00000000000E+00 -0.45593999997E+02  0.45594000000E+02  0.51100000000E-03 0. -1.
    9900012    2    1    2    0    0 -0.46933219902E+01  0.23199825618E+02 -0.36378054560E+02  0.47787285334E+02  0.20000065150E+02 0.  0.
        -12    1    1    2    0    0  0.46933219902E+01 -0.23199825618E+02  0.36378054560E+02  0.43400714666E+02  0.00000000000E+00 0.  1.
         11    1    3    3    0    0 -0.42146742510E+01  0.10677811862E+02 -0.15054427589E+02  0.18931849764E+02  0.51100000000E-03 0. -1.
        -11    1    3    3    0    0 -0.39435201959E+01  0.10581270202E+02 -0.55365180112E+01  0.12576472581E+02  0.51100000000E-03 0.  1.
         12    1    3    3    0    0  0.34648724567E+01  0.19407435534E+01 -0.15787108960E+02  0.16278962989E+02  0.00000000000E+00 0. -1.
</event>
<event>
 7    1  0.4675811E-010  0.4778727E+02  0.7816164E-02  0.1312668E+00
        -11   -1    0    0    0    0  0.00000000000E+00  0.00000000000E+00  0.45593999997E+02  0.45594000000E+02  0.51100000000E-03 0. -1.
         11   -1    0    0    0    0 -0.00000000000E+00 -0.00000000000E+00 -0.45593999997E+02  0.45594000000E+02  0.51100000000E-03 0.  1.
    9900012    2    1    2    0    0  0.43334909602E+02 -0.19565281068E+01  0.13716022870E+01  0.47787266305E+02  0.19999978389E+02 0.  0.
        -12    1    1    2    0    0 -0.43334909602E+02  0.19565281068E+01 -0.13716022870E+01  0.43400733695E+02  0.00000000000E+00 0.  1.
         11    1    3    3    0    0  0.15107088667E+02  0.40999637643E+00 -0.28836443901E-01  0.15112678678E+02  0.51100000000E-03 0. -1.
        -11    1    3    3    0    0  0.28665804948E+02 -0.15773098993E+01 -0.23612687711E+01  0.28806108212E+02  0.51100000000E-03 0.  1.
        -12    1    3    3    0    0 -0.43798401253E+00 -0.78921458386E+00  0.37617075020E+01  0.38684794151E+01  0.00000000000E+00 0.  1.
</event>
<event>
 7    1  0.4675811E-010  0.4778727E+02  0.7816164E-02  0.1312668E+00
        -11   -1    0    0    0    0  0.00000000000E+00  0.00000000000E+00  0.45593999997E+02  0.45594000000E+02  0.51100000000E-03 0.  1.
         11   -1    0    0    0    0 -0.00000000000E+00 -0.00000000000E+00 -0.45593999997E+02  0.45594000000E+02  0.51100000000E-03 0. -1.
    9900012    2    1    2    0    0 -0.90718036640E+01 -0.23842803360E+02 -0.35111911597E+02  0.47787271552E+02  0.20000002314E+02 0.  0.
        -12    1    1    2    0    0  0.90718036640E+01  0.23842803360E+02  0.35111911597E+02  0.43400728448E+02  0.00000000000E+00 0.  1.
         11    1    3    3    0    0 -0.12606453318E+01 -0.11866017272E+02 -0.14144877112E+02  0.18505921791E+02  0.51100000000E-03 0. -1.
        -11    1    3    3    0    0 -0.54487966882E+01 -0.14956528739E+02 -0.13379110710E+02  0.20793935195E+02  0.51100000000E-03 0.  1.
        -12    1    3    3    0    0 -0.23623616439E+01  0.29797426501E+01 -0.75879237750E+01  0.84874145659E+01  0.00000000000E+00 0.  1.
</event>
<event>
 7    1  0.4675811E-010  0.4778728E+02  0.7816164E-02  0.1312668E+00
        -11   -1    0    0    0    0  0.00000000000E+00  0.00000000000E+00  0.45593999997E+02  0.45594000000E+02  0.51100000000E-03 0. -1.
         11   -1    0    0    0    0 -0.00000000000E+00 -0.00000000000E+00 -0.45593999997E+02  0.45594000000E+02  0.51100000000E-03 0.  1.
    9900012    2    1    2    0    0  0.27967809137E+02  0.17819543288E+02  0.27998006843E+02  0.47787275834E+02  0.20000021840E+02 0.  0.
        -12    1    1    2    0    0 -0.27967809137E+02 -0.17819543288E+02 -0.27998006843E+02  0.43400724166E+02  0.00000000000E+00 0.  1.
         11    1    3    3    0    0  0.45331644207E+01  0.70537463646E+01  0.87792916503E+01  0.12140052701E+02  0.51100000000E-03 0. -1.
        -11    1    3    3    0    0 -0.89489030937E+00  0.33428478926E+01 -0.45465429013E+00  0.34902967615E+01  0.51100000000E-03 0.  1.
         12    1    3    3    0    0  0.24329535026E+02  0.74229490304E+01  0.19673369483E+02  0.32156926372E+02  0.00000000000E+00 0. -1.
</event>
<event>
 7    1  0.4675811E-010  0.4778727E+02  0.7816164E-02  0.1312668E+00
        -11   -1    0    0    0    0  0.00000000000E+00  0.00000000000E+00  0.45593999997E+02  0.45594000000E+02  0.51100000000E-03 0. -1.
         11   -1    0    0    0    0 -0.00000000000E+00 -0.00000000000E+00 -0.45593999997E+02  0.45594000000E+02  0.51100000000E-03 0.  1.
    9900012    2    1    2    0    0  0.24245946466E+02  0.35049535992E+02 -0.82029189502E+01  0.47787265300E+02  0.19999973807E+02 0.  0.
        -12    1    1    2    0    0 -0.24245946466E+02 -0.35049535992E+02  0.82029189502E+01  0.43400734700E+02  0.00000000000E+00 0.  1.
         11    1    3    3    0    0  0.16347593994E+02  0.13119458779E+02 -0.11335011637E+01  0.20991637697E+02  0.51100000000E-03 0. -1.
        -11    1    3    3    0    0  0.82315310500E+01  0.71249656256E+01 -0.44287483533E+01  0.11753171948E+02  0.51100000000E-03 0.  1.
        -12    1    3    3    0    0 -0.33317857882E+00  0.14805111587E+02 -0.26406694332E+01  0.15042455655E+02  0.00000000000E+00 0.  1.
</event>
<event>
 7    1  0.4675811E-010  0.4778727E+02  0.7816164E-02  0.1312668E+00
        -11   -1    0    0    0    0  0.00000000000E+00  0.00000000000E+00  0.45593999997E+02  0.45594000000E+02  0.51100000000E-03 0.  1.
         11   -1    0    0    0    0 -0.00000000000E+00 -0.00000000000E+00 -0.45593999997E+02  0.45594000000E+02  0.51100000000E-03 0. -1.
    9900012    2    1    2    0    0  0.12703264386E+02  0.57740503155E+01 -0.41096359568E+02  0.47787270135E+02  0.19999995852E+02 0.  0.
        -12    1    1    2    0    0 -0.12703264386E+02 -0.57740503155E+01  0.41096359568E+02  0.43400729865E+02  0.00000000000E+00 0.  1.
         11    1    3    3    0    0  0.25027620115E+01  0.46346211819E+01 -0.27634934510E+02  0.28132421453E+02  0.51100000000E-03 0. -1.
        -11    1    3    3    0    0  0.46815089343E+01  0.45592715666E+01 -0.10830827861E+02  0.12649518391E+02  0.51100000000E-03 0.  1.
        -12    1    3    3    0    0  0.55189934407E+01 -0.34198424331E+01 -0.26305971974E+01  0.70053302906E+01  0.00000000000E+00 0.  1.
</event>
<event>
 7    1  0.4675811E-010  0.4778727E+02  0.7816164E-02  0.1312668E+00
        -11   -1    0    0    0    0  0.00000000000E+00  0.00000000000E+00  0.45593999997E+02  0.45594000000E+02  0.51100000000E-03 0.  1.
         11   -1    0    0    0    0 -0.00000000000E+00 -0.00000000000E+00 -0.45593999997E+02  0.45594000000E+02  0.51100000000E-03 0. -1.
    9900012    2    1    2    0    0 -0.46170804520E+01 -0.28164072485E+02 -0.32696961328E+02  0.47787266240E+02  0.19999978094E+02 0.  0.
        -12    1    1    2    0    0  0.46170804520E+01  0.28164072485E+02  0.32696961328E+02  0.43400733760E+02  0.00000000000E+00 0.  1.
         11    1    3    3    0    0 -0.16996323278E+01 -0.42701550404E+01  0.33679183022E+00  0.46082972036E+01  0.51100000000E-03 0. -1.
        -11    1    3    3    0    0  0.24419204838E+01 -0.92397480632E+00 -0.95285846100E+01  0.98798092099E+01  0.51100000000E-03 0.  1.
         12    1    3    3    0    0 -0.53593686081E+01 -0.22969942638E+02 -0.23505168548E+02  0.33299159826E+02  0.00000000000E+00 0. -1.
</event>
<event>
 7    1  0.4675811E-010  0.4778727E+02  0.7816164E-02  0.1312668E+00
        -11   -1    0    0    0    0  0.00000000000E+00  0.00000000000E+00  0.45593999997E+02  0.45594000000E+02  0.51100000000E-03 0. -1.
         11   -1    0    0    0    0 -0.00000000000E+00 -0.00000000000E+00 -0.45593999997E+02  0.45594000000E+02  0.51100000000E-03 0.  1.
    9900012    2    1    2    0    0 -0.32753539768E+02 -0.25229998733E+02 -0.13201376584E+02  0.47787267897E+02  0.19999985649E+02 0.  0.
        -12    1    1    2    0    0  0.32753539768E+02  0.25229998733E+02  0.13201376584E+02  0.43400732103E+02  0.00000000000E+00 0.  1.
         11    1    3    3    0    0 -0.10478627889E+02 -0.88059659726E+01 -0.59096764339E+01  0.14908754306E+02  0.51100000000E-03 0. -1.
        -11    1    3    3    0    0 -0.21768114733E+02 -0.17862096136E+02 -0.29927426271E+01  0.28317164514E+02  0.51100000000E-03 0.  1.
        -12    1    3    3    0    0 -0.50679714540E+00  0.14380633757E+01 -0.42989575228E+01  0.45613490769E+01  0.00000000000E+00 0.  1.
</event>
<event>
 7    1  0.4675811E-010  0.4778730E+02  0.7816164E-02  0.1312668E+00
        -11   -1    0    0    0    0  0.00000000000E+00  0.00000000000E+00  0.45593999997E+02  0.45594000000E+02  0.51100000000E-03 0.  1.
         11   -1    0    0    0    0 -0.00000000000E+00 -0.00000000000E+00 -0.45593999997E+02  0.45594000000E+02  0.51100000000E-03 0. -1.
    9900012    2    1    2    0    0 -0.17156255497E+02 -0.57390887937E+01 -0.39450560392E+02  0.47787297723E+02  0.20000121638E+02 0.  0.
        -12    1    1    2    0    0  0.17156255497E+02  0.57390887937E+01  0.39450560392E+02  0.43400702277E+02  0.00000000000E+00 0.  1.
         11    1    3    3    0    0 -0.52943249119E+01 -0.18171900529E+01 -0.12578220073E+02  0.13767486206E+02  0.51100000000E-03 0. -1.
        -11    1    3    3    0    0  0.14606629308E+01 -0.69593486660E+01 -0.10702799036E+02  0.12849746205E+02  0.51100000000E-03 0.  1.
        -12    1    3    3    0    0 -0.13322593516E+02  0.30374499252E+01 -0.16169541283E+02  0.21170065313E+02  0.00000000000E+00 0.  1.
</event>
<event>
 7    1  0.4675811E-010  0.4778727E+02  0.7816164E-02  0.1312668E+00
        -11   -1    0    0    0    0  0.00000000000E+00  0.00000000000E+00  0.45593999997E+02  0.45594000000E+02  0.51100000000E-03 0.  1.
         11   -1    0    0    0    0 -0.00000000000E+00 -0.00000000000E+00 -0.45593999997E+02  0.45594000000E+02  0.51100000000E-03 0. -1.
    9900012    2    1    2    0    0 -0.62444260279E+01 -0.17252818218E+02 -0.39331544888E+02  0.47787274013E+02  0.20000013537E+02 0.  0.
        -12    1    1    2    0    0  0.62444260279E+01  0.17252818218E+02  0.39331544888E+02  0.43400725987E+02  0.00000000000E+00 0.  1.
         11    1    3    3    0    0 -0.31281001818E+01 -0.16074010427E+01 -0.42748177005E+01  0.55355953152E+01  0.51100000000E-03 0. -1.
        -11    1    3    3    0    0 -0.91011582077E+01 -0.13405794514E+02 -0.30025505895E+02  0.34118578689E+02  0.51100000000E-03 0.  1.
         12    1    3    3    0    0  0.59848323615E+01 -0.22396226621E+01 -0.50312212920E+01  0.81331000088E+01  0.00000000000E+00 0. -1.
</event>
<event>
 7    1  0.4675811E-010  0.4778727E+02  0.7816164E-02  0.1312668E+00
        -11   -1    0    0    0    0  0.00000000000E+00  0.00000000000E+00  0.45593999997E+02  0.45594000000E+02  0.51100000000E-03 0.  1.
         11   -1    0    0    0    0 -0.00000000000E+00 -0.00000000000E+00 -0.45593999997E+02  0.45594000000E+02  0.51100000000E-03 0. -1.
    9900012    2    1    2    0    0  0.41572710608E+02 -0.64005188416E+01 -0.10694228353E+02  0.47787269259E+02  0.19999991862E+02 0.  0.
        -12    1    1    2    0    0 -0.41572710608E+02  0.64005188416E+01  0.10694228353E+02  0.43400730741E+02  0.00000000000E+00 0.  1.
         11    1    3    3    0    0  0.74134480657E+01  0.31973754313E+01 -0.16594928214E+01  0.82423503054E+01  0.51100000000E-03 0. -1.
        -11    1    3    3    0    0  0.14621088747E+02  0.33543477744E+01 -0.24822693810E+01  0.15204918503E+02  0.51100000000E-03 0.  1.
        -12    1    3    3    0    0  0.19538173796E+02 -0.12952242047E+02 -0.65524661506E+01  0.24340000451E+02  0.00000000000E+00 0.  1.
</event>
<event>
 7    1  0.4675811E-010  0.4778727E+02  0.7816164E-02  0.1312668E+00
        -11   -1    0    0    0    0  0.00000000000E+00  0.00000000000E+00  0.45593999997E+02  0.45594000000E+02  0.51100000000E-03 0. -1.
         11   -1    0    0    0    0 -0.00000000000E+00 -0.00000000000E+00 -0.45593999997E+02  0.45594000000E+02  0.51100000000E-03 0.  1.
    9900012    2    1    2    0    0 -0.24496788926E+01 -0.28110363544E+02  0.32976202701E+02  0.47787269478E+02  0.19999992858E+02 0.  0.
        -12    1    1    2    0    0  0.24496788926E+01  0.28110363544E+02 -0.32976202701E+02  0.43400730522E+02  0.00000000000E+00 0.  1.
         11    1    3    3    0    0 -0.11809892976E+01  0.16544343386E+01 -0.91015493217E-02  0.20327252154E+01  0.51100000000E-03 0. -1.
        -11    1    3    3    0    0  0.15296655909E+01 -0.12185986964E+01  0.62309911781E+01  0.65307052396E+01  0.51100000000E-03 0.  1.
        -12    1    3    3    0    0 -0.27983551858E+01 -0.28546199186E+02  0.26754313073E+02  0.39223839023E+02  0.00000000000E+00 0.  1.
</event>
<event>
 7    1  0.4675811E-010  0.4778727E+02  0.7816164E-02  0.1312668E+00
        -11   -1    0    0    0    0  0.00000000000E+00  0.00000000000E+00  0.45593999997E+02  0.45594000000E+02  0.51100000000E-03 0. -1.
         11   -1    0    0    0    0 -0.00000000000E+00 -0.00000000000E+00 -0.45593999997E+02  0.45594000000E+02  0.51100000000E-03 0.  1.
    9900012    2    1    2    0    0 -0.32304540239E+02  0.27567435972E+02  0.89485457919E+01  0.47787270537E+02  0.19999997685E+02 0.  0.
        -12    1    1    2    0    0  0.32304540239E+02 -0.27567435972E+02 -0.89485457919E+01  0.43400729463E+02  0.00000000000E+00 0.  1.
         11    1    3    3    0    0 -0.15721283036E+02  0.15169448573E+02 -0.50535081326E+01  0.22423399720E+02  0.51100000000E-03 0.  1.
        -11    1    3    3    0    0 -0.94297210774E+01  0.94472717787E+01  0.79135336715E+01  0.15517557768E+02  0.51100000000E-03 0. -1.
        -12    1    3    3    0    0 -0.71535361260E+01  0.29507156207E+01  0.60885202530E+01  0.98463130486E+01  0.00000000000E+00 0.  1.
</event>
<event>
 7    1  0.4851453E-010  0.4778724E+02  0.7816164E-02  0.1312668E+00
        -11   -1    0    0    0    0  0.00000000000E+00  0.00000000000E+00  0.45593999997E+02  0.45594000000E+02  0.51100000000E-03 0. -1.
         11   -1    0    0    0    0 -0.00000000000E+00 -0.00000000000E+00 -0.45593999997E+02  0.45594000000E+02  0.51100000000E-03 0.  1.
    9900012    2    1    2    0    0  0.13686165238E+02 -0.39139560885E+02  0.12822234603E+02  0.47787239115E+02  0.19999854421E+02 0.  0.
        -12    1    1    2    0    0 -0.13686165238E+02  0.39139560885E+02 -0.12822234603E+02  0.43400760885E+02  0.00000000000E+00 0.  1.
         11    1    3    3    0    0  0.31424509318E+00 -0.13161901820E+02  0.10271618500E+02  0.16698519586E+02  0.51100000000E-03 0. -1.
        -11    1    3    3    0    0 -0.31205744537E+00 -0.85399559573E+01 -0.11277191759E+01  0.86197435230E+01  0.51100000000E-03 0.  1.
         12    1    3    3    0    0  0.13683977590E+02 -0.17437703108E+02  0.36783352792E+01  0.22468976007E+02  0.00000000000E+00 0. -1.
</event>
<event>
 7    1  0.4675811E-010  0.4778727E+02  0.7816164E-02  0.1312668E+00
        -11   -1    0    0    0    0  0.00000000000E+00  0.00000000000E+00  0.45593999997E+02  0.45594000000E+02  0.51100000000E-03 0.  1.
         11   -1    0    0    0    0 -0.00000000000E+00 -0.00000000000E+00 -0.45593999997E+02  0.45594000000E+02  0.51100000000E-03 0. -1.
    9900012    2    1    2    0    0  0.24425716066E+02 -0.35773118699E+02 -0.27003028974E+01  0.47787271175E+02  0.20000000593E+02 0.  0.
        -12    1    1    2    0    0 -0.24425716066E+02  0.35773118699E+02  0.27003028974E+01  0.43400728825E+02  0.00000000000E+00 0.  1.
         11    1    3    3    0    0  0.99797288041E+01 -0.46355152286E+01 -0.10182300828E+00  0.11004242665E+02  0.51100000000E-03 0. -1.
        -11    1    3    3    0    0  0.80349367549E+01 -0.11093304094E+02 -0.68475632995E+01  0.15313743101E+02  0.51100000000E-03 0.  1.
         12    1    3    3    0    0  0.64110505075E+01 -0.20044299377E+02  0.42490834104E+01  0.21469285409E+02  0.00000000000E+00 0. -1.
</event>
<event>
 7    1  0.4675811E-010  0.4778727E+02  0.7816164E-02  0.1312668E+00
        -11   -1    0    0    0    0  0.00000000000E+00  0.00000000000E+00  0.45593999997E+02  0.45594000000E+02  0.51100000000E-03 0.  1.
         11   -1    0    0    0    0 -0.00000000000E+00 -0.00000000000E+00 -0.45593999997E+02  0.45594000000E+02  0.51100000000E-03 0. -1.
    9900012    2    1    2    0    0 -0.35780031482E+02  0.30775084786E+01 -0.24370916075E+02  0.47787271186E+02  0.20000000644E+02 0.  0.
        -12    1    1    2    0    0  0.35780031482E+02 -0.30775084786E+01  0.24370916075E+02  0.43400728814E+02  0.00000000000E+00 0.  1.
         11    1    3    3    0    0 -0.21472772663E+02 -0.47263854606E+01 -0.14339213992E+02  0.26249414156E+02  0.51100000000E-03 0. -1.
        -11    1    3    3    0    0 -0.10207481758E+02  0.12232068805E+00 -0.67232125887E+01  0.12223306998E+02  0.51100000000E-03 0.  1.
        -12    1    3    3    0    0 -0.40997770606E+01  0.76815732512E+01 -0.33084894939E+01  0.93145500316E+01  0.00000000000E+00 0.  1.
</event>
<event>
 7    1  0.4675811E-010  0.4778727E+02  0.7816164E-02  0.1312668E+00
        -11   -1    0    0    0    0  0.00000000000E+00  0.00000000000E+00  0.45593999997E+02  0.45594000000E+02  0.51100000000E-03 0.  1.
         11   -1    0    0    0    0 -0.00000000000E+00 -0.00000000000E+00 -0.45593999997E+02  0.45594000000E+02  0.51100000000E-03 0. -1.
    9900012    2    1    2    0    0 -0.21527533085E+02  0.25616624946E+02 -0.27640139151E+02  0.47787269054E+02  0.19999990925E+02 0.  0.
        -12    1    1    2    0    0  0.21527533085E+02 -0.25616624946E+02  0.27640139151E+02  0.43400730946E+02  0.00000000000E+00 0.  1.
         11    1    3    3    0    0 -0.40901841148E+01  0.24060994188E+01  0.35041759808E+00  0.47583309322E+01  0.51100000000E-03 0. -1.
        -11    1    3    3    0    0 -0.63286246390E+01 -0.36772986624E+00 -0.33906251797E+01  0.71890927416E+01  0.51100000000E-03 0.  1.
         12    1    3    3    0    0 -0.11108724331E+02  0.23578255393E+02 -0.24599931570E+02  0.35839845380E+02  0.00000000000E+00 0. -1.
</event>
<event>
 7    1  0.5636694E-010  0.4778726E+02  0.7816164E-02  0.1312668E+00
        -11   -1    0    0    0    0  0.00000000000E+00  0.00000000000E+00  0.45593999997E+02  0.45594000000E+02  0.51100000000E-03 0.  1.
         11   -1    0    0    0    0 -0.00000000000E+00 -0.00000000000E+00 -0.45593999997E+02  0.45594000000E+02  0.51100000000E-03 0. -1.
    9900012    2    1    2    0    0  0.37581014786E+02  0.12577703284E+02 -0.17694427637E+02  0.47787261969E+02  0.19999958621E+02 0.  0.
        -12    1    1    2    0    0 -0.37581014786E+02 -0.12577703284E+02  0.17694427637E+02  0.43400738031E+02  0.00000000000E+00 0.  1.
         11    1    3    3    0    0  0.14249093866E+02  0.65252070272E+01 -0.79062865266E+01  0.17553471726E+02  0.51100000000E-03 0. -1.
        -11    1    3    3    0    0  0.16893169209E+02 -0.26974269713E+01 -0.90289345175E+01  0.19343653662E+02  0.51100000000E-03 0.  1.
        -12    1    3    3    0    0  0.64387517108E+01  0.87499232285E+01 -0.75920659279E+00  0.10890136581E+02  0.00000000000E+00 0.  1.
</event>
<event>
 7    1  0.4675811E-010  0.4778727E+02  0.7816164E-02  0.1312668E+00
        -11   -1    0    0    0    0  0.00000000000E+00  0.00000000000E+00  0.45593999997E+02  0.45594000000E+02  0.51100000000E-03 0. -1.
         11   -1    0    0    0    0 -0.00000000000E+00 -0.00000000000E+00 -0.45593999997E+02  0.45594000000E+02  0.51100000000E-03 0.  1.
    9900012    2    1    2    0    0  0.10009760606E+02 -0.26827627804E+02  0.32614517019E+02  0.47787266810E+02  0.19999980696E+02 0.  0.
        -12    1    1    2    0    0 -0.10009760606E+02  0.26827627804E+02 -0.32614517019E+02  0.43400733190E+02  0.00000000000E+00 0.  1.
         11    1    3    3    0    0  0.73714347411E+01 -0.70549601454E+01  0.72819006507E+01  0.12535413441E+02  0.51100000000E-03 0. -1.
        -11    1    3    3    0    0 -0.19208959140E+01 -0.74263842895E+00 -0.11228144836E+01  0.23456482204E+01  0.51100000000E-03 0.  1.
        -12    1    3    3    0    0  0.45592217788E+01 -0.19030029230E+02  0.26455430852E+02  0.32906205149E+02  0.00000000000E+00 0.  1.
</event>
<event>
 7    1  0.4675811E-010  0.4778728E+02  0.7816164E-02  0.1312668E+00
        -11   -1    0    0    0    0  0.00000000000E+00  0.00000000000E+00  0.45593999997E+02  0.45594000000E+02  0.51100000000E-03 0.  1.
         11   -1    0    0    0    0 -0.00000000000E+00 -0.00000000000E+00 -0.45593999997E+02  0.45594000000E+02  0.51100000000E-03 0. -1.
    9900012    2    1    2    0    0 -0.11025480265E+02 -0.15378125240E+02 -0.39058608179E+02  0.47787276229E+02  0.20000023637E+02 0.  0.
        -12    1    1    2    0    0  0.11025480265E+02  0.15378125240E+02  0.39058608179E+02  0.43400723771E+02  0.00000000000E+00 0.  1.
         11    1    3    3    0    0  0.14058802722E+01 -0.54655198784E+01 -0.13208481716E+02  0.14363578816E+02  0.51100000000E-03 0. -1.
        -11    1    3    3    0    0 -0.33592861571E+00 -0.63442864988E+00  0.17511201634E+01  0.18925564283E+01  0.51100000000E-03 0.  1.
         12    1    3    3    0    0 -0.12095431922E+02 -0.92781767116E+01 -0.27601246626E+02  0.31531140985E+02  0.00000000000E+00 0. -1.
</event>
<event>
 7    1  0.4675811E-010  0.4778727E+02  0.7816164E-02  0.1312668E+00
        -11   -1    0    0    0    0  0.00000000000E+00  0.00000000000E+00  0.45593999997E+02  0.45594000000E+02  0.51100000000E-03 0. -1.
         11   -1    0    0    0    0 -0.00000000000E+00 -0.00000000000E+00 -0.45593999997E+02  0.45594000000E+02  0.51100000000E-03 0.  1.
    9900012    2    1    2    0    0 -0.35423149220E+02  0.20784607175E+02  0.14029407159E+02  0.47787266581E+02  0.19999979649E+02 0.  0.
        -12    1    1    2    0    0  0.35423149220E+02 -0.20784607175E+02 -0.14029407159E+02  0.43400733419E+02  0.00000000000E+00 0.  1.
         11    1    3    3    0    0 -0.10406052910E+02  0.33297611802E+01  0.48392548317E-01  0.10925913636E+02  0.51100000000E-03 0. -1.
        -11    1    3    3    0    0 -0.19271546882E+02  0.74538936545E+01  0.28970277046E+01  0.20864942358E+02  0.51100000000E-03 0.  1.
         12    1    3    3    0    0 -0.57455494290E+01  0.10000952340E+02  0.11083986906E+02  0.15996410587E+02  0.00000000000E+00 0. -1.
</event>
<event>
 7    1  0.4675811E-010  0.4778728E+02  0.7816164E-02  0.1312668E+00
        -11   -1    0    0    0    0  0.00000000000E+00  0.00000000000E+00  0.45593999997E+02  0.45594000000E+02  0.51100000000E-03 0. -1.
         11   -1    0    0    0    0 -0.00000000000E+00 -0.00000000000E+00 -0.45593999997E+02  0.45594000000E+02  0.51100000000E-03 0.  1.
    9900012    2    1    2    0    0  0.30518795655E+02  0.22209331949E+02  0.21423622227E+02  0.47787275315E+02  0.20000019473E+02 0.  0.
        -12    1    1    2    0    0 -0.30518795655E+02 -0.22209331949E+02 -0.21423622227E+02  0.43400724685E+02  0.00000000000E+00 0.  1.
         11    1    3    3    0    0  0.14074356266E+02  0.77586197085E+01  0.13152504980E+02  0.20767091072E+02  0.51100000000E-03 0. -1.
        -11    1    3    3    0    0  0.16466793388E+02  0.16300551948E+02  0.92244717391E+01  0.24939008750E+02  0.51100000000E-03 0.  1.
         12    1    3    3    0    0 -0.22353998786E-01 -0.18498397079E+01 -0.95335449271E+00  0.20811754936E+01  0.00000000000E+00 0. -1.
</event>
<event>
 7    1  0.4675811E-010  0.4778728E+02  0.7816164E-02  0.1312668E+00
        -11   -1    0    0    0    0  0.00000000000E+00  0.00000000000E+00  0.45593999997E+02  0.45594000000E+02  0.51100000000E-03 0.  1.
         11   -1    0    0    0    0 -0.00000000000E+00 -0.00000000000E+00 -0.45593999997E+02  0.45594000000E+02  0.51100000000E-03 0. -1.
    9900012    2    1    2    0    0 -0.13394521746E+02  0.22578870927E+02 -0.34560154421E+02  0.47787275366E+02  0.20000019704E+02 0.  0.
        -12    1    1    2    0    0  0.13394521746E+02 -0.22578870927E+02  0.34560154421E+02  0.43400724634E+02  0.00000000000E+00 0.  1.
         11    1    3    3    0    0 -0.43537859850E+01  0.53538007765E+01 -0.77937127143E+01  0.10409639441E+02  0.51100000000E-03 0. -1.
        -11    1    3    3    0    0  0.52058983379E+01  0.60176862256E+01 -0.78104187089E+01  0.11149733884E+02  0.51100000000E-03 0.  1.
        -12    1    3    3    0    0 -0.14246634099E+02  0.11207383925E+02 -0.18956022998E+02  0.26227902041E+02  0.00000000000E+00 0.  1.
</event>
<event>
 7    1  0.4675811E-010  0.4778729E+02  0.7816164E-02  0.1312668E+00
        -11   -1    0    0    0    0  0.00000000000E+00  0.00000000000E+00  0.45593999997E+02  0.45594000000E+02  0.51100000000E-03 0. -1.
         11   -1    0    0    0    0 -0.00000000000E+00 -0.00000000000E+00 -0.45593999997E+02  0.45594000000E+02  0.51100000000E-03 0.  1.
    9900012    2    1    2    0    0 -0.32959746891E+02 -0.20528961278E+02  0.19386556464E+02  0.47787288741E+02  0.20000080685E+02 0.  0.
        -12    1    1    2    0    0  0.32959746891E+02  0.20528961278E+02 -0.19386556464E+02  0.43400711259E+02  0.00000000000E+00 0.  1.
         11    1    3    3    0    0 -0.98686398040E+01 -0.69430193991E+01  0.16305240623E+01  0.12175967269E+02  0.51100000000E-03 0. -1.
        -11    1    3    3    0    0 -0.93872759751E+01 -0.26610633021E+01 -0.11582929914E+01  0.98256730581E+01  0.51100000000E-03 0.  1.
         12    1    3    3    0    0 -0.13703831112E+02 -0.10924878577E+02  0.18914325393E+02  0.25785648414E+02  0.00000000000E+00 0. -1.
</event>
<event>
 7    1  0.4675811E-010  0.4778727E+02  0.7816164E-02  0.1312668E+00
        -11   -1    0    0    0    0  0.00000000000E+00  0.00000000000E+00  0.45593999997E+02  0.45594000000E+02  0.51100000000E-03 0. -1.
         11   -1    0    0    0    0 -0.00000000000E+00 -0.00000000000E+00 -0.45593999997E+02  0.45594000000E+02  0.51100000000E-03 0.  1.
    9900012    2    1    2    0    0 -0.37361117815E+02  0.21966944422E+02 -0.22855091904E+01  0.47787270469E+02  0.19999997375E+02 0.  0.
        -12    1    1    2    0    0  0.37361117815E+02 -0.21966944422E+02  0.22855091904E+01  0.43400729531E+02  0.00000000000E+00 0.  1.
         11    1    3    3    0    0 -0.12418498676E+02  0.68237296413E+01 -0.26272583774E+01  0.14411276225E+02  0.51100000000E-03 0. -1.
        -11    1    3    3    0    0 -0.38084705816E+01  0.88824125446E+01 -0.47272345392E+01  0.10758645242E+02  0.51100000000E-03 0.  1.
         12    1    3    3    0    0 -0.21134148557E+02  0.62608022356E+01  0.50689837262E+01  0.22617349002E+02  0.00000000000E+00 0. -1.
</event>
<event>
 7    1  0.4675811E-010  0.4778728E+02  0.7816164E-02  0.1312668E+00
        -11   -1    0    0    0    0  0.00000000000E+00  0.00000000000E+00  0.45593999997E+02  0.45594000000E+02  0.51100000000E-03 0.  1.
         11   -1    0    0    0    0 -0.00000000000E+00 -0.00000000000E+00 -0.45593999997E+02  0.45594000000E+02  0.51100000000E-03 0. -1.
    9900012    2    1    2    0    0  0.37820534851E+02 -0.20449000789E+02  0.59218513861E+01  0.47787276348E+02  0.20000024180E+02 0.  0.
        -12    1    1    2    0    0 -0.37820534851E+02  0.20449000789E+02 -0.59218513861E+01  0.43400723652E+02  0.00000000000E+00 0.  1.
         11    1    3    3    0    0  0.55307612088E+01 -0.63628890052E+01  0.38613709695E+01  0.92728561979E+01  0.51100000000E-03 0. -1.
        -11    1    3    3    0    0  0.11922534293E+02 -0.92767874405E+01  0.75370796870E+01  0.16882333359E+02  0.51100000000E-03 0.  1.
         12    1    3    3    0    0  0.20367239349E+02 -0.48093243429E+01 -0.54765992704E+01  0.21632086791E+02  0.00000000000E+00 0. -1.
</event>
<event>
 7    1  0.4675811E-010  0.4778727E+02  0.7816164E-02  0.1312668E+00
        -11   -1    0    0    0    0  0.00000000000E+00  0.00000000000E+00  0.45593999997E+02  0.45594000000E+02  0.51100000000E-03 0.  1.
         11   -1    0    0    0    0 -0.00000000000E+00 -0.00000000000E+00 -0.45593999997E+02  0.45594000000E+02  0.51100000000E-03 0. -1.
    9900012    2    1    2    0    0  0.21404207655E+02  0.87321206499E+01 -0.36731916680E+02  0.47787265681E+02  0.19999975547E+02 0.  0.
        -12    1    1    2    0    0 -0.21404207655E+02 -0.87321206499E+01  0.36731916680E+02  0.43400734319E+02  0.00000000000E+00 0.  1.
         11    1    3    3    0    0  0.70611798599E+01  0.12553610976E+01 -0.13095655345E+02  0.14930920323E+02  0.51100000000E-03 0. -1.
        -11    1    3    3    0    0  0.27674810200E+01 -0.40865093915E+01 -0.11849178873E+01  0.50756813202E+01  0.51100000000E-03 0.  1.
        -12    1    3    3    0    0  0.11575546775E+02  0.11563268944E+02 -0.22451343448E+02  0.27780664039E+02  0.00000000000E+00 0.  1.
</event>
<event>
 7    1  0.4675811E-010  0.4778731E+02  0.7816164E-02  0.1312668E+00
        -11   -1    0    0    0    0  0.00000000000E+00  0.00000000000E+00  0.45593999997E+02  0.45594000000E+02  0.51100000000E-03 0. -1.
         11   -1    0    0    0    0 -0.00000000000E+00 -0.00000000000E+00 -0.45593999997E+02  0.45594000000E+02  0.51100000000E-03 0.  1.
    9900012    2    1    2    0    0  0.70195316428E-01 -0.43376210112E+02 -0.14557303901E+01  0.47787312424E+02  0.20000188666E+02 0.  0.
        -12    1    1    2    0    0 -0.70195316428E-01  0.43376210112E+02  0.14557303901E+01  0.43400687576E+02  0.00000000000E+00 0.  1.
         11    1    3    3    0    0  0.24684907973E+01 -0.22236591661E+02  0.14664246790E+01  0.22421192143E+02  0.51100000000E-03 0. -1.
        -11    1    3    3    0    0  0.50949487902E+01 -0.69657940051E+01  0.14425666689E+01  0.87499593229E+01  0.51100000000E-03 0.  1.
         12    1    3    3    0    0 -0.74932442710E+01 -0.14173824446E+02 -0.43647217380E+01  0.16616160958E+02  0.00000000000E+00 0. -1.
</event>
<event>
 7    1  0.4675811E-010  0.4778727E+02  0.7816164E-02  0.1312668E+00
        -11   -1    0    0    0    0  0.00000000000E+00  0.00000000000E+00  0.45593999997E+02  0.45594000000E+02  0.51100000000E-03 0. -1.
         11   -1    0    0    0    0 -0.00000000000E+00 -0.00000000000E+00 -0.45593999997E+02  0.45594000000E+02  0.51100000000E-03 0.  1.
    9900012    2    1    2    0    0 -0.39215588129E+02 -0.15964285539E+02  0.95342803170E+01  0.47787271132E+02  0.20000000401E+02 0.  0.
        -12    1    1    2    0    0  0.39215588129E+02  0.15964285539E+02 -0.95342803170E+01  0.43400728868E+02  0.00000000000E+00 0.  1.
         11    1    3    3    0    0 -0.27483050830E+01  0.33475568431E+00 -0.17470989876E+01  0.32737741723E+01  0.51100000000E-03 0. -1.
        -11    1    3    3    0    0 -0.15766090190E+02 -0.72868665301E+01 -0.32410369487E+01  0.17668399602E+02  0.51100000000E-03 0.  1.
         12    1    3    3    0    0 -0.20701192856E+02 -0.90121746933E+01  0.14522416253E+02  0.26845097359E+02  0.00000000000E+00 0. -1.
</event>
<event>
 7    1  0.4675811E-010  0.4778727E+02  0.7816164E-02  0.1312668E+00
        -11   -1    0    0    0    0  0.00000000000E+00  0.00000000000E+00  0.45593999997E+02  0.45594000000E+02  0.51100000000E-03 0. -1.
         11   -1    0    0    0    0 -0.00000000000E+00 -0.00000000000E+00 -0.45593999997E+02  0.45594000000E+02  0.51100000000E-03 0.  1.
    9900012    2    1    2    0    0 -0.40022778877E+02  0.16774794554E+02 -0.63774682121E+00  0.47787270946E+02  0.19999999552E+02 0.  0.
        -12    1    1    2    0    0  0.40022778877E+02 -0.16774794554E+02  0.63774682121E+00  0.43400729054E+02  0.00000000000E+00 0.  1.
         11    1    3    3    0    0 -0.21686441013E+02  0.12928084773E+02  0.26968995467E+01  0.25391147417E+02  0.51100000000E-03 0. -1.
        -11    1    3    3    0    0 -0.19303412673E+02  0.25928680900E+01 -0.90721994601E+00  0.19497891015E+02  0.51100000000E-03 0.  1.
         12    1    3    3    0    0  0.96707480887E+00  0.12538416920E+01 -0.24274264219E+01  0.28982325146E+01  0.00000000000E+00 0. -1.
</event>
<event>
 7    1  0.4675811E-010  0.4778728E+02  0.7816164E-02  0.1312668E+00
        -11   -1    0    0    0    0  0.00000000000E+00  0.00000000000E+00  0.45593999997E+02  0.45594000000E+02  0.51100000000E-03 0. -1.
         11   -1    0    0    0    0 -0.00000000000E+00 -0.00000000000E+00 -0.45593999997E+02  0.45594000000E+02  0.51100000000E-03 0.  1.
    9900012    2    1    2    0    0 -0.15161232820E+02  0.14209800008E+02 -0.38103032161E+02  0.47787280458E+02  0.20000042920E+02 0.  0.
        -12    1    1    2    0    0  0.15161232820E+02 -0.14209800008E+02  0.38103032161E+02  0.43400719542E+02  0.00000000000E+00 0.  1.
         11    1    3    3    0    0 -0.53098869086E+01  0.25790588417E+01 -0.13767039787E+01  0.60614979664E+01  0.51100000000E-03 0. -1.
        -11    1    3    3    0    0 -0.12540739901E+02  0.89128900148E+01 -0.24638452645E+02  0.29047600842E+02  0.51100000000E-03 0.  1.
         12    1    3    3    0    0  0.26893939904E+01  0.27178511517E+01 -0.12087875538E+02  0.12678181650E+02  0.00000000000E+00 0. -1.
</event>
<event>
 7    1  0.4675811E-010  0.4778727E+02  0.7816164E-02  0.1312668E+00
        -11   -1    0    0    0    0  0.00000000000E+00  0.00000000000E+00  0.45593999997E+02  0.45594000000E+02  0.51100000000E-03 0.  1.
         11   -1    0    0    0    0 -0.00000000000E+00 -0.00000000000E+00 -0.45593999997E+02  0.45594000000E+02  0.51100000000E-03 0. -1.
    9900012    2    1    2    0    0  0.31407767001E+02  0.29780929011E+02 -0.32049473319E+01  0.47787271341E+02  0.20000001352E+02 0.  0.
        -12    1    1    2    0    0 -0.31407767001E+02 -0.29780929011E+02  0.32049473319E+01  0.43400728659E+02  0.00000000000E+00 0.  1.
         11    1    3    3    0    0  0.20761531092E+02  0.13285373240E+02 -0.12936759633E+01  0.24682299592E+02  0.51100000000E-03 0. -1.
        -11    1    3    3    0    0  0.45666529280E+01  0.11639296093E-01 -0.30616849912E+01  0.54980332561E+01  0.51100000000E-03 0.  1.
        -12    1    3    3    0    0  0.60795829809E+01  0.16483916475E+02  0.11504136227E+01  0.17606938492E+02  0.00000000000E+00 0.  1.
</event>
<event>
 7    1  0.5367807E-010  0.4778727E+02  0.7816164E-02  0.1312668E+00
        -11   -1    0    0    0    0  0.00000000000E+00  0.00000000000E+00  0.45593999997E+02  0.45594000000E+02  0.51100000000E-03 0.  1.
         11   -1    0    0    0    0 -0.00000000000E+00 -0.00000000000E+00 -0.45593999997E+02  0.45594000000E+02  0.51100000000E-03 0. -1.
    9900012    2    1    2    0    0  0.33342556757E+02  0.27058006789E+02 -0.63056822601E+01  0.47787269001E+02  0.19999990685E+02 0.  0.
        -12    1    1    2    0    0 -0.33342556757E+02 -0.27058006789E+02  0.63056822601E+01  0.43400730999E+02  0.00000000000E+00 0.  1.
         11    1    3    3    0    0  0.58425636402E+01  0.73855738976E+01 -0.63632297648E+01  0.11365427620E+02  0.51100000000E-03 0. -1.
        -11    1    3    3    0    0  0.14212787188E+00 -0.67868095454E+00 -0.21442736792E+01  0.22536011277E+01  0.51100000000E-03 0.  1.
         12    1    3    3    0    0  0.27357865244E+02  0.20351113846E+02  0.22018211839E+01  0.34168240254E+02  0.00000000000E+00 0. -1.
</event>
<event>
 7    1  0.4675811E-010  0.4778727E+02  0.7816164E-02  0.1312668E+00
        -11   -1    0    0    0    0  0.00000000000E+00  0.00000000000E+00  0.45593999997E+02  0.45594000000E+02  0.51100000000E-03 0.  1.
         11   -1    0    0    0    0 -0.00000000000E+00 -0.00000000000E+00 -0.45593999997E+02  0.45594000000E+02  0.51100000000E-03 0. -1.
    9900012    2    1    2    0    0 -0.33587389778E+02  0.19059494761E+02 -0.19805198804E+02  0.47787274288E+02  0.20000014789E+02 0.  0.
        -12    1    1    2    0    0  0.33587389778E+02 -0.19059494761E+02  0.19805198804E+02  0.43400725712E+02  0.00000000000E+00 0.  1.
         11    1    3    3    0    0 -0.50083802303E+01  0.51740314279E+01 -0.95324373802E+01  0.11946624478E+02  0.51100000000E-03 0. -1.
        -11    1    3    3    0    0 -0.11286921293E+02 -0.95666251821E+00 -0.53475600794E+01  0.12526220280E+02  0.51100000000E-03 0.  1.
        -12    1    3    3    0    0 -0.17292088255E+02  0.14842125852E+02 -0.49252013439E+01  0.23314429530E+02  0.00000000000E+00 0.  1.
</event>
<event>
 7    1  0.4675811E-010  0.4778727E+02  0.7816164E-02  0.1312668E+00
        -11   -1    0    0    0    0  0.00000000000E+00  0.00000000000E+00  0.45593999997E+02  0.45594000000E+02  0.51100000000E-03 0.  1.
         11   -1    0    0    0    0 -0.00000000000E+00 -0.00000000000E+00 -0.45593999997E+02  0.45594000000E+02  0.51100000000E-03 0. -1.
    9900012    2    1    2    0    0  0.14796212707E+02 -0.18199900263E+01 -0.40760066444E+02  0.47787270851E+02  0.19999999118E+02 0.  0.
        -12    1    1    2    0    0 -0.14796212707E+02  0.18199900263E+01  0.40760066444E+02  0.43400729149E+02  0.00000000000E+00 0.  1.
         11    1    3    3    0    0  0.10554225390E+02 -0.52662989425E+01 -0.27868510732E+02  0.30261848404E+02  0.51100000000E-03 0. -1.
        -11    1    3    3    0    0  0.93172022644E+00  0.62759300915E+01 -0.11162955114E+02  0.12840053280E+02  0.51100000000E-03 0.  1.
         12    1    3    3    0    0  0.33102670909E+01 -0.28296211752E+01 -0.17286005977E+01  0.46853691673E+01  0.00000000000E+00 0. -1.
</event>
<event>
 7    1  0.4675811E-010  0.4778727E+02  0.7816164E-02  0.1312668E+00
        -11   -1    0    0    0    0  0.00000000000E+00  0.00000000000E+00  0.45593999997E+02  0.45594000000E+02  0.51100000000E-03 0.  1.
         11   -1    0    0    0    0 -0.00000000000E+00 -0.00000000000E+00 -0.45593999997E+02  0.45594000000E+02  0.51100000000E-03 0. -1.
    9900012    2    1    2    0    0  0.39357133391E+02 -0.15763743997E+02  0.92813613869E+01  0.47787271403E+02  0.20000001633E+02 0.  0.
        -12    1    1    2    0    0 -0.39357133391E+02  0.15763743997E+02 -0.92813613869E+01  0.43400728597E+02  0.00000000000E+00 0.  1.
         11    1    3    3    0    0  0.84289299098E+01 -0.10225134616E+02  0.44588900771E+01  0.13981485555E+02  0.51100000000E-03 0. -1.
        -11    1    3    3    0    0 -0.72187402690E+00  0.82739042103E+00  0.58728830792E+00  0.12452248139E+01  0.51100000000E-03 0.  1.
        -12    1    3    3    0    0  0.31650077509E+02 -0.63659998022E+01  0.42351830019E+01  0.32560561034E+02  0.00000000000E+00 0.  1.
</event>
<event>
 7    1  0.4675811E-010  0.4778727E+02  0.7816164E-02  0.1312668E+00
        -11   -1    0    0    0    0  0.00000000000E+00  0.00000000000E+00  0.45593999997E+02  0.45594000000E+02  0.51100000000E-03 0. -1.
         11   -1    0    0    0    0 -0.00000000000E+00 -0.00000000000E+00 -0.45593999997E+02  0.45594000000E+02  0.51100000000E-03 0.  1.
    9900012    2    1    2    0    0 -0.43265925073E+02  0.29065131450E+01 -0.17986801753E+01  0.47787270266E+02  0.19999996450E+02 0.  0.
        -12    1    1    2    0    0  0.43265925073E+02 -0.29065131450E+01  0.17986801753E+01  0.43400729734E+02  0.00000000000E+00 0.  1.
         11    1    3    3    0    0 -0.32853669351E+01  0.28386698498E+01 -0.82420402318E-01  0.43426346609E+01  0.51100000000E-03 0. -1.
        -11    1    3    3    0    0 -0.31509346489E+02 -0.47574759974E+01 -0.65967865468E+01  0.32542127881E+02  0.51100000000E-03 0.  1.
        -12    1    3    3    0    0 -0.84712116491E+01  0.48253192926E+01  0.48805267738E+01  0.10902507724E+02  0.00000000000E+00 0.  1.
</event>
<event>
 7    1  0.4675811E-010  0.4778728E+02  0.7816164E-02  0.1312668E+00
        -11   -1    0    0    0    0  0.00000000000E+00  0.00000000000E+00  0.45593999997E+02  0.45594000000E+02  0.51100000000E-03 0.  1.
         11   -1    0    0    0    0 -0.00000000000E+00 -0.00000000000E+00 -0.45593999997E+02  0.45594000000E+02  0.51100000000E-03 0. -1.
    9900012    2    1    2    0    0 -0.40161621604E+02  0.60693303913E+01  0.15291500937E+02  0.47787278553E+02  0.20000034234E+02 0.  0.
        -12    1    1    2    0    0  0.40161621604E+02 -0.60693303913E+01 -0.15291500937E+02  0.43400721447E+02  0.00000000000E+00 0.  1.
         11    1    3    3    0    0 -0.14349949850E+02  0.84702133710E+01  0.10446762414E+02  0.19667242319E+02  0.51100000000E-03 0.  1.
        -11    1    3    3    0    0 -0.14125777339E+02  0.32261244835E+01  0.43979855948E+01  0.15142250235E+02  0.51100000000E-03 0. -1.
        -12    1    3    3    0    0 -0.11685894414E+02 -0.56270074632E+01  0.44675292798E+00  0.12977785999E+02  0.00000000000E+00 0.  1.
</event>
<event>
 7    1  0.4675811E-010  0.4778727E+02  0.7816164E-02  0.1312668E+00
        -11   -1    0    0    0    0  0.00000000000E+00  0.00000000000E+00  0.45593999997E+02  0.45594000000E+02  0.51100000000E-03 0.  1.
         11   -1    0    0    0    0 -0.00000000000E+00 -0.00000000000E+00 -0.45593999997E+02  0.45594000000E+02  0.51100000000E-03 0. -1.
    9900012    2    1    2    0    0  0.13388884803E+02  0.40102718719E+02  0.98047655647E+01  0.47787265989E+02  0.19999976950E+02 0.  0.
        -12    1    1    2    0    0 -0.13388884803E+02 -0.40102718719E+02 -0.98047655647E+01  0.43400734011E+02  0.00000000000E+00 0.  1.
         11    1    3    3    0    0  0.93179920227E+01  0.15176954830E+02 -0.82861612216E+00  0.17828391352E+02  0.51100000000E-03 0. -1.
        -11    1    3    3    0    0  0.42374026976E+01  0.35109632429E+01  0.58189870663E+01  0.80089359627E+01  0.51100000000E-03 0.  1.
         12    1    3    3    0    0 -0.16650991694E+00  0.21414800646E+02  0.48143946206E+01  0.21949938674E+02  0.00000000000E+00 0. -1.
</event>
<event>
 7    1  0.4675811E-010  0.4778727E+02  0.7816164E-02  0.1312668E+00
        -11   -1    0    0    0    0  0.00000000000E+00  0.00000000000E+00  0.45593999997E+02  0.45594000000E+02  0.51100000000E-03 0.  1.
         11   -1    0    0    0    0 -0.00000000000E+00 -0.00000000000E+00 -0.45593999997E+02  0.45594000000E+02  0.51100000000E-03 0. -1.
    9900012    2    1    2    0    0  0.97472845149E+01 -0.40565774291E+02  0.11959597031E+02  0.47787267744E+02  0.19999984952E+02 0.  0.
        -12    1    1    2    0    0 -0.97472845149E+01  0.40565774291E+02 -0.11959597031E+02  0.43400732256E+02  0.00000000000E+00 0.  1.
         11    1    3    3    0    0  0.42776882854E+01 -0.24458156036E+02 -0.26949229983E+01  0.24975240219E+02  0.51100000000E-03 0. -1.
        -11    1    3    3    0    0  0.33281078243E+00 -0.48538732895E+00  0.19333785069E+01  0.20209692200E+01  0.51100000000E-03 0.  1.
         12    1    3    3    0    0  0.51367854471E+01 -0.15622230926E+02  0.12721141522E+02  0.20791058305E+02  0.00000000000E+00 0. -1.
</event>
<event>
 7    1  0.4675811E-010  0.4778727E+02  0.7816164E-02  0.1312668E+00
        -11   -1    0    0    0    0  0.00000000000E+00  0.00000000000E+00  0.45593999997E+02  0.45594000000E+02  0.51100000000E-03 0.  1.
         11   -1    0    0    0    0 -0.00000000000E+00 -0.00000000000E+00 -0.45593999997E+02  0.45594000000E+02  0.51100000000E-03 0. -1.
    9900012    2    1    2    0    0 -0.39124522314E+02  0.34445616706E+01 -0.18466989525E+02  0.47787274736E+02  0.20000016830E+02 0.  0.
        -12    1    1    2    0    0  0.39124522314E+02 -0.34445616706E+01  0.18466989525E+02  0.43400725264E+02  0.00000000000E+00 0.  1.
         11    1    3    3    0    0 -0.19385865100E+02 -0.15360490769E+01 -0.73245582934E+01  0.20780287941E+02  0.51100000000E-03 0. -1.
        -11    1    3    3    0    0 -0.16953791260E+02 -0.16667933151E+01 -0.98703667687E+01  0.19688407210E+02  0.51100000000E-03 0.  1.
         12    1    3    3    0    0 -0.27848659533E+01  0.66474040626E+01 -0.12720644625E+01  0.73185795853E+01  0.00000000000E+00 0. -1.
</event>
<event>
 7    1  0.4675811E-010  0.4778728E+02  0.7816164E-02  0.1312668E+00
        -11   -1    0    0    0    0  0.00000000000E+00  0.00000000000E+00  0.45593999997E+02  0.45594000000E+02  0.51100000000E-03 0.  1.
         11   -1    0    0    0    0 -0.00000000000E+00 -0.00000000000E+00 -0.45593999997E+02  0.45594000000E+02  0.51100000000E-03 0. -1.
    9900012    2    1    2    0    0 -0.21584958522E+02  0.26205632750E+02 -0.27036587663E+02  0.47787277717E+02  0.20000030424E+02 0.  0.
        -12    1    1    2    0    0  0.21584958522E+02 -0.26205632750E+02  0.27036587663E+02  0.43400722283E+02  0.00000000000E+00 0.  1.
         11    1    3    3    0    0 -0.75550906710E+01  0.47548238836E+01 -0.21128971638E+01  0.91734442766E+01  0.51100000000E-03 0.  1.
        -11    1    3    3    0    0  0.77184586245E+00  0.12815783431E+01  0.15742194989E+01  0.21717173795E+01  0.51100000000E-03 0. -1.
         12    1    3    3    0    0 -0.14801713713E+02  0.20169230524E+02 -0.26497909998E+02  0.36442116061E+02  0.00000000000E+00 0. -1.
</event>
<event>
 7    1  0.4675811E-010  0.4778727E+02  0.7816164E-02  0.1312668E+00
        -11   -1    0    0    0    0  0.00000000000E+00  0.00000000000E+00  0.45593999997E+02  0.45594000000E+02  0.51100000000E-03 0.  1.
         11   -1    0    0    0    0 -0.00000000000E+00 -0.00000000000E+00 -0.45593999997E+02  0.45594000000E+02  0.51100000000E-03 0. -1.
    9900012    2    1    2    0    0 -0.77428790761E+01  0.45022960132E+01 -0.42466461091E+02  0.47787272318E+02  0.20000005806E+02 0.  0.
        -12    1    1    2    0    0  0.77428790761E+01 -0.45022960132E+01  0.42466461091E+02  0.43400727682E+02  0.00000000000E+00 0.  1.
         11    1    3    3    0    0 -0.20966601689E+01 -0.22404942412E+01 -0.16017539697E+02  0.16308812849E+02  0.51100000000E-03 0. -1.
        -11    1    3    3    0    0  0.45407576943E+01  0.13713315887E+01 -0.38301030342E+01  0.60966154773E+01  0.51100000000E-03 0.  1.
         12    1    3    3    0    0 -0.10186976602E+02  0.53714586658E+01 -0.22618818359E+02  0.25381843992E+02  0.00000000000E+00 0. -1.
</event>
<event>
 7    1  0.4675811E-010  0.4778727E+02  0.7816164E-02  0.1312668E+00
        -11   -1    0    0    0    0  0.00000000000E+00  0.00000000000E+00  0.45593999997E+02  0.45594000000E+02  0.51100000000E-03 0.  1.
         11   -1    0    0    0    0 -0.00000000000E+00 -0.00000000000E+00 -0.45593999997E+02  0.45594000000E+02  0.51100000000E-03 0. -1.
    9900012    2    1    2    0    0 -0.75919957518E+01 -0.41630496251E+02 -0.96377696715E+01  0.47787271644E+02  0.20000002735E+02 0.  0.
        -12    1    1    2    0    0  0.75919957518E+01  0.41630496251E+02  0.96377696715E+01  0.43400728356E+02  0.00000000000E+00 0.  1.
         11    1    3    3    0    0  0.22786291134E+01 -0.16904417479E+02 -0.33929677424E+01  0.17391483873E+02  0.51100000000E-03 0. -1.
        -11    1    3    3    0    0  0.17021067508E+01 -0.17036480580E+01 -0.38183647676E+01  0.45143652773E+01  0.51100000000E-03 0.  1.
        -12    1    3    3    0    0 -0.11572731616E+02 -0.23022430714E+02 -0.24264371615E+01  0.25881422494E+02  0.00000000000E+00 0.  1.
</event>
<event>
 7    1  0.4675811E-010  0.4778727E+02  0.7816164E-02  0.1312668E+00
        -11   -1    0    0    0    0  0.00000000000E+00  0.00000000000E+00  0.45593999997E+02  0.45594000000E+02  0.51100000000E-03 0.  1.
         11   -1    0    0    0    0 -0.00000000000E+00 -0.00000000000E+00 -0.45593999997E+02  0.45594000000E+02  0.51100000000E-03 0. -1.
    9900012    2    1    2    0    0  0.26959834848E+02  0.10691631363E+02 -0.32287455940E+02  0.47787268585E+02  0.19999988789E+02 0.  0.
        -12    1    1    2    0    0 -0.26959834848E+02 -0.10691631363E+02  0.32287455940E+02  0.43400731415E+02  0.00000000000E+00 0.  1.
         11    1    3    3    0    0  0.63996244705E+00 -0.69486035219E+00 -0.26314842597E+01  0.27959063849E+01  0.51100000000E-03 0. -1.
        -11    1    3    3    0    0  0.10590489395E+02 -0.41186933433E+01 -0.69756490417E+01  0.13333483427E+02  0.51100000000E-03 0.  1.
         12    1    3    3    0    0  0.15729383005E+02  0.15505185059E+02 -0.22680322639E+02  0.31657878773E+02  0.00000000000E+00 0. -1.
</event>
<event>
 7    1  0.4675811E-010  0.4778727E+02  0.7816164E-02  0.1312668E+00
        -11   -1    0    0    0    0  0.00000000000E+00  0.00000000000E+00  0.45593999997E+02  0.45594000000E+02  0.51100000000E-03 0.  1.
         11   -1    0    0    0    0 -0.00000000000E+00 -0.00000000000E+00 -0.45593999997E+02  0.45594000000E+02  0.51100000000E-03 0. -1.
    9900012    2    1    2    0    0 -0.47838918757E+00 -0.14130257431E+02 -0.41033283110E+02  0.47787270120E+02  0.19999995787E+02 0.  0.
        -12    1    1    2    0    0  0.47838918757E+00  0.14130257431E+02  0.41033283110E+02  0.43400729880E+02  0.00000000000E+00 0.  1.
         11    1    3    3    0    0  0.17415068586E+01  0.43124962749E+00 -0.32843002013E+01  0.37423856633E+01  0.51100000000E-03 0.  1.
        -11    1    3    3    0    0  0.61135283322E+01 -0.41960014976E+01 -0.23090848598E+02  0.24252194673E+02  0.51100000000E-03 0. -1.
         12    1    3    3    0    0 -0.83334243783E+01 -0.10365505561E+02 -0.14658134311E+02  0.19792689784E+02  0.00000000000E+00 0. -1.
</event>
<event>
 7    1  0.4675811E-010  0.4778727E+02  0.7816164E-02  0.1312668E+00
        -11   -1    0    0    0    0  0.00000000000E+00  0.00000000000E+00  0.45593999997E+02  0.45594000000E+02  0.51100000000E-03 0.  1.
         11   -1    0    0    0    0 -0.00000000000E+00 -0.00000000000E+00 -0.45593999997E+02  0.45594000000E+02  0.51100000000E-03 0. -1.
    9900012    2    1    2    0    0 -0.25673798681E+02  0.43808471348E+00 -0.34989814181E+02  0.47787274737E+02  0.20000016835E+02 0.  0.
        -12    1    1    2    0    0  0.25673798681E+02 -0.43808471348E+00  0.34989814181E+02  0.43400725263E+02  0.00000000000E+00 0.  1.
         11    1    3    3    0    0 -0.15194831212E+02  0.33016085768E+01 -0.12340071631E+02  0.19850966800E+02  0.51100000000E-03 0. -1.
        -11    1    3    3    0    0 -0.57122582072E+01 -0.30840333138E+01 -0.20745915038E+01  0.68150631307E+01  0.51100000000E-03 0.  1.
        -12    1    3    3    0    0 -0.47667092616E+01  0.22050945043E+00 -0.20575151046E+02  0.21121244806E+02  0.00000000000E+00 0.  1.
</event>
<event>
 7    1  0.4675811E-010  0.4778728E+02  0.7816164E-02  0.1312668E+00
        -11   -1    0    0    0    0  0.00000000000E+00  0.00000000000E+00  0.45593999997E+02  0.45594000000E+02  0.51100000000E-03 0.  1.
         11   -1    0    0    0    0 -0.00000000000E+00 -0.00000000000E+00 -0.45593999997E+02  0.45594000000E+02  0.51100000000E-03 0. -1.
    9900012    2    1    2    0    0  0.15374256019E+02 -0.29823749094E+01 -0.40476658707E+02  0.47787283320E+02  0.20000055971E+02 0.  0.
        -12    1    1    2    0    0 -0.15374256019E+02  0.29823749094E+01  0.40476658707E+02  0.43400716680E+02  0.00000000000E+00 0.  1.
         11    1    3    3    0    0  0.65812572598E+01  0.23150365252E+01 -0.33250432284E+02  0.33974454941E+02  0.51100000000E-03 0. -1.
        -11    1    3    3    0    0 -0.19145921677E+00 -0.18481603890E+01 -0.24332031129E+01  0.30615079789E+01  0.51100000000E-03 0.  1.
         12    1    3    3    0    0  0.89844579760E+01 -0.34492510456E+01 -0.47930233101E+01  0.10751320400E+02  0.00000000000E+00 0. -1.
</event>
<event>
 7    1  0.4675811E-010  0.4778727E+02  0.7816164E-02  0.1312668E+00
        -11   -1    0    0    0    0  0.00000000000E+00  0.00000000000E+00  0.45593999997E+02  0.45594000000E+02  0.51100000000E-03 0.  1.
         11   -1    0    0    0    0 -0.00000000000E+00 -0.00000000000E+00 -0.45593999997E+02  0.45594000000E+02  0.51100000000E-03 0. -1.
    9900012    2    1    2    0    0  0.13911770456E+02  0.14503437637E+02 -0.38467339364E+02  0.47787271224E+02  0.20000000820E+02 0.  0.
        -12    1    1    2    0    0 -0.13911770456E+02 -0.14503437637E+02  0.38467339364E+02  0.43400728776E+02  0.00000000000E+00 0.  1.
         11    1    3    3    0    0  0.69057315161E+01 -0.59533777847E+00 -0.22250555984E+02  0.23305166739E+02  0.51100000000E-03 0. -1.
        -11    1    3    3    0    0 -0.16535788572E+01  0.18434528088E+01 -0.27028126423E+01  0.36657656412E+01  0.51100000000E-03 0.  1.
        -12    1    3    3    0    0  0.86596177968E+01  0.13255322607E+02 -0.13513970737E+02  0.20816338845E+02  0.00000000000E+00 0.  1.
</event>
<event>
 7    1  0.4675811E-010  0.4778727E+02  0.7816164E-02  0.1312668E+00
        -11   -1    0    0    0    0  0.00000000000E+00  0.00000000000E+00  0.45593999997E+02  0.45594000000E+02  0.51100000000E-03 0.  1.
         11   -1    0    0    0    0 -0.00000000000E+00 -0.00000000000E+00 -0.45593999997E+02  0.45594000000E+02  0.51100000000E-03 0. -1.
    9900012    2    1    2    0    0  0.63744450899E+01 -0.42338421505E+02 -0.71026562312E+01  0.47787271765E+02  0.20000003287E+02 0.  0.
        -12    1    1    2    0    0 -0.63744450899E+01  0.42338421505E+02  0.71026562312E+01  0.43400728235E+02  0.00000000000E+00 0.  1.
         11    1    3    3    0    0 -0.23326787815E+01 -0.42177088468E+00  0.12940072478E+01  0.27006917624E+01  0.51100000000E-03 0. -1.
        -11    1    3    3    0    0 -0.11862057775E+01 -0.86129640064E+01 -0.53561447994E+01  0.10211685487E+02  0.51100000000E-03 0.  1.
         12    1    3    3    0    0  0.98933296489E+01 -0.33303686614E+02 -0.30405186796E+01  0.34874894516E+02  0.00000000000E+00 0. -1.
</event>
<event>
 7    1  0.4675811E-010  0.4778727E+02  0.7816164E-02  0.1312668E+00
        -11   -1    0    0    0    0  0.00000000000E+00  0.00000000000E+00  0.45593999997E+02  0.45594000000E+02  0.51100000000E-03 0. -1.
         11   -1    0    0    0    0 -0.00000000000E+00 -0.00000000000E+00 -0.45593999997E+02  0.45594000000E+02  0.51100000000E-03 0.  1.
    9900012    2    1    2    0    0  0.24192535160E+02 -0.16181823458E+02 -0.32194613609E+02  0.47787270590E+02  0.19999997927E+02 0.  0.
        -12    1    1    2    0    0 -0.24192535160E+02  0.16181823458E+02  0.32194613609E+02  0.43400729410E+02  0.00000000000E+00 0.  1.
         11    1    3    3    0    0  0.81312576745E+01 -0.46423325075E+01 -0.10937695448E+01  0.94268199599E+01  0.51100000000E-03 0. -1.
        -11    1    3    3    0    0 -0.12321720048E+01 -0.27085646727E+01 -0.51689971511E+01  0.59643190932E+01  0.51100000000E-03 0.  1.
         12    1    3    3    0    0  0.17293449490E+02 -0.88309262778E+01 -0.25931846914E+02  0.32396131537E+02  0.00000000000E+00 0. -1.
</event>
<event>
 7    1  0.4675811E-010  0.4778727E+02  0.7816164E-02  0.1312668E+00
        -11   -1    0    0    0    0  0.00000000000E+00  0.00000000000E+00  0.45593999997E+02  0.45594000000E+02  0.51100000000E-03 0.  1.
         11   -1    0    0    0    0 -0.00000000000E+00 -0.00000000000E+00 -0.45593999997E+02  0.45594000000E+02  0.51100000000E-03 0. -1.
    9900012    2    1    2    0    0  0.14568679109E+02 -0.13621398242E+02 -0.38546528611E+02  0.47787265340E+02  0.19999973992E+02 0.  0.
        -12    1    1    2    0    0 -0.14568679109E+02  0.13621398242E+02  0.38546528611E+02  0.43400734660E+02  0.00000000000E+00 0.  1.
         11    1    3    3    0    0 -0.17215027903E+00  0.79908691891E+00  0.11788187904E+01  0.14344997819E+01  0.51100000000E-03 0. -1.
        -11    1    3    3    0    0  0.48570557146E+01 -0.32509008562E+01 -0.27035943478E+01  0.64396249309E+01  0.51100000000E-03 0.  1.
         12    1    3    3    0    0  0.98837736733E+01 -0.11169584305E+02 -0.37021753054E+02  0.39913140627E+02  0.00000000000E+00 0. -1.
</event>
<event>
 7    1  0.4675811E-010  0.4778727E+02  0.7816164E-02  0.1312668E+00
        -11   -1    0    0    0    0  0.00000000000E+00  0.00000000000E+00  0.45593999997E+02  0.45594000000E+02  0.51100000000E-03 0.  1.
         11   -1    0    0    0    0 -0.00000000000E+00 -0.00000000000E+00 -0.45593999997E+02  0.45594000000E+02  0.51100000000E-03 0. -1.
    9900012    2    1    2    0    0  0.25366092981E+02  0.69588784458E+00 -0.35209377860E+02  0.47787271638E+02  0.20000002708E+02 0.  0.
        -12    1    1    2    0    0 -0.25366092981E+02 -0.69588784458E+00  0.35209377860E+02  0.43400728362E+02  0.00000000000E+00 0.  1.
         11    1    3    3    0    0  0.85336457632E+01  0.31221342680E+01 -0.19103875193E+02  0.21154878399E+02  0.51100000000E-03 0. -1.
        -11    1    3    3    0    0  0.13759473388E+02  0.33020297226E+01 -0.13715750610E+02  0.19706555337E+02  0.51100000000E-03 0.  1.
         12    1    3    3    0    0  0.30729738301E+01 -0.57282761460E+01 -0.23897520573E+01  0.69258379031E+01  0.00000000000E+00 0. -1.
</event>
<event>
 7    1  0.4675811E-010  0.4778727E+02  0.7816164E-02  0.1312668E+00
        -11   -1    0    0    0    0  0.00000000000E+00  0.00000000000E+00  0.45593999997E+02  0.45594000000E+02  0.51100000000E-03 0.  1.
         11   -1    0    0    0    0 -0.00000000000E+00 -0.00000000000E+00 -0.45593999997E+02  0.45594000000E+02  0.51100000000E-03 0. -1.
    9900012    2    1    2    0    0  0.21021627661E+02 -0.28702012759E+02 -0.24857767364E+02  0.47787274611E+02  0.20000016263E+02 0.  0.
        -12    1    1    2    0    0 -0.21021627661E+02  0.28702012759E+02  0.24857767364E+02  0.43400725389E+02  0.00000000000E+00 0.  1.
         11    1    3    3    0    0  0.30198952937E+01 -0.36114543089E+00  0.17729174443E+01  0.35204303903E+01  0.51100000000E-03 0. -1.
        -11    1    3    3    0    0  0.68544551608E+01 -0.26616155676E+01 -0.50588714123E+01  0.89252413529E+01  0.51100000000E-03 0.  1.
         12    1    3    3    0    0  0.11147277206E+02 -0.25679251761E+02 -0.21571813396E+02  0.35341602868E+02  0.00000000000E+00 0. -1.
</event>
<event>
 7    1  0.4675811E-010  0.4778727E+02  0.7816164E-02  0.1312668E+00
        -11   -1    0    0    0    0  0.00000000000E+00  0.00000000000E+00  0.45593999997E+02  0.45594000000E+02  0.51100000000E-03 0.  1.
         11   -1    0    0    0    0 -0.00000000000E+00 -0.00000000000E+00 -0.45593999997E+02  0.45594000000E+02  0.51100000000E-03 0. -1.
    9900012    2    1    2    0    0  0.92661214139E+00  0.43375505377E+02 -0.11534141681E+01  0.47787269119E+02  0.19999991221E+02 0.  0.
        -12    1    1    2    0    0 -0.92661214139E+00 -0.43375505377E+02  0.11534141681E+01  0.43400730881E+02  0.00000000000E+00 0.  1.
         11    1    3    3    0    0 -0.31327569825E+01  0.16423131066E+02  0.17747562409E+01  0.16813184122E+02  0.51100000000E-03 0.  1.
        -11    1    3    3    0    0 -0.20072397313E+01  0.16673123526E+02 -0.72338888320E+01  0.18285272964E+02  0.51100000000E-03 0. -1.
         12    1    3    3    0    0  0.60666088552E+01  0.10279250784E+02  0.43057184230E+01  0.12688812033E+02  0.00000000000E+00 0. -1.
</event>
<event>
 7    1  0.4675811E-010  0.4778727E+02  0.7816164E-02  0.1312668E+00
        -11   -1    0    0    0    0  0.00000000000E+00  0.00000000000E+00  0.45593999997E+02  0.45594000000E+02  0.51100000000E-03 0.  1.
         11   -1    0    0    0    0 -0.00000000000E+00 -0.00000000000E+00 -0.45593999997E+02  0.45594000000E+02  0.51100000000E-03 0. -1.
    9900012    2    1    2    0    0 -0.13495885364E+02  0.40468667098E+02 -0.79857167675E+01  0.47787267163E+02  0.19999982304E+02 0.  0.
        -12    1    1    2    0    0  0.13495885364E+02 -0.40468667098E+02  0.79857167675E+01  0.43400732837E+02  0.00000000000E+00 0.  1.
         11    1    3    3    0    0 -0.38725041136E+01  0.48909366524E+01 -0.88330387049E+00  0.63006170679E+01  0.51100000000E-03 0. -1.
        -11    1    3    3    0    0  0.27207271875E+01  0.81601415990E+01  0.39316857190E+01  0.94577174941E+01  0.51100000000E-03 0.  1.
         12    1    3    3    0    0 -0.12344108438E+02  0.27417588847E+02 -0.11034098616E+02  0.32028932601E+02  0.00000000000E+00 0. -1.
</event>
<event>
 7    1  0.4675811E-010  0.4778726E+02  0.7816164E-02  0.1312668E+00
        -11   -1    0    0    0    0  0.00000000000E+00  0.00000000000E+00  0.45593999997E+02  0.45594000000E+02  0.51100000000E-03 0. -1.
         11   -1    0    0    0    0 -0.00000000000E+00 -0.00000000000E+00 -0.45593999997E+02  0.45594000000E+02  0.51100000000E-03 0.  1.
    9900012    2    1    2    0    0 -0.76990168829E+01  0.39952174198E+02 -0.15105390321E+02  0.47787263821E+02  0.19999967066E+02 0.  0.
        -12    1    1    2    0    0  0.76990168829E+01 -0.39952174198E+02  0.15105390321E+02  0.43400736179E+02  0.00000000000E+00 0.  1.
         11    1    3    3    0    0  0.33518855935E+01  0.21697960544E+02 -0.13276699414E+01  0.21995438994E+02  0.51100000000E-03 0. -1.
        -11    1    3    3    0    0 -0.27402751848E+01  0.66606045338E+01 -0.25562699507E+01  0.76424653853E+01  0.51100000000E-03 0.  1.
         12    1    3    3    0    0 -0.83106272916E+01  0.11593609120E+02 -0.11221450429E+02  0.18149359441E+02  0.00000000000E+00 0. -1.
</event>
<event>
 7    1  0.4675811E-010  0.4778728E+02  0.7816164E-02  0.1312668E+00
        -11   -1    0    0    0    0  0.00000000000E+00  0.00000000000E+00  0.45593999997E+02  0.45594000000E+02  0.51100000000E-03 0.  1.
         11   -1    0    0    0    0 -0.00000000000E+00 -0.00000000000E+00 -0.45593999997E+02  0.45594000000E+02  0.51100000000E-03 0. -1.
    9900012    2    1    2    0    0 -0.18462071748E+02  0.25098269993E+02 -0.30213429229E+02  0.47787279319E+02  0.20000037726E+02 0.  0.
        -12    1    1    2    0    0  0.18462071748E+02 -0.25098269993E+02  0.30213429229E+02  0.43400720681E+02  0.00000000000E+00 0.  1.
         11    1    3    3    0    0 -0.40328941046E+00  0.98552538991E+01 -0.11196423830E+02  0.14921413425E+02  0.51100000000E-03 0. -1.
        -11    1    3    3    0    0 -0.12771483644E+01  0.12818264984E+00 -0.73198578670E+01  0.74315448051E+01  0.51100000000E-03 0.  1.
         12    1    3    3    0    0 -0.16781633973E+02  0.15114833444E+02 -0.11697147532E+02  0.25434321088E+02  0.00000000000E+00 0. -1.
</event>
<event>
 7    1  0.4675811E-010  0.4778727E+02  0.7816164E-02  0.1312668E+00
        -11   -1    0    0    0    0  0.00000000000E+00  0.00000000000E+00  0.45593999997E+02  0.45594000000E+02  0.51100000000E-03 0. -1.
         11   -1    0    0    0    0 -0.00000000000E+00 -0.00000000000E+00 -0.45593999997E+02  0.45594000000E+02  0.51100000000E-03 0.  1.
    9900012    2    1    2    0    0 -0.31260733342E+01 -0.41467657518E+02  0.12421144039E+02  0.47787265285E+02  0.19999973742E+02 0.  0.
        -12    1    1    2    0    0  0.31260733342E+01  0.41467657518E+02 -0.12421144039E+02  0.43400734715E+02  0.00000000000E+00 0.  1.
         11    1    3    3    0    0  0.47451360610E+01 -0.27196207269E+02  0.10275211857E+02  0.29457256916E+02  0.51100000000E-03 0. -1.
        -11    1    3    3    0    0  0.50777394116E+00 -0.49492369122E+01 -0.16363216831E+01  0.52373971875E+01  0.51100000000E-03 0.  1.
        -12    1    3    3    0    0 -0.83789833364E+01 -0.93222133374E+01  0.37822538649E+01  0.13092611182E+02  0.00000000000E+00 0.  1.
</event>
<event>
 7    1  0.4675811E-010  0.4778728E+02  0.7816164E-02  0.1312668E+00
        -11   -1    0    0    0    0  0.00000000000E+00  0.00000000000E+00  0.45593999997E+02  0.45594000000E+02  0.51100000000E-03 0.  1.
         11   -1    0    0    0    0 -0.00000000000E+00 -0.00000000000E+00 -0.45593999997E+02  0.45594000000E+02  0.51100000000E-03 0. -1.
    9900012    2    1    2    0    0  0.36029604817E+02  0.16624261255E+02 -0.17581934116E+02  0.47787275435E+02  0.20000020018E+02 0.  0.
        -12    1    1    2    0    0 -0.36029604817E+02 -0.16624261255E+02  0.17581934116E+02  0.43400724565E+02  0.00000000000E+00 0.  1.
         11    1    3    3    0    0  0.84388392083E+01  0.31502273905E+01 -0.89514831487E+01  0.12699094087E+02  0.51100000000E-03 0. -1.
        -11    1    3    3    0    0  0.12510892839E+02 -0.15991534327E+01 -0.20787426403E+01  0.12782836249E+02  0.51100000000E-03 0.  1.
         12    1    3    3    0    0  0.15079872769E+02  0.15073187297E+02 -0.65517083267E+01  0.22305345100E+02  0.00000000000E+00 0. -1.
</event>
<event>
 7    1  0.4675811E-010  0.4778727E+02  0.7816164E-02  0.1312668E+00
        -11   -1    0    0    0    0  0.00000000000E+00  0.00000000000E+00  0.45593999997E+02  0.45594000000E+02  0.51100000000E-03 0.  1.
         11   -1    0    0    0    0 -0.00000000000E+00 -0.00000000000E+00 -0.45593999997E+02  0.45594000000E+02  0.51100000000E-03 0. -1.
    9900012    2    1    2    0    0  0.20841520081E+02  0.81924008837E+01 -0.37177125724E+02  0.47787273409E+02  0.20000010782E+02 0.  0.
        -12    1    1    2    0    0 -0.20841520081E+02 -0.81924008837E+01  0.37177125724E+02  0.43400726591E+02  0.00000000000E+00 0.  1.
         11    1    3    3    0    0  0.56061564142E+01  0.31753769606E+01 -0.89163206698E+01  0.11000581036E+02  0.51100000000E-03 0. -1.
        -11    1    3    3    0    0  0.98921353207E+01  0.17097491527E+01 -0.26032885812E+01  0.10370857972E+02  0.51100000000E-03 0.  1.
        -12    1    3    3    0    0  0.53432283456E+01  0.33072747705E+01 -0.25657516473E+02  0.26415834402E+02  0.00000000000E+00 0.  1.
</event>
<event>
 7    1  0.4675811E-010  0.4778727E+02  0.7816164E-02  0.1312668E+00
        -11   -1    0    0    0    0  0.00000000000E+00  0.00000000000E+00  0.45593999997E+02  0.45594000000E+02  0.51100000000E-03 0.  1.
         11   -1    0    0    0    0 -0.00000000000E+00 -0.00000000000E+00 -0.45593999997E+02  0.45594000000E+02  0.51100000000E-03 0. -1.
    9900012    2    1    2    0    0 -0.22562929948E+02  0.32189988774E+01 -0.36934747560E+02  0.47787270295E+02  0.19999996582E+02 0.  0.
        -12    1    1    2    0    0  0.22562929948E+02 -0.32189988774E+01  0.36934747560E+02  0.43400729705E+02  0.00000000000E+00 0.  1.
         11    1    3    3    0    0 -0.89188180693E+01  0.39689179312E+01 -0.90629300632E+01  0.13320447699E+02  0.51100000000E-03 0. -1.
        -11    1    3    3    0    0 -0.15656285018E+02 -0.12271315259E+01 -0.16011297462E+02  0.22427366297E+02  0.51100000000E-03 0.  1.
         12    1    3    3    0    0  0.20121731386E+01  0.47721247204E+00 -0.11860520035E+02  0.12039456299E+02  0.00000000000E+00 0. -1.
</event>
<event>
 7    1  0.4675811E-010  0.4778727E+02  0.7816164E-02  0.1312668E+00
        -11   -1    0    0    0    0  0.00000000000E+00  0.00000000000E+00  0.45593999997E+02  0.45594000000E+02  0.51100000000E-03 0.  1.
         11   -1    0    0    0    0 -0.00000000000E+00 -0.00000000000E+00 -0.45593999997E+02  0.45594000000E+02  0.51100000000E-03 0. -1.
    9900012    2    1    2    0    0 -0.32754548365E+02  0.17321973951E+02 -0.22598940716E+02  0.47787270264E+02  0.19999996442E+02 0.  0.
        -12    1    1    2    0    0  0.32754548365E+02 -0.17321973951E+02  0.22598940716E+02  0.43400729736E+02  0.00000000000E+00 0.  1.
         11    1    3    3    0    0 -0.30721669092E+02  0.18580654117E+02 -0.21147065073E+02  0.41668453543E+02  0.51100000000E-03 0. -1.
        -11    1    3    3    0    0 -0.86428827659E+00  0.18275603713E+01  0.74483556847E+00  0.21544724229E+01  0.51100000000E-03 0.  1.
        -12    1    3    3    0    0 -0.11685909962E+01 -0.30862405371E+01 -0.21967112116E+01  0.39643442984E+01  0.00000000000E+00 0.  1.
</event>
<event>
 7    1  0.4675811E-010  0.4778727E+02  0.7816164E-02  0.1312668E+00
        -11   -1    0    0    0    0  0.00000000000E+00  0.00000000000E+00  0.45593999997E+02  0.45594000000E+02  0.51100000000E-03 0.  1.
         11   -1    0    0    0    0 -0.00000000000E+00 -0.00000000000E+00 -0.45593999997E+02  0.45594000000E+02  0.51100000000E-03 0. -1.
    9900012    2    1    2    0    0 -0.18297725442E+02  0.13345707268E+02 -0.37023082412E+02  0.47787270857E+02  0.19999999146E+02 0.  0.
        -12    1    1    2    0    0  0.18297725442E+02 -0.13345707268E+02  0.37023082412E+02  0.43400729143E+02  0.00000000000E+00 0.  1.
         11    1    3    3    0    0  0.17219539041E+01  0.34637086054E+00 -0.64705689273E+01  0.67047267301E+01  0.51100000000E-03 0. -1.
        -11    1    3    3    0    0 -0.81317322482E+01  0.69647718754E+01 -0.23888050605E+02  0.26177701935E+02  0.51100000000E-03 0.  1.
        -12    1    3    3    0    0 -0.11887947098E+02  0.60345645319E+01 -0.66644628801E+01  0.14904842192E+02  0.00000000000E+00 0.  1.
</event>
<event>
 7    1  0.4675811E-010  0.4778727E+02  0.7816164E-02  0.1312668E+00
        -11   -1    0    0    0    0  0.00000000000E+00  0.00000000000E+00  0.45593999997E+02  0.45594000000E+02  0.51100000000E-03 0.  1.
         11   -1    0    0    0    0 -0.00000000000E+00 -0.00000000000E+00 -0.45593999997E+02  0.45594000000E+02  0.51100000000E-03 0. -1.
    9900012    2    1    2    0    0  0.24445407952E+02 -0.28581290884E+02 -0.21659984794E+02  0.47787273049E+02  0.20000009140E+02 0.  0.
        -12    1    1    2    0    0 -0.24445407952E+02  0.28581290884E+02  0.21659984794E+02  0.43400726951E+02  0.00000000000E+00 0.  1.
         11    1    3    3    0    0  0.95849087889E+01 -0.80402588323E+01 -0.35822965214E+01  0.13013419505E+02  0.51100000000E-03 0. -1.
        -11    1    3    3    0    0  0.70682845375E+01 -0.14127624211E+02 -0.21849467612E+01  0.15947551686E+02  0.51100000000E-03 0.  1.
         12    1    3    3    0    0  0.77922146259E+01 -0.64134078405E+01 -0.15892741512E+02  0.18826301859E+02  0.00000000000E+00 0. -1.
</event>
<event>
 7    1  0.4675811E-010  0.4778728E+02  0.7816164E-02  0.1312668E+00
        -11   -1    0    0    0    0  0.00000000000E+00  0.00000000000E+00  0.45593999997E+02  0.45594000000E+02  0.51100000000E-03 0.  1.
         11   -1    0    0    0    0 -0.00000000000E+00 -0.00000000000E+00 -0.45593999997E+02  0.45594000000E+02  0.51100000000E-03 0. -1.
    9900012    2    1    2    0    0 -0.26238276868E+02  0.14559369271E+02 -0.31356016552E+02  0.47787283640E+02  0.20000057428E+02 0.  0.
        -12    1    1    2    0    0  0.26238276868E+02 -0.14559369271E+02  0.31356016552E+02  0.43400716360E+02  0.00000000000E+00 0.  1.
         11    1    3    3    0    0 -0.89377880142E+01  0.82463592824E+01 -0.10019438997E+02  0.15756765343E+02  0.51100000000E-03 0. -1.
        -11    1    3    3    0    0 -0.18839704332E+02  0.34806933229E+01 -0.13164138235E+02  0.23245305356E+02  0.51100000000E-03 0.  1.
         12    1    3    3    0    0  0.15392154788E+01  0.28323166653E+01 -0.81724393202E+01  0.87852129413E+01  0.00000000000E+00 0. -1.
</event>
<event>
 7    1  0.4675811E-010  0.4778724E+02  0.7816164E-02  0.1312668E+00
        -11   -1    0    0    0    0  0.00000000000E+00  0.00000000000E+00  0.45593999997E+02  0.45594000000E+02  0.51100000000E-03 0. -1.
         11   -1    0    0    0    0 -0.00000000000E+00 -0.00000000000E+00 -0.45593999997E+02  0.45594000000E+02  0.51100000000E-03 0.  1.
    9900012    2    1    2    0    0 -0.28504581544E+02  0.19630170630E+02  0.26187236475E+02  0.47787238231E+02  0.19999850389E+02 0.  0.
        -12    1    1    2    0    0  0.28504581544E+02 -0.19630170630E+02 -0.26187236475E+02  0.43400761769E+02  0.00000000000E+00 0.  1.
         11    1    3    3    0    0 -0.13979797923E+02  0.32125737353E+01  0.14052139287E+02  0.20080288812E+02  0.51100000000E-03 0. -1.
        -11    1    3    3    0    0 -0.95769454641E+01  0.84090772602E+01  0.13059767721E+02  0.18247958734E+02  0.51100000000E-03 0.  1.
        -12    1    3    3    0    0 -0.49478381574E+01  0.80085196348E+01 -0.92467053336E+00  0.94589906844E+01  0.00000000000E+00 0.  1.
</event>
<event>
 7    1  0.4675811E-010  0.4778727E+02  0.7816164E-02  0.1312668E+00
        -11   -1    0    0    0    0  0.00000000000E+00  0.00000000000E+00  0.45593999997E+02  0.45594000000E+02  0.51100000000E-03 0. -1.
         11   -1    0    0    0    0 -0.00000000000E+00 -0.00000000000E+00 -0.45593999997E+02  0.45594000000E+02  0.51100000000E-03 0.  1.
    9900012    2    1    2    0    0 -0.27896903903E+01 -0.15491920574E+02  0.40445532509E+02  0.47787273330E+02  0.20000010421E+02 0.  0.
        -12    1    1    2    0    0  0.27896903903E+01  0.15491920574E+02 -0.40445532509E+02  0.43400726670E+02  0.00000000000E+00 0.  1.
         11    1    3    3    0    0  0.33456522599E+01 -0.72135212443E+01  0.26252826603E+02  0.27430624905E+02  0.51100000000E-03 0. -1.
        -11    1    3    3    0    0 -0.46424909308E+01 -0.56915770353E+01  0.15457059971E+02  0.17113371217E+02  0.51100000000E-03 0.  1.
        -12    1    3    3    0    0 -0.14928517194E+01 -0.25868222949E+01 -0.12643540656E+01  0.32432772075E+01  0.00000000000E+00 0.  1.
</event>
<event>
 7    1  0.4675811E-010  0.4778727E+02  0.7816164E-02  0.1312668E+00
        -11   -1    0    0    0    0  0.00000000000E+00  0.00000000000E+00  0.45593999997E+02  0.45594000000E+02  0.51100000000E-03 0. -1.
         11   -1    0    0    0    0 -0.00000000000E+00 -0.00000000000E+00 -0.45593999997E+02  0.45594000000E+02  0.51100000000E-03 0.  1.
    9900012    2    1    2    0    0 -0.18400617492E+02 -0.38827943355E+02 -0.61181186613E+01  0.47787270914E+02  0.19999999403E+02 0.  0.
        -12    1    1    2    0    0  0.18400617492E+02  0.38827943355E+02  0.61181186613E+01  0.43400729086E+02  0.00000000000E+00 0.  1.
         11    1    3    3    0    0 -0.47815628418E+01 -0.21770070794E+01 -0.39018122052E+01  0.65442220148E+01  0.51100000000E-03 0.  1.
        -11    1    3    3    0    0 -0.60024036912E+01 -0.76768809479E+01  0.41896136189E+01  0.10607366011E+02  0.51100000000E-03 0. -1.
         12    1    3    3    0    0 -0.76166509594E+01 -0.28974055328E+02 -0.64059200749E+01  0.30635682887E+02  0.00000000000E+00 0. -1.
</event>
<event>
 7    1  0.4675811E-010  0.4778727E+02  0.7816164E-02  0.1312668E+00
        -11   -1    0    0    0    0  0.00000000000E+00  0.00000000000E+00  0.45593999997E+02  0.45594000000E+02  0.51100000000E-03 0.  1.
         11   -1    0    0    0    0 -0.00000000000E+00 -0.00000000000E+00 -0.45593999997E+02  0.45594000000E+02  0.51100000000E-03 0. -1.
    9900012    2    1    2    0    0  0.37855437927E+02 -0.14803894609E+02  0.15212950162E+02  0.47787270411E+02  0.19999997113E+02 0.  0.
        -12    1    1    2    0    0 -0.37855437927E+02  0.14803894609E+02 -0.15212950162E+02  0.43400729589E+02  0.00000000000E+00 0.  1.
         11    1    3    3    0    0  0.32241687918E+02 -0.18788650894E+02  0.12546810637E+02  0.39369560572E+02  0.51100000000E-03 0. -1.
        -11    1    3    3    0    0  0.34549627790E+01  0.14012008917E+01 -0.54166071652E+00  0.37674299377E+01  0.51100000000E-03 0.  1.
        -12    1    3    3    0    0  0.21587872299E+01  0.25835553932E+01  0.32078002414E+01  0.46502799015E+01  0.00000000000E+00 0.  1.
</event>
<event>
 7    1  0.4675811E-010  0.4778728E+02  0.7816164E-02  0.1312668E+00
        -11   -1    0    0    0    0  0.00000000000E+00  0.00000000000E+00  0.45593999997E+02  0.45594000000E+02  0.51100000000E-03 0. -1.
         11   -1    0    0    0    0 -0.00000000000E+00 -0.00000000000E+00 -0.45593999997E+02  0.45594000000E+02  0.51100000000E-03 0.  1.
    9900012    2    1    2    0    0  0.12203775250E+02  0.36995420249E+02  0.19131899591E+02  0.47787276138E+02  0.20000023225E+02 0.  0.
        -12    1    1    2    0    0 -0.12203775250E+02 -0.36995420249E+02 -0.19131899591E+02  0.43400723862E+02  0.00000000000E+00 0.  1.
         11    1    3    3    0    0  0.87660634323E+00  0.43091975179E+01  0.36670338986E+00  0.44127195205E+01  0.51100000000E-03 0. -1.
        -11    1    3    3    0    0  0.10082535789E+02  0.10098191234E+02  0.46578351491E+00  0.14277533004E+02  0.51100000000E-03 0.  1.
         12    1    3    3    0    0  0.12446331178E+01  0.22588031498E+02  0.18299412686E+02  0.29097023614E+02  0.00000000000E+00 0. -1.
</event>
<event>
 7    1  0.4675811E-010  0.4778727E+02  0.7816164E-02  0.1312668E+00
        -11   -1    0    0    0    0  0.00000000000E+00  0.00000000000E+00  0.45593999997E+02  0.45594000000E+02  0.51100000000E-03 0. -1.
         11   -1    0    0    0    0 -0.00000000000E+00 -0.00000000000E+00 -0.45593999997E+02  0.45594000000E+02  0.51100000000E-03 0.  1.
    9900012    2    1    2    0    0  0.41688076191E+01 -0.25475656377E+02  0.34888897659E+02  0.47787271842E+02  0.20000003636E+02 0.  0.
        -12    1    1    2    0    0 -0.41688076191E+01  0.25475656377E+02 -0.34888897659E+02  0.43400728158E+02  0.00000000000E+00 0.  1.
         11    1    3    3    0    0 -0.27752072190E+01 -0.23179436643E+02  0.23145323098E+02  0.32873911233E+02  0.51100000000E-03 0. -1.
        -11    1    3    3    0    0  0.13932717531E+01 -0.27951091823E+00 -0.34235061633E+00  0.14616896856E+01  0.51100000000E-03 0.  1.
        -12    1    3    3    0    0  0.55507430851E+01 -0.20167088164E+01  0.12085925177E+02  0.13451670924E+02  0.00000000000E+00 0.  1.
</event>
<event>
 7    1  0.4675811E-010  0.4778727E+02  0.7816164E-02  0.1312668E+00
        -11   -1    0    0    0    0  0.00000000000E+00  0.00000000000E+00  0.45593999997E+02  0.45594000000E+02  0.51100000000E-03 0.  1.
         11   -1    0    0    0    0 -0.00000000000E+00 -0.00000000000E+00 -0.45593999997E+02  0.45594000000E+02  0.51100000000E-03 0. -1.
    9900012    2    1    2    0    0  0.19511214647E+02 -0.20404352576E+02 -0.32963583803E+02  0.47787274682E+02  0.20000016583E+02 0.  0.
        -12    1    1    2    0    0 -0.19511214647E+02  0.20404352576E+02  0.32963583803E+02  0.43400725318E+02  0.00000000000E+00 0.  1.
         11    1    3    3    0    0  0.66835976291E+01 -0.27918813604E+01 -0.73053889170E+01  0.10287554923E+02  0.51100000000E-03 0. -1.
        -11    1    3    3    0    0 -0.14576696512E+01 -0.55317507330E+01 -0.14803022501E+02  0.15869925722E+02  0.51100000000E-03 0.  1.
        -12    1    3    3    0    0  0.14285286669E+02 -0.12080720482E+02 -0.10855172385E+02  0.21629794037E+02  0.00000000000E+00 0.  1.
</event>
<event>
 7    1  0.4675811E-010  0.4778727E+02  0.7816164E-02  0.1312668E+00
        -11   -1    0    0    0    0  0.00000000000E+00  0.00000000000E+00  0.45593999997E+02  0.45594000000E+02  0.51100000000E-03 0. -1.
         11   -1    0    0    0    0 -0.00000000000E+00 -0.00000000000E+00 -0.45593999997E+02  0.45594000000E+02  0.51100000000E-03 0.  1.
    9900012    2    1    2    0    0 -0.15723238039E+02  0.33236168409E+02  0.23059924933E+02  0.47787271402E+02  0.20000001630E+02 0.  0.
        -12    1    1    2    0    0  0.15723238039E+02 -0.33236168409E+02 -0.23059924933E+02  0.43400728598E+02  0.00000000000E+00 0.  1.
         11    1    3    3    0    0  0.19763711826E+01  0.47024096372E+01  0.42941235079E+01  0.66676979842E+01  0.51100000000E-03 0.  1.
        -11    1    3    3    0    0 -0.75043549506E+01  0.24167190860E+02  0.11074583996E+02  0.27622723766E+02  0.51100000000E-03 0. -1.
        -12    1    3    3    0    0 -0.10195254271E+02  0.43665679116E+01  0.76912174291E+01  0.13496849652E+02  0.00000000000E+00 0.  1.
</event>
<event>
 7    1  0.4675811E-010  0.4778727E+02  0.7816164E-02  0.1312668E+00
        -11   -1    0    0    0    0  0.00000000000E+00  0.00000000000E+00  0.45593999997E+02  0.45594000000E+02  0.51100000000E-03 0. -1.
         11   -1    0    0    0    0 -0.00000000000E+00 -0.00000000000E+00 -0.45593999997E+02  0.45594000000E+02  0.51100000000E-03 0.  1.
    9900012    2    1    2    0    0 -0.90094252252E+00  0.36736892935E+02  0.23091398794E+02  0.47787266155E+02  0.19999977709E+02 0.  0.
        -12    1    1    2    0    0  0.90094252252E+00 -0.36736892935E+02 -0.23091398794E+02  0.43400733845E+02  0.00000000000E+00 0.  1.
         11    1    3    3    0    0 -0.31495184387E+01  0.13357790962E+00  0.45747650257E+01  0.55556984039E+01  0.51100000000E-03 0. -1.
        -11    1    3    3    0    0 -0.33274687943E+01  0.17314679325E+02  0.11059585091E+02  0.20813087022E+02  0.51100000000E-03 0.  1.
         12    1    3    3    0    0  0.55760447105E+01  0.19288635700E+02  0.74570486772E+01  0.21418480730E+02  0.00000000000E+00 0. -1.
</event>
<event>
 7    1  0.4675811E-010  0.4778727E+02  0.7816164E-02  0.1312668E+00
        -11   -1    0    0    0    0  0.00000000000E+00  0.00000000000E+00  0.45593999997E+02  0.45594000000E+02  0.51100000000E-03 0.  1.
         11   -1    0    0    0    0 -0.00000000000E+00 -0.00000000000E+00 -0.45593999997E+02  0.45594000000E+02  0.51100000000E-03 0. -1.
    9900012    2    1    2    0    0 -0.94980766990E+01  0.11649996407E+02 -0.40714709266E+02  0.47787269271E+02  0.19999991913E+02 0.  0.
        -12    1    1    2    0    0  0.94980766990E+01 -0.11649996407E+02  0.40714709266E+02  0.43400730729E+02  0.00000000000E+00 0.  1.
         11    1    3    3    0    0 -0.74904849481E+01  0.85450701980E+01 -0.16805723358E+02  0.20286890528E+02  0.51100000000E-03 0. -1.
        -11    1    3    3    0    0 -0.26639774758E+01  0.40444055095E+01 -0.15111210903E+01  0.50732119143E+01  0.51100000000E-03 0.  1.
         12    1    3    3    0    0  0.65638572491E+00 -0.93947930050E+00 -0.22397864817E+02  0.22427166829E+02  0.00000000000E+00 0. -1.
</event>
<event>
 7    1  0.4675811E-010  0.4778727E+02  0.7816164E-02  0.1312668E+00
        -11   -1    0    0    0    0  0.00000000000E+00  0.00000000000E+00  0.45593999997E+02  0.45594000000E+02  0.51100000000E-03 0. -1.
         11   -1    0    0    0    0 -0.00000000000E+00 -0.00000000000E+00 -0.45593999997E+02  0.45594000000E+02  0.51100000000E-03 0.  1.
    9900012    2    1    2    0    0 -0.30804996163E+02  0.15783123381E+02  0.26183357614E+02  0.47787274335E+02  0.20000015005E+02 0.  0.
        -12    1    1    2    0    0  0.30804996163E+02 -0.15783123381E+02 -0.26183357614E+02  0.43400725665E+02  0.00000000000E+00 0.  1.
         11    1    3    3    0    0 -0.17418983093E+02  0.39178175280E+01  0.11468450189E+02  0.21220170032E+02  0.51100000000E-03 0. -1.
        -11    1    3    3    0    0 -0.39117180057E+01 -0.18495653301E+00  0.96645267401E+01  0.10427790948E+02  0.51100000000E-03 0.  1.
         12    1    3    3    0    0 -0.94742950642E+01  0.12050262386E+02  0.50503806851E+01  0.16139313356E+02  0.00000000000E+00 0. -1.
</event>
<event>
 7    1  0.4675811E-010  0.4778727E+02  0.7816164E-02  0.1312668E+00
        -11   -1    0    0    0    0  0.00000000000E+00  0.00000000000E+00  0.45593999997E+02  0.45594000000E+02  0.51100000000E-03 0. -1.
         11   -1    0    0    0    0 -0.00000000000E+00 -0.00000000000E+00 -0.45593999997E+02  0.45594000000E+02  0.51100000000E-03 0.  1.
    9900012    2    1    2    0    0  0.25121546516E+02  0.19819314188E+02  0.29321078749E+02  0.47787274508E+02  0.20000015793E+02 0.  0.
        -12    1    1    2    0    0 -0.25121546516E+02 -0.19819314188E+02 -0.29321078749E+02  0.43400725492E+02  0.00000000000E+00 0.  1.
         11    1    3    3    0    0  0.17086364590E+02  0.78646612305E+01  0.14701853179E+02  0.23873442113E+02  0.51100000000E-03 0. -1.
        -11    1    3    3    0    0  0.40426369794E+01  0.11230646783E+01  0.11067025573E+02  0.11835676716E+02  0.51100000000E-03 0.  1.
        -12    1    3    3    0    0  0.39925449467E+01  0.10831588280E+02  0.35521999965E+01  0.12078155680E+02  0.00000000000E+00 0.  1.
</event>
<event>
 7    1  0.4675811E-010  0.4778727E+02  0.7816164E-02  0.1312668E+00
        -11   -1    0    0    0    0  0.00000000000E+00  0.00000000000E+00  0.45593999997E+02  0.45594000000E+02  0.51100000000E-03 0. -1.
         11   -1    0    0    0    0 -0.00000000000E+00 -0.00000000000E+00 -0.45593999997E+02  0.45594000000E+02  0.51100000000E-03 0.  1.
    9900012    2    1    2    0    0 -0.43215254132E+02 -0.28097390042E+01 -0.28583947992E+01  0.47787271391E+02  0.20000001580E+02 0.  0.
        -12    1    1    2    0    0  0.43215254132E+02  0.28097390042E+01  0.28583947992E+01  0.43400728609E+02  0.00000000000E+00 0.  1.
         11    1    3    3    0    0 -0.67675164956E+01 -0.73140959045E+01 -0.38850307566E+00  0.99722722245E+01  0.51100000000E-03 0. -1.
        -11    1    3    3    0    0 -0.35187955876E+01  0.31390576103E+01 -0.10281165560E+01  0.48262437756E+01  0.51100000000E-03 0.  1.
        -12    1    3    3    0    0 -0.32928942049E+02  0.13652992900E+01 -0.14417751676E+01  0.32988755391E+02  0.00000000000E+00 0.  1.
</event>
<event>
 7    1  0.4675811E-010  0.4778727E+02  0.7816164E-02  0.1312668E+00
        -11   -1    0    0    0    0  0.00000000000E+00  0.00000000000E+00  0.45593999997E+02  0.45594000000E+02  0.51100000000E-03 0. -1.
         11   -1    0    0    0    0 -0.00000000000E+00 -0.00000000000E+00 -0.45593999997E+02  0.45594000000E+02  0.51100000000E-03 0.  1.
    9900012    2    1    2    0    0  0.52261982949E+01 -0.49963682347E+01  0.42794238668E+02  0.47787266051E+02  0.19999977233E+02 0.  0.
        -12    1    1    2    0    0 -0.52261982949E+01  0.49963682347E+01 -0.42794238668E+02  0.43400733949E+02  0.00000000000E+00 0.  1.
         11    1    3    3    0    0  0.46289392147E+01  0.72103240571E+00  0.60487781231E+01  0.76507962348E+01  0.51100000000E-03 0. -1.
        -11    1    3    3    0    0  0.26648795546E+01  0.37937603967E+01  0.45267501628E+01  0.64796348883E+01  0.51100000000E-03 0.  1.
         12    1    3    3    0    0 -0.20676204744E+01 -0.95111610371E+01  0.32218710382E+02  0.33656834928E+02  0.00000000000E+00 0. -1.
</event>
<event>
 7    1  0.4675811E-010  0.4778727E+02  0.7816164E-02  0.1312668E+00
        -11   -1    0    0    0    0  0.00000000000E+00  0.00000000000E+00  0.45593999997E+02  0.45594000000E+02  0.51100000000E-03 0.  1.
         11   -1    0    0    0    0 -0.00000000000E+00 -0.00000000000E+00 -0.45593999997E+02  0.45594000000E+02  0.51100000000E-03 0. -1.
    9900012    2    1    2    0    0  0.42735438085E+02  0.58280218560E+01  0.48311419995E+01  0.47787269130E+02  0.19999991270E+02 0.  0.
        -12    1    1    2    0    0 -0.42735438085E+02 -0.58280218560E+01 -0.48311419995E+01  0.43400730870E+02  0.00000000000E+00 0.  1.
         11    1    3    3    0    0  0.42597548615E+01 -0.16403935343E+01  0.38654944070E+01  0.59815089817E+01  0.51100000000E-03 0. -1.
        -11    1    3    3    0    0  0.10506058037E+01  0.48648249298E+00  0.34647285397E+01  0.36530510379E+01  0.51100000000E-03 0.  1.
         12    1    3    3    0    0  0.37425077420E+02  0.69819328973E+01 -0.24990809471E+01  0.38152709110E+02  0.00000000000E+00 0. -1.
</event>
<event>
 7    1  0.4675811E-010  0.4778727E+02  0.7816164E-02  0.1312668E+00
        -11   -1    0    0    0    0  0.00000000000E+00  0.00000000000E+00  0.45593999997E+02  0.45594000000E+02  0.51100000000E-03 0. -1.
         11   -1    0    0    0    0 -0.00000000000E+00 -0.00000000000E+00 -0.45593999997E+02  0.45594000000E+02  0.51100000000E-03 0.  1.
    9900012    2    1    2    0    0 -0.12435369891E+02  0.38045413217E+02  0.16778898620E+02  0.47787270397E+02  0.19999997049E+02 0.  0.
        -12    1    1    2    0    0  0.12435369891E+02 -0.38045413217E+02 -0.16778898620E+02  0.43400729603E+02  0.00000000000E+00 0.  1.
         11    1    3    3    0    0 -0.10732601945E+02  0.14073105517E+02  0.54961476558E+01  0.18532368514E+02  0.51100000000E-03 0. -1.
        -11    1    3    3    0    0 -0.48993219843E+01  0.37075597061E+01  0.46115367940E+01  0.76821628949E+01  0.51100000000E-03 0.  1.
         12    1    3    3    0    0  0.31965540385E+01  0.20264747994E+02  0.66712141704E+01  0.21572738989E+02  0.00000000000E+00 0. -1.
</event>
<event>
 7    1  0.4675811E-010  0.4778727E+02  0.7816164E-02  0.1312668E+00
        -11   -1    0    0    0    0  0.00000000000E+00  0.00000000000E+00  0.45593999997E+02  0.45594000000E+02  0.51100000000E-03 0.  1.
         11   -1    0    0    0    0 -0.00000000000E+00 -0.00000000000E+00 -0.45593999997E+02  0.45594000000E+02  0.51100000000E-03 0. -1.
    9900012    2    1    2    0    0  0.37775426544E+02 -0.16076574514E+02 -0.14077801654E+02  0.47787267309E+02  0.19999982969E+02 0.  0.
        -12    1    1    2    0    0 -0.37775426544E+02  0.16076574514E+02  0.14077801654E+02  0.43400732691E+02  0.00000000000E+00 0.  1.
         11    1    3    3    0    0  0.47770751583E+01 -0.59385995301E+01 -0.25124532975E+01  0.80249506715E+01  0.51100000000E-03 0. -1.
        -11    1    3    3    0    0  0.17912022711E+01  0.26913436887E+01 -0.40713089327E+01  0.51987780404E+01  0.51100000000E-03 0.  1.
         12    1    3    3    0    0  0.31207149115E+02 -0.12829318672E+02 -0.74940394234E+01  0.34563538597E+02  0.00000000000E+00 0. -1.
</event>
<event>
 7    1  0.4675811E-010  0.4778728E+02  0.7816164E-02  0.1312668E+00
        -11   -1    0    0    0    0  0.00000000000E+00  0.00000000000E+00  0.45593999997E+02  0.45594000000E+02  0.51100000000E-03 0.  1.
         11   -1    0    0    0    0 -0.00000000000E+00 -0.00000000000E+00 -0.45593999997E+02  0.45594000000E+02  0.51100000000E-03 0. -1.
    9900012    2    1    2    0    0 -0.42869065101E+02 -0.28236963111E+01  0.61557194967E+01  0.47787275512E+02  0.20000020371E+02 0.  0.
        -12    1    1    2    0    0  0.42869065101E+02  0.28236963111E+01 -0.61557194967E+01  0.43400724488E+02  0.00000000000E+00 0.  1.
         11    1    3    3    0    0 -0.16101485445E+02 -0.56322913266E+01 -0.27155232359E+01  0.17272944330E+02  0.51100000000E-03 0.  1.
        -11    1    3    3    0    0 -0.46871721273E+01 -0.38119488553E+01  0.81900984785E+00  0.60968281933E+01  0.51100000000E-03 0. -1.
        -12    1    3    3    0    0 -0.22080407529E+02  0.66205438708E+01  0.80522328848E+01  0.24417502989E+02  0.00000000000E+00 0.  1.
</event>
<event>
 7    1  0.4675811E-010  0.4778727E+02  0.7816164E-02  0.1312668E+00
        -11   -1    0    0    0    0  0.00000000000E+00  0.00000000000E+00  0.45593999997E+02  0.45594000000E+02  0.51100000000E-03 0.  1.
         11   -1    0    0    0    0 -0.00000000000E+00 -0.00000000000E+00 -0.45593999997E+02  0.45594000000E+02  0.51100000000E-03 0. -1.
    9900012    2    1    2    0    0 -0.85823743327E+01  0.28916809492E+02 -0.31205513055E+02  0.47787273446E+02  0.20000010950E+02 0.  0.
        -12    1    1    2    0    0  0.85823743327E+01 -0.28916809492E+02  0.31205513055E+02  0.43400726554E+02  0.00000000000E+00 0.  1.
         11    1    3    3    0    0 -0.62562357153E+01  0.29104479138E+02 -0.29443202133E+02  0.41870196361E+02  0.51100000000E-03 0. -1.
        -11    1    3    3    0    0 -0.12688912468E+00 -0.55221427026E-02 -0.32520454542E+01  0.32545247335E+01  0.51100000000E-03 0.  1.
         12    1    3    3    0    0 -0.21992494927E+01 -0.18214750293E+00  0.14897345329E+01  0.26625523511E+01  0.00000000000E+00 0. -1.
</event>
<event>
 7    1  0.4675811E-010  0.4778727E+02  0.7816164E-02  0.1312668E+00
        -11   -1    0    0    0    0  0.00000000000E+00  0.00000000000E+00  0.45593999997E+02  0.45594000000E+02  0.51100000000E-03 0.  1.
         11   -1    0    0    0    0 -0.00000000000E+00 -0.00000000000E+00 -0.45593999997E+02  0.45594000000E+02  0.51100000000E-03 0. -1.
    9900012    2    1    2    0    0 -0.78259995346E+01  0.39857800167E+02  0.15288330750E+02  0.47787267749E+02  0.19999984973E+02 0.  0.
        -12    1    1    2    0    0  0.78259995346E+01 -0.39857800167E+02 -0.15288330750E+02  0.43400732251E+02  0.00000000000E+00 0.  1.
         11    1    3    3    0    0 -0.11183090724E+01  0.35269315047E+01  0.47358770042E+01  0.60098579251E+01  0.51100000000E-03 0. -1.
        -11    1    3    3    0    0 -0.79078969490E+00  0.21492423052E+01 -0.36367401043E+01  0.42977284320E+01  0.51100000000E-03 0.  1.
         12    1    3    3    0    0 -0.59169007673E+01  0.34181626357E+02  0.14189193851E+02  0.37479681391E+02  0.00000000000E+00 0. -1.
</event>
<event>
 7    1  0.4675811E-010  0.4778727E+02  0.7816164E-02  0.1312668E+00
        -11   -1    0    0    0    0  0.00000000000E+00  0.00000000000E+00  0.45593999997E+02  0.45594000000E+02  0.51100000000E-03 0.  1.
         11   -1    0    0    0    0 -0.00000000000E+00 -0.00000000000E+00 -0.45593999997E+02  0.45594000000E+02  0.51100000000E-03 0. -1.
    9900012    2    1    2    0    0  0.22233426994E+02  0.49291836769E+00 -0.37270026778E+02  0.47787272582E+02  0.20000007010E+02 0.  0.
        -12    1    1    2    0    0 -0.22233426994E+02 -0.49291836769E+00  0.37270026778E+02  0.43400727418E+02  0.00000000000E+00 0.  1.
         11    1    3    3    0    0  0.67960060092E+00 -0.23404622819E+01 -0.23698269114E+01  0.33993676649E+01  0.51100000000E-03 0.  1.
        -11    1    3    3    0    0  0.87836480691E+01  0.61082574353E+01 -0.52048019395E+01  0.11897615130E+02  0.51100000000E-03 0. -1.
         12    1    3    3    0    0  0.12770178324E+02 -0.32748767857E+01 -0.29695397927E+02  0.32490289787E+02  0.00000000000E+00 0. -1.
</event>
<event>
 7    1  0.4675811E-010  0.4778727E+02  0.7816164E-02  0.1312668E+00
        -11   -1    0    0    0    0  0.00000000000E+00  0.00000000000E+00  0.45593999997E+02  0.45594000000E+02  0.51100000000E-03 0.  1.
         11   -1    0    0    0    0 -0.00000000000E+00 -0.00000000000E+00 -0.45593999997E+02  0.45594000000E+02  0.51100000000E-03 0. -1.
    9900012    2    1    2    0    0 -0.21495029298E+02  0.31832822298E+02 -0.20205414152E+02  0.47787267045E+02  0.19999981766E+02 0.  0.
        -12    1    1    2    0    0  0.21495029298E+02 -0.31832822298E+02  0.20205414152E+02  0.43400732955E+02  0.00000000000E+00 0.  1.
         11    1    3    3    0    0 -0.19574542790E+01  0.12475665579E+02 -0.25402836202E+01  0.12881261586E+02  0.51100000000E-03 0. -1.
        -11    1    3    3    0    0 -0.82673663627E+01  0.14388491648E+02 -0.14856068988E+02  0.22272871941E+02  0.51100000000E-03 0.  1.
        -12    1    3    3    0    0 -0.11270208656E+02  0.49686650704E+01 -0.28090615434E+01  0.12633133518E+02  0.00000000000E+00 0.  1.
</event>
<event>
 7    1  0.4675811E-010  0.4778727E+02  0.7816164E-02  0.1312668E+00
        -11   -1    0    0    0    0  0.00000000000E+00  0.00000000000E+00  0.45593999997E+02  0.45594000000E+02  0.51100000000E-03 0.  1.
         11   -1    0    0    0    0 -0.00000000000E+00 -0.00000000000E+00 -0.45593999997E+02  0.45594000000E+02  0.51100000000E-03 0. -1.
    9900012    2    1    2    0    0 -0.41876796250E+02  0.10718118760E+02  0.38831962509E+01  0.47787270202E+02  0.19999996157E+02 0.  0.
        -12    1    1    2    0    0  0.41876796250E+02 -0.10718118760E+02 -0.38831962509E+01  0.43400729798E+02  0.00000000000E+00 0.  1.
         11    1    3    3    0    0 -0.35435616446E+02  0.39921609901E+01  0.27967105197E+00  0.35660881628E+02  0.51100000000E-03 0. -1.
        -11    1    3    3    0    0 -0.62208598059E+00 -0.12789832542E+01 -0.35771061409E+00  0.14665422859E+01  0.51100000000E-03 0.  1.
        -12    1    3    3    0    0 -0.58190938231E+01  0.80049410239E+01  0.39612358130E+01  0.10659846288E+02  0.00000000000E+00 0.  1.
</event>
<event>
 7    1  0.4675811E-010  0.4778727E+02  0.7816164E-02  0.1312668E+00
        -11   -1    0    0    0    0  0.00000000000E+00  0.00000000000E+00  0.45593999997E+02  0.45594000000E+02  0.51100000000E-03 0.  1.
         11   -1    0    0    0    0 -0.00000000000E+00 -0.00000000000E+00 -0.45593999997E+02  0.45594000000E+02  0.51100000000E-03 0. -1.
    9900012    2    1    2    0    0 -0.32893950237E+02 -0.27819515870E+02  0.52617260721E+01  0.47787272049E+02  0.20000004582E+02 0.  0.
        -12    1    1    2    0    0  0.32893950237E+02  0.27819515870E+02 -0.52617260721E+01  0.43400727951E+02  0.00000000000E+00 0.  1.
         11    1    3    3    0    0 -0.14070787344E+02 -0.20127296333E+02 -0.23901719170E+01  0.24674035670E+02  0.51100000000E-03 0. -1.
        -11    1    3    3    0    0 -0.21358363536E+00 -0.74331710959E+00  0.24637272888E+01  0.25822646474E+01  0.51100000000E-03 0.  1.
        -12    1    3    3    0    0 -0.18609579257E+02 -0.69489024266E+01  0.51881707003E+01  0.20530971732E+02  0.00000000000E+00 0.  1.
</event>
<event>
 7    1  0.4675811E-010  0.4778725E+02  0.7816164E-02  0.1312668E+00
        -11   -1    0    0    0    0  0.00000000000E+00  0.00000000000E+00  0.45593999997E+02  0.45594000000E+02  0.51100000000E-03 0. -1.
         11   -1    0    0    0    0 -0.00000000000E+00 -0.00000000000E+00 -0.45593999997E+02  0.45594000000E+02  0.51100000000E-03 0.  1.
    9900012    2    1    2    0    0  0.33839625978E+02 -0.24733399504E+02  0.11258931289E+02  0.47787252643E+02  0.19999916101E+02 0.  0.
        -12    1    1    2    0    0 -0.33839625978E+02  0.24733399504E+02 -0.11258931289E+02  0.43400747357E+02  0.00000000000E+00 0.  1.
         11    1    3    3    0    0  0.51148897393E+01 -0.45011752680E+01  0.32247333568E+01  0.75380091086E+01  0.51100000000E-03 0. -1.
        -11    1    3    3    0    0  0.11553092149E+02 -0.91659101573E+01 -0.55048638622E+01  0.15741390460E+02  0.51100000000E-03 0.  1.
        -12    1    3    3    0    0  0.17171644090E+02 -0.11066314079E+02  0.13539061794E+02  0.24507853074E+02  0.00000000000E+00 0.  1.
</event>
<event>
 7    1  0.4675811E-010  0.4778725E+02  0.7816164E-02  0.1312668E+00
        -11   -1    0    0    0    0  0.00000000000E+00  0.00000000000E+00  0.45593999997E+02  0.45594000000E+02  0.51100000000E-03 0.  1.
         11   -1    0    0    0    0 -0.00000000000E+00 -0.00000000000E+00 -0.45593999997E+02  0.45594000000E+02  0.51100000000E-03 0. -1.
    9900012    2    1    2    0    0 -0.74623038113E+01 -0.40547041841E+02 -0.13560117837E+02  0.47787246827E+02  0.19999889584E+02 0.  0.
        -12    1    1    2    0    0  0.74623038113E+01  0.40547041841E+02  0.13560117837E+02  0.43400753173E+02  0.00000000000E+00 0.  1.
         11    1    3    3    0    0 -0.45698008293E+01 -0.17863664248E+02 -0.27619498069E+01  0.18644622468E+02  0.51100000000E-03 0. -1.
        -11    1    3    3    0    0 -0.26777884910E+01 -0.70377717739E+01  0.31679224158E+01  0.81692420358E+01  0.51100000000E-03 0.  1.
         12    1    3    3    0    0 -0.21471449098E+00 -0.15645605819E+02 -0.13966090446E+02  0.20973382324E+02  0.00000000000E+00 0. -1.
</event>
<event>
 7    1  0.4675811E-010  0.4778727E+02  0.7816164E-02  0.1312668E+00
        -11   -1    0    0    0    0  0.00000000000E+00  0.00000000000E+00  0.45593999997E+02  0.45594000000E+02  0.51100000000E-03 0.  1.
         11   -1    0    0    0    0 -0.00000000000E+00 -0.00000000000E+00 -0.45593999997E+02  0.45594000000E+02  0.51100000000E-03 0. -1.
    9900012    2    1    2    0    0  0.25347174373E+02  0.26128276264E+02 -0.23631697331E+02  0.47787272034E+02  0.20000004512E+02 0.  0.
        -12    1    1    2    0    0 -0.25347174373E+02 -0.26128276264E+02  0.23631697331E+02  0.43400727966E+02  0.00000000000E+00 0.  1.
         11    1    3    3    0    0  0.41567179651E+00  0.20197226293E+00 -0.67398151079E+00  0.81720693549E+00  0.51100000000E-03 0. -1.
        -11    1    3    3    0    0  0.22197715660E+01 -0.32349816485E+01 -0.31732301338E+01  0.50459767948E+01  0.51100000000E-03 0.  1.
        -12    1    3    3    0    0  0.22711731010E+02  0.29161285650E+02 -0.19784485687E+02  0.41924088304E+02  0.00000000000E+00 0.  1.
</event>
<event>
 7    1  0.4675811E-010  0.4778727E+02  0.7816164E-02  0.1312668E+00
        -11   -1    0    0    0    0  0.00000000000E+00  0.00000000000E+00  0.45593999997E+02  0.45594000000E+02  0.51100000000E-03 0.  1.
         11   -1    0    0    0    0 -0.00000000000E+00 -0.00000000000E+00 -0.45593999997E+02  0.45594000000E+02  0.51100000000E-03 0. -1.
    9900012    2    1    2    0    0 -0.28081848147E+02  0.27085085274E+02 -0.19011355657E+02  0.47787266325E+02  0.19999978482E+02 0.  0.
        -12    1    1    2    0    0  0.28081848147E+02 -0.27085085274E+02  0.19011355657E+02  0.43400733675E+02  0.00000000000E+00 0.  1.
         11    1    3    3    0    0 -0.15644991441E+00 -0.29281244924E+00  0.15942441366E+01  0.16284441453E+01  0.51100000000E-03 0. -1.
        -11    1    3    3    0    0 -0.58532689882E+01 -0.23371774695E+00 -0.18571877003E+01  0.61452850421E+01  0.51100000000E-03 0.  1.
         12    1    3    3    0    0 -0.22072129244E+02  0.27611615470E+02 -0.18748412094E+02  0.40013537137E+02  0.00000000000E+00 0. -1.
</event>
<event>
 7    1  0.4675811E-010  0.4778727E+02  0.7816164E-02  0.1312668E+00
        -11   -1    0    0    0    0  0.00000000000E+00  0.00000000000E+00  0.45593999997E+02  0.45594000000E+02  0.51100000000E-03 0.  1.
         11   -1    0    0    0    0 -0.00000000000E+00 -0.00000000000E+00 -0.45593999997E+02  0.45594000000E+02  0.51100000000E-03 0. -1.
    9900012    2    1    2    0    0 -0.55019174026E+01 -0.42069354044E+02 -0.91390401090E+01  0.47787266148E+02  0.19999977676E+02 0.  0.
        -12    1    1    2    0    0  0.55019174026E+01  0.42069354044E+02  0.91390401090E+01  0.43400733852E+02  0.00000000000E+00 0.  1.
         11    1    3    3    0    0  0.17681910646E+01 -0.75304871151E+01 -0.36387388049E+01  0.85484007968E+01  0.51100000000E-03 0. -1.
        -11    1    3    3    0    0 -0.97982337341E+01 -0.16024669691E+02 -0.79441064967E+01  0.20393730686E+02  0.51100000000E-03 0.  1.
         12    1    3    3    0    0  0.25281252669E+01 -0.18514197238E+02  0.24438051926E+01  0.18845134665E+02  0.00000000000E+00 0. -1.
</event>
<event>
 7    1  0.4675811E-010  0.4778727E+02  0.7816164E-02  0.1312668E+00
        -11   -1    0    0    0    0  0.00000000000E+00  0.00000000000E+00  0.45593999997E+02  0.45594000000E+02  0.51100000000E-03 0.  1.
         11   -1    0    0    0    0 -0.00000000000E+00 -0.00000000000E+00 -0.45593999997E+02  0.45594000000E+02  0.51100000000E-03 0. -1.
    9900012    2    1    2    0    0 -0.57743532809E+01  0.41312908067E+02  0.11980146137E+02  0.47787269243E+02  0.19999991785E+02 0.  0.
        -12    1    1    2    0    0  0.57743532809E+01 -0.41312908067E+02 -0.11980146137E+02  0.43400730757E+02  0.00000000000E+00 0.  1.
         11    1    3    3    0    0 -0.11476271801E+01  0.75817479384E+01 -0.69645500460E-01  0.76684288288E+01  0.51100000000E-03 0. -1.
        -11    1    3    3    0    0 -0.35467004641E+01  0.28635049040E+00  0.46378038626E+01  0.58455372477E+01  0.51100000000E-03 0.  1.
        -12    1    3    3    0    0 -0.10800256366E+01  0.33444809639E+02  0.74119877753E+01  0.34273303166E+02  0.00000000000E+00 0.  1.
</event>
<event>
 7    1  0.4675811E-010  0.4778726E+02  0.7816164E-02  0.1312668E+00
        -11   -1    0    0    0    0  0.00000000000E+00  0.00000000000E+00  0.45593999997E+02  0.45594000000E+02  0.51100000000E-03 0.  1.
         11   -1    0    0    0    0 -0.00000000000E+00 -0.00000000000E+00 -0.45593999997E+02  0.45594000000E+02  0.51100000000E-03 0. -1.
    9900012    2    1    2    0    0  0.33114711278E+02 -0.61985791441E+01 -0.27360872197E+02  0.47787264823E+02  0.19999971636E+02 0.  0.
        -12    1    1    2    0    0 -0.33114711278E+02  0.61985791441E+01  0.27360872197E+02  0.43400735177E+02  0.00000000000E+00 0.  1.
         11    1    3    3    0    0  0.81399027440E+01 -0.26089166422E+01 -0.48831401760E+01  0.98442633532E+01  0.51100000000E-03 0. -1.
        -11    1    3    3    0    0  0.14578757003E+02 -0.70059521057E+01 -0.43183743731E+01  0.16741322473E+02  0.51100000000E-03 0.  1.
        -12    1    3    3    0    0  0.10396051531E+02  0.34162896038E+01 -0.18159357648E+02  0.21201678997E+02  0.00000000000E+00 0.  1.
</event>
<event>
 7    1  0.4675811E-010  0.4778727E+02  0.7816164E-02  0.1312668E+00
        -11   -1    0    0    0    0  0.00000000000E+00  0.00000000000E+00  0.45593999997E+02  0.45594000000E+02  0.51100000000E-03 0.  1.
         11   -1    0    0    0    0 -0.00000000000E+00 -0.00000000000E+00 -0.45593999997E+02  0.45594000000E+02  0.51100000000E-03 0. -1.
    9900012    2    1    2    0    0 -0.29953174669E+02 -0.98957468302E+00 -0.31391896130E+02  0.47787273353E+02  0.20000010528E+02 0.  0.
        -12    1    1    2    0    0  0.29953174669E+02  0.98957468302E+00  0.31391896130E+02  0.43400726647E+02  0.00000000000E+00 0.  1.
         11    1    3    3    0    0 -0.39341202927E+01 -0.38428366652E+01 -0.64403953835E+01  0.84689662339E+01  0.51100000000E-03 0. -1.
        -11    1    3    3    0    0 -0.18218731312E+02 -0.10664332836E+01 -0.73567625530E+01  0.19676925728E+02  0.51100000000E-03 0.  1.
         12    1    3    3    0    0 -0.78003230640E+01  0.39196952658E+01 -0.17594738193E+02  0.19641381392E+02  0.00000000000E+00 0. -1.
</event>
<event>
 7    1  0.4675811E-010  0.4778727E+02  0.7816164E-02  0.1312668E+00
        -11   -1    0    0    0    0  0.00000000000E+00  0.00000000000E+00  0.45593999997E+02  0.45594000000E+02  0.51100000000E-03 0. -1.
         11   -1    0    0    0    0 -0.00000000000E+00 -0.00000000000E+00 -0.45593999997E+02  0.45594000000E+02  0.51100000000E-03 0.  1.
    9900012    2    1    2    0    0 -0.29002270331E+02  0.14470586754E+02  0.28863366037E+02  0.47787268850E+02  0.19999989995E+02 0.  0.
        -12    1    1    2    0    0  0.29002270331E+02 -0.14470586754E+02 -0.28863366037E+02  0.43400731150E+02  0.00000000000E+00 0.  1.
         11    1    3    3    0    0 -0.93013315626E+01 -0.51812753770E+00  0.43807567646E+01  0.10294379781E+02  0.51100000000E-03 0. -1.
        -11    1    3    3    0    0 -0.55192320056E+00 -0.17538607144E+01  0.53709455673E+01  0.56769448802E+01  0.51100000000E-03 0.  1.
         12    1    3    3    0    0 -0.19149015568E+02  0.16742575006E+02  0.19111663705E+02  0.31815944189E+02  0.00000000000E+00 0. -1.
</event>
<event>
 7    1  0.4675811E-010  0.4778727E+02  0.7816164E-02  0.1312668E+00
        -11   -1    0    0    0    0  0.00000000000E+00  0.00000000000E+00  0.45593999997E+02  0.45594000000E+02  0.51100000000E-03 0.  1.
         11   -1    0    0    0    0 -0.00000000000E+00 -0.00000000000E+00 -0.45593999997E+02  0.45594000000E+02  0.51100000000E-03 0. -1.
    9900012    2    1    2    0    0 -0.12312485037E+02  0.35061377720E+02  0.22421554949E+02  0.47787267036E+02  0.19999981726E+02 0.  0.
        -12    1    1    2    0    0  0.12312485037E+02 -0.35061377720E+02 -0.22421554949E+02  0.43400732964E+02  0.00000000000E+00 0.  1.
         11    1    3    3    0    0 -0.53279177287E+01  0.11792408519E+02  0.29176124925E+01  0.13264994117E+02  0.51100000000E-03 0. -1.
        -11    1    3    3    0    0 -0.11201816635E+02  0.20671095766E+02  0.16596802757E+02  0.28778963813E+02  0.51100000000E-03 0.  1.
        -12    1    3    3    0    0  0.42172493266E+01  0.25978734353E+01  0.29071396995E+01  0.57433091072E+01  0.00000000000E+00 0.  1.
</event>
<event>
 7    1  0.4675811E-010  0.4778727E+02  0.7816164E-02  0.1312668E+00
        -11   -1    0    0    0    0  0.00000000000E+00  0.00000000000E+00  0.45593999997E+02  0.45594000000E+02  0.51100000000E-03 0.  1.
         11   -1    0    0    0    0 -0.00000000000E+00 -0.00000000000E+00 -0.45593999997E+02  0.45594000000E+02  0.51100000000E-03 0. -1.
    9900012    2    1    2    0    0 -0.24345358073E+02 -0.97630227835E+01 -0.34577597557E+02  0.47787270440E+02  0.19999997242E+02 0.  0.
        -12    1    1    2    0    0  0.24345358073E+02  0.97630227835E+01  0.34577597557E+02  0.43400729560E+02  0.00000000000E+00 0.  1.
         11    1    3    3    0    0 -0.20145034595E+02 -0.75900606299E+01 -0.15503577120E+02  0.26529084850E+02  0.51100000000E-03 0. -1.
        -11    1    3    3    0    0 -0.57098312272E+01 -0.25742714206E+01 -0.84402905569E+01  0.10510354463E+02  0.51100000000E-03 0.  1.
        -12    1    3    3    0    0  0.15095077494E+01  0.40130926698E+00 -0.10633729880E+02  0.10747831127E+02  0.00000000000E+00 0.  1.
</event>
<event>
 7    1  0.4675811E-010  0.4778728E+02  0.7816164E-02  0.1312668E+00
        -11   -1    0    0    0    0  0.00000000000E+00  0.00000000000E+00  0.45593999997E+02  0.45594000000E+02  0.51100000000E-03 0.  1.
         11   -1    0    0    0    0 -0.00000000000E+00 -0.00000000000E+00 -0.45593999997E+02  0.45594000000E+02  0.51100000000E-03 0. -1.
    9900012    2    1    2    0    0  0.19310119602E+02  0.15366690407E+02 -0.35701638979E+02  0.47787275134E+02  0.20000018647E+02 0.  0.
        -12    1    1    2    0    0 -0.19310119602E+02 -0.15366690407E+02  0.35701638979E+02  0.43400724866E+02  0.00000000000E+00 0.  1.
         11    1    3    3    0    0  0.27352283473E+01  0.33469824502E+01 -0.91019822505E+00  0.44172646179E+01  0.51100000000E-03 0.  1.
        -11    1    3    3    0    0  0.12711692672E+02 -0.54438468591E+00 -0.16135616503E+02  0.20548518328E+02  0.51100000000E-03 0. -1.
         12    1    3    3    0    0  0.38631985820E+01  0.12564092643E+02 -0.18655824251E+02  0.22821492188E+02  0.00000000000E+00 0. -1.
</event>
<event>
 7    1  0.4675811E-010  0.4778727E+02  0.7816164E-02  0.1312668E+00
        -11   -1    0    0    0    0  0.00000000000E+00  0.00000000000E+00  0.45593999997E+02  0.45594000000E+02  0.51100000000E-03 0.  1.
         11   -1    0    0    0    0 -0.00000000000E+00 -0.00000000000E+00 -0.45593999997E+02  0.45594000000E+02  0.51100000000E-03 0. -1.
    9900012    2    1    2    0    0 -0.16159386864E+02 -0.16448510195E+02 -0.36768791929E+02  0.47787270382E+02  0.19999996979E+02 0.  0.
        -12    1    1    2    0    0  0.16159386864E+02  0.16448510195E+02  0.36768791929E+02  0.43400729618E+02  0.00000000000E+00 0.  1.
         11    1    3    3    0    0 -0.64217994664E+01 -0.35426909337E+01 -0.97412636274E+01  0.12193538648E+02  0.51100000000E-03 0. -1.
        -11    1    3    3    0    0 -0.28762551104E+01  0.36359841989E+01 -0.26332795292E+01  0.53317338545E+01  0.51100000000E-03 0.  1.
         12    1    3    3    0    0 -0.68613322870E+01 -0.16541803460E+02 -0.24394248773E+02  0.30261997879E+02  0.00000000000E+00 0. -1.
</event>
<event>
 7    1  0.4675811E-010  0.4778728E+02  0.7816164E-02  0.1312668E+00
        -11   -1    0    0    0    0  0.00000000000E+00  0.00000000000E+00  0.45593999997E+02  0.45594000000E+02  0.51100000000E-03 0. -1.
         11   -1    0    0    0    0 -0.00000000000E+00 -0.00000000000E+00 -0.45593999997E+02  0.45594000000E+02  0.51100000000E-03 0.  1.
    9900012    2    1    2    0    0  0.32435795173E+02  0.12682154474E+02  0.25897960825E+02  0.47787283123E+02  0.20000055069E+02 0.  0.
        -12    1    1    2    0    0 -0.32435795173E+02 -0.12682154474E+02 -0.25897960825E+02  0.43400716877E+02  0.00000000000E+00 0.  1.
         11    1    3    3    0    0  0.97292487797E+01  0.81715388069E+01  0.95429126140E+01  0.15890233155E+02  0.51100000000E-03 0. -1.
        -11    1    3    3    0    0  0.22455211024E+02  0.46388594082E+01  0.18667529748E+02  0.29567417640E+02  0.51100000000E-03 0.  1.
        -12    1    3    3    0    0  0.25133536904E+00 -0.12824374149E+00 -0.23124815368E+01  0.23296323279E+01  0.00000000000E+00 0.  1.
</event>
<event>
 7    1  0.4675811E-010  0.4778727E+02  0.7816164E-02  0.1312668E+00
        -11   -1    0    0    0    0  0.00000000000E+00  0.00000000000E+00  0.45593999997E+02  0.45594000000E+02  0.51100000000E-03 0. -1.
         11   -1    0    0    0    0 -0.00000000000E+00 -0.00000000000E+00 -0.45593999997E+02  0.45594000000E+02  0.51100000000E-03 0.  1.
    9900012    2    1    2    0    0  0.23626224577E+02  0.36107314819E+02  0.46569066783E+01  0.47787269004E+02  0.19999990695E+02 0.  0.
        -12    1    1    2    0    0 -0.23626224577E+02 -0.36107314819E+02 -0.46569066783E+01  0.43400730996E+02  0.00000000000E+00 0.  1.
         11    1    3    3    0    0  0.13898670604E+02  0.11838316981E+02 -0.47109474942E+00  0.18263097328E+02  0.51100000000E-03 0. -1.
        -11    1    3    3    0    0  0.39984982769E+01  0.23249203945E+01  0.50450702934E+01  0.68444121616E+01  0.51100000000E-03 0.  1.
        -12    1    3    3    0    0  0.57290556962E+01  0.21944077444E+02  0.82931134398E-01  0.22679759514E+02  0.00000000000E+00 0.  1.
</event>
<event>
 7    1  0.4675811E-010  0.4778726E+02  0.7816164E-02  0.1312668E+00
        -11   -1    0    0    0    0  0.00000000000E+00  0.00000000000E+00  0.45593999997E+02  0.45594000000E+02  0.51100000000E-03 0. -1.
         11   -1    0    0    0    0 -0.00000000000E+00 -0.00000000000E+00 -0.45593999997E+02  0.45594000000E+02  0.51100000000E-03 0.  1.
    9900012    2    1    2    0    0  0.42676187498E+02  0.70104616931E+01  0.36359731450E+01  0.47787264370E+02  0.19999969569E+02 0.  0.
        -12    1    1    2    0    0 -0.42676187498E+02 -0.70104616931E+01 -0.36359731450E+01  0.43400735630E+02  0.00000000000E+00 0.  1.
         11    1    3    3    0    0  0.14101249067E+02  0.12373320803E+01 -0.37380347585E+01  0.14640666653E+02  0.51100000000E-03 0. -1.
        -11    1    3    3    0    0  0.23451426805E+02  0.69696968811E+01  0.10930515101E+02  0.26795937275E+02  0.51100000000E-03 0.  1.
        -12    1    3    3    0    0  0.51235116260E+01 -0.11965672682E+01 -0.35565071974E+01  0.63506604424E+01  0.00000000000E+00 0.  1.
</event>
<event>
 7    1  0.4675811E-010  0.4778725E+02  0.7816164E-02  0.1312668E+00
        -11   -1    0    0    0    0  0.00000000000E+00  0.00000000000E+00  0.45593999997E+02  0.45594000000E+02  0.51100000000E-03 0. -1.
         11   -1    0    0    0    0 -0.00000000000E+00 -0.00000000000E+00 -0.45593999997E+02  0.45594000000E+02  0.51100000000E-03 0.  1.
    9900012    2    1    2    0    0 -0.22626948082E+02 -0.19513351389E+02  0.31478176325E+02  0.47787248317E+02  0.19999896374E+02 0.  0.
        -12    1    1    2    0    0  0.22626948082E+02  0.19513351389E+02 -0.31478176325E+02  0.43400751683E+02  0.00000000000E+00 0.  1.
         11    1    3    3    0    0 -0.92074178912E+01 -0.40679431565E+01  0.14470719865E+02  0.17627434284E+02  0.51100000000E-03 0. -1.
        -11    1    3    3    0    0 -0.21274812034E+01  0.11303731760E+01  0.76638521359E+01  0.80335888375E+01  0.51100000000E-03 0.  1.
        -12    1    3    3    0    0 -0.11292048988E+02 -0.16575781408E+02  0.93436043239E+01  0.22126225196E+02  0.00000000000E+00 0.  1.
</event>
<event>
 7    1  0.4675811E-010  0.4778728E+02  0.7816164E-02  0.1312668E+00
        -11   -1    0    0    0    0  0.00000000000E+00  0.00000000000E+00  0.45593999997E+02  0.45594000000E+02  0.51100000000E-03 0.  1.
         11   -1    0    0    0    0 -0.00000000000E+00 -0.00000000000E+00 -0.45593999997E+02  0.45594000000E+02  0.51100000000E-03 0. -1.
    9900012    2    1    2    0    0 -0.30724643488E+02  0.25676103996E+02 -0.16743854871E+02  0.47787277543E+02  0.20000029629E+02 0.  0.
        -12    1    1    2    0    0  0.30724643488E+02 -0.25676103996E+02  0.16743854871E+02  0.43400722457E+02  0.00000000000E+00 0.  1.
         11    1    3    3    0    0 -0.20438675940E+02  0.19651453930E+02 -0.14440164887E+02  0.31818822699E+02  0.51100000000E-03 0.  1.
        -11    1    3    3    0    0 -0.57011604702E+01  0.88035127957E+00 -0.58523035263E+01  0.82175243175E+01  0.51100000000E-03 0. -1.
        -12    1    3    3    0    0 -0.45848070773E+01  0.51442987867E+01  0.35486135429E+01  0.77509305261E+01  0.00000000000E+00 0.  1.
</event>
<event>
 7    1  0.4675811E-010  0.4778728E+02  0.7816164E-02  0.1312668E+00
        -11   -1    0    0    0    0  0.00000000000E+00  0.00000000000E+00  0.45593999997E+02  0.45594000000E+02  0.51100000000E-03 0.  1.
         11   -1    0    0    0    0 -0.00000000000E+00 -0.00000000000E+00 -0.45593999997E+02  0.45594000000E+02  0.51100000000E-03 0. -1.
    9900012    2    1    2    0    0  0.71792493242E+01 -0.35829169894E+02 -0.23416906148E+02  0.47787279617E+02  0.20000039088E+02 0.  0.
        -12    1    1    2    0    0 -0.71792493242E+01  0.35829169894E+02  0.23416906148E+02  0.43400720383E+02  0.00000000000E+00 0.  1.
         11    1    3    3    0    0  0.63483540214E+01 -0.19286815005E+02 -0.11349109041E+02  0.23261236169E+02  0.51100000000E-03 0. -1.
        -11    1    3    3    0    0  0.47595195764E+01 -0.12450973820E+02 -0.27389766240E+01  0.13608150825E+02  0.51100000000E-03 0.  1.
         12    1    3    3    0    0 -0.39286242736E+01 -0.40913810695E+01 -0.93288204829E+01  0.10917892624E+02  0.00000000000E+00 0. -1.
</event>
<event>
 7    1  0.4675811E-010  0.4778728E+02  0.7816164E-02  0.1312668E+00
        -11   -1    0    0    0    0  0.00000000000E+00  0.00000000000E+00  0.45593999997E+02  0.45594000000E+02  0.51100000000E-03 0. -1.
         11   -1    0    0    0    0 -0.00000000000E+00 -0.00000000000E+00 -0.45593999997E+02  0.45594000000E+02  0.51100000000E-03 0.  1.
    9900012    2    1    2    0    0 -0.13553341124E+02 -0.25575377632E+02  0.32339288340E+02  0.47787279189E+02  0.20000037132E+02 0.  0.
        -12    1    1    2    0    0  0.13553341124E+02  0.25575377632E+02 -0.32339288340E+02  0.43400720811E+02  0.00000000000E+00 0.  1.
         11    1    3    3    0    0 -0.28048123619E+01 -0.54942854244E+01  0.49016679845E+01  0.78791175903E+01  0.51100000000E-03 0. -1.
        -11    1    3    3    0    0 -0.43534932986E+01 -0.16891351953E+01 -0.16085889262E+01  0.49389918205E+01  0.51100000000E-03 0.  1.
         12    1    3    3    0    0 -0.63950354632E+01 -0.18391957012E+02  0.29046209282E+02  0.34969169778E+02  0.00000000000E+00 0. -1.
</event>
<event>
 7    1  0.4675811E-010  0.4778728E+02  0.7816164E-02  0.1312668E+00
        -11   -1    0    0    0    0  0.00000000000E+00  0.00000000000E+00  0.45593999997E+02  0.45594000000E+02  0.51100000000E-03 0.  1.
         11   -1    0    0    0    0 -0.00000000000E+00 -0.00000000000E+00 -0.45593999997E+02  0.45594000000E+02  0.51100000000E-03 0. -1.
    9900012    2    1    2    0    0  0.16556731442E+02  0.14783625468E+02 -0.37295334209E+02  0.47787275446E+02  0.20000020070E+02 0.  0.
        -12    1    1    2    0    0 -0.16556731442E+02 -0.14783625468E+02  0.37295334209E+02  0.43400724554E+02  0.00000000000E+00 0.  1.
         11    1    3    3    0    0  0.46473876622E+01 -0.17344748231E+01 -0.10250967786E+02  0.11388105892E+02  0.51100000000E-03 0. -1.
        -11    1    3    3    0    0  0.46159902963E+00  0.10893270414E+02 -0.81933664341E+01  0.13638462808E+02  0.51100000000E-03 0.  1.
         12    1    3    3    0    0  0.11447744750E+02  0.56248298764E+01 -0.18850999990E+02  0.22760706747E+02  0.00000000000E+00 0. -1.
</event>
<event>
 7    1  0.4675811E-010  0.4778727E+02  0.7816164E-02  0.1312668E+00
        -11   -1    0    0    0    0  0.00000000000E+00  0.00000000000E+00  0.45593999997E+02  0.45594000000E+02  0.51100000000E-03 0.  1.
         11   -1    0    0    0    0 -0.00000000000E+00 -0.00000000000E+00 -0.45593999997E+02  0.45594000000E+02  0.51100000000E-03 0. -1.
    9900012    2    1    2    0    0 -0.20351053812E+02 -0.38311784462E+02 -0.12903827924E+01  0.47787270655E+02  0.19999998226E+02 0.  0.
        -12    1    1    2    0    0  0.20351053812E+02  0.38311784462E+02  0.12903827924E+01  0.43400729345E+02  0.00000000000E+00 0.  1.
         11    1    3    3    0    0 -0.19310811604E+02 -0.25030648819E+02 -0.20765290093E+01  0.31682057983E+02  0.51100000000E-03 0. -1.
        -11    1    3    3    0    0 -0.45141255203E+01 -0.63948300061E+01  0.24750123927E+01  0.82095594660E+01  0.51100000000E-03 0.  1.
        -12    1    3    3    0    0  0.34738833119E+01 -0.68863056369E+01 -0.16888661758E+01  0.78956532059E+01  0.00000000000E+00 0.  1.
</event>
<event>
 7    1  0.4675811E-010  0.4778727E+02  0.7816164E-02  0.1312668E+00
        -11   -1    0    0    0    0  0.00000000000E+00  0.00000000000E+00  0.45593999997E+02  0.45594000000E+02  0.51100000000E-03 0.  1.
         11   -1    0    0    0    0 -0.00000000000E+00 -0.00000000000E+00 -0.45593999997E+02  0.45594000000E+02  0.51100000000E-03 0. -1.
    9900012    2    1    2    0    0  0.51249018775E+01  0.37893998531E+02 -0.20528120139E+02  0.47787268897E+02  0.19999990207E+02 0.  0.
        -12    1    1    2    0    0 -0.51249018775E+01 -0.37893998531E+02  0.20528120139E+02  0.43400731103E+02  0.00000000000E+00 0.  1.
         11    1    3    3    0    0  0.31982480884E+01  0.35728065708E+02 -0.22759681875E+02  0.42482073741E+02  0.51100000000E-03 0. -1.
        -11    1    3    3    0    0  0.17876362619E+01  0.49497923044E+00 -0.65486308116E+00  0.19671028849E+01  0.51100000000E-03 0.  1.
        -12    1    3    3    0    0  0.13901752716E+00  0.16709535923E+01  0.28864248172E+01  0.33380922705E+01  0.00000000000E+00 0.  1.
</event>
<event>
 7    1  0.4675811E-010  0.4778728E+02  0.7816164E-02  0.1312668E+00
        -11   -1    0    0    0    0  0.00000000000E+00  0.00000000000E+00  0.45593999997E+02  0.45594000000E+02  0.51100000000E-03 0.  1.
         11   -1    0    0    0    0 -0.00000000000E+00 -0.00000000000E+00 -0.45593999997E+02  0.45594000000E+02  0.51100000000E-03 0. -1.
    9900012    2    1    2    0    0  0.23638978579E+02 -0.16752608793E+02 -0.32313642701E+02  0.47787277492E+02  0.20000029398E+02 0.  0.
        -12    1    1    2    0    0 -0.23638978579E+02  0.16752608793E+02  0.32313642701E+02  0.43400722508E+02  0.00000000000E+00 0.  1.
         11    1    3    3    0    0 -0.16862956710E+01  0.92355918768E+00 -0.13081706603E+01  0.23254817567E+01  0.51100000000E-03 0. -1.
        -11    1    3    3    0    0 -0.13805268744E+01 -0.14352292774E+01 -0.18936809823E+01  0.27480475712E+01  0.51100000000E-03 0.  1.
         12    1    3    3    0    0  0.26705801124E+02 -0.16240938703E+02 -0.29111791058E+02  0.42713748164E+02  0.00000000000E+00 0. -1.
</event>
<event>
 7    1  0.4675811E-010  0.4778727E+02  0.7816164E-02  0.1312668E+00
        -11   -1    0    0    0    0  0.00000000000E+00  0.00000000000E+00  0.45593999997E+02  0.45594000000E+02  0.51100000000E-03 0. -1.
         11   -1    0    0    0    0 -0.00000000000E+00 -0.00000000000E+00 -0.45593999997E+02  0.45594000000E+02  0.51100000000E-03 0.  1.
    9900012    2    1    2    0    0  0.72460766762E+01 -0.42785290975E+02 -0.73252051124E+00  0.47787270314E+02  0.19999996669E+02 0.  0.
        -12    1    1    2    0    0 -0.72460766762E+01  0.42785290975E+02  0.73252051124E+00  0.43400729686E+02  0.00000000000E+00 0.  1.
         11    1    3    3    0    0  0.24797540449E+01 -0.11863116546E+02  0.72938797718E+01  0.14145083835E+02  0.51100000000E-03 0. -1.
        -11    1    3    3    0    0  0.54822507018E+01 -0.19452476445E+02 -0.11346165463E+01  0.20242066781E+02  0.51100000000E-03 0.  1.
        -12    1    3    3    0    0 -0.71592807046E+00 -0.11469697984E+02 -0.68917837368E+01  0.13400119698E+02  0.00000000000E+00 0.  1.
</event>
<event>
 7    1  0.4675811E-010  0.4778727E+02  0.7816164E-02  0.1312668E+00
        -11   -1    0    0    0    0  0.00000000000E+00  0.00000000000E+00  0.45593999997E+02  0.45594000000E+02  0.51100000000E-03 0.  1.
         11   -1    0    0    0    0 -0.00000000000E+00 -0.00000000000E+00 -0.45593999997E+02  0.45594000000E+02  0.51100000000E-03 0. -1.
    9900012    2    1    2    0    0 -0.50854412374E+01  0.14487625928E+02 -0.40593966301E+02  0.47787272844E+02  0.20000008204E+02 0.  0.
        -12    1    1    2    0    0  0.50854412374E+01 -0.14487625928E+02  0.40593966301E+02  0.43400727156E+02  0.00000000000E+00 0.  1.
         11    1    3    3    0    0 -0.60128787807E+01  0.78293264479E+01 -0.21604166773E+02  0.23752749021E+02  0.51100000000E-03 0. -1.
        -11    1    3    3    0    0 -0.34041090401E+01  0.61101121491E+01 -0.18329646066E+02  0.19618801034E+02  0.51100000000E-03 0.  1.
        -12    1    3    3    0    0  0.43315465834E+01  0.54818733100E+00 -0.66015346239E+00  0.44157227888E+01  0.00000000000E+00 0.  1.
</event>
<event>
 7    1  0.4675811E-010  0.4778727E+02  0.7816164E-02  0.1312668E+00
        -11   -1    0    0    0    0  0.00000000000E+00  0.00000000000E+00  0.45593999997E+02  0.45594000000E+02  0.51100000000E-03 0. -1.
         11   -1    0    0    0    0 -0.00000000000E+00 -0.00000000000E+00 -0.45593999997E+02  0.45594000000E+02  0.51100000000E-03 0.  1.
    9900012    2    1    2    0    0 -0.34378438219E+02 -0.20150493988E+02  0.17196033224E+02  0.47787274419E+02  0.20000015384E+02 0.  0.
        -12    1    1    2    0    0  0.34378438219E+02  0.20150493988E+02 -0.17196033224E+02  0.43400725581E+02  0.00000000000E+00 0.  1.
         11    1    3    3    0    0 -0.91432284013E+01 -0.46805497788E+01  0.46194444369E+01  0.11262568046E+02  0.51100000000E-03 0. -1.
        -11    1    3    3    0    0 -0.85810102206E+01  0.72029200575E+00 -0.23363429043E+01  0.89225027547E+01  0.51100000000E-03 0.  1.
         12    1    3    3    0    0 -0.16654199597E+02 -0.16190236215E+02  0.14912931691E+02  0.27602203618E+02  0.00000000000E+00 0. -1.
</event>
<event>
 7    1  0.4675811E-010  0.4778728E+02  0.7816164E-02  0.1312668E+00
        -11   -1    0    0    0    0  0.00000000000E+00  0.00000000000E+00  0.45593999997E+02  0.45594000000E+02  0.51100000000E-03 0. -1.
         11   -1    0    0    0    0 -0.00000000000E+00 -0.00000000000E+00 -0.45593999997E+02  0.45594000000E+02  0.51100000000E-03 0.  1.
    9900012    2    1    2    0    0  0.24210484123E+02  0.35790116315E+02 -0.40672789690E+01  0.47787277362E+02  0.20000028803E+02 0.  0.
        -12    1    1    2    0    0 -0.24210484123E+02 -0.35790116315E+02  0.40672789690E+01  0.43400722638E+02  0.00000000000E+00 0.  1.
         11    1    3    3    0    0  0.91894107227E+01  0.11453699391E+02 -0.60136025013E+01  0.15868078475E+02  0.51100000000E-03 0.  1.
        -11    1    3    3    0    0  0.68195906016E+01  0.21477649472E+02 -0.14787880683E+01  0.22582804459E+02  0.51100000000E-03 0. -1.
        -12    1    3    3    0    0  0.82014827983E+01  0.28587674516E+01  0.34251116006E+01  0.93363944277E+01  0.00000000000E+00 0.  1.
</event>
<event>
 7    1  0.4675811E-010  0.4778727E+02  0.7816164E-02  0.1312668E+00
        -11   -1    0    0    0    0  0.00000000000E+00  0.00000000000E+00  0.45593999997E+02  0.45594000000E+02  0.51100000000E-03 0.  1.
         11   -1    0    0    0    0 -0.00000000000E+00 -0.00000000000E+00 -0.45593999997E+02  0.45594000000E+02  0.51100000000E-03 0. -1.
    9900012    2    1    2    0    0 -0.29712205783E+01 -0.32349104848E+02 -0.28780731690E+02  0.47787271287E+02  0.20000001106E+02 0.  0.
        -12    1    1    2    0    0  0.29712205783E+01  0.32349104848E+02  0.28780731690E+02  0.43400728713E+02  0.00000000000E+00 0.  1.
         11    1    3    3    0    0 -0.10843047791E+01 -0.16620382581E+01  0.83950577568E+00  0.21547292716E+01  0.51100000000E-03 0.  1.
        -11    1    3    3    0    0 -0.24441380705E+01 -0.31269886718E+02 -0.22828974760E+02  0.38793578271E+02  0.51100000000E-03 0. -1.
         12    1    3    3    0    0  0.55722227131E+00  0.58282012722E+00 -0.67912627055E+01  0.68389637443E+01  0.00000000000E+00 0. -1.
</event>
<event>
 7    1  0.4675811E-010  0.4778727E+02  0.7816164E-02  0.1312668E+00
        -11   -1    0    0    0    0  0.00000000000E+00  0.00000000000E+00  0.45593999997E+02  0.45594000000E+02  0.51100000000E-03 0.  1.
         11   -1    0    0    0    0 -0.00000000000E+00 -0.00000000000E+00 -0.45593999997E+02  0.45594000000E+02  0.51100000000E-03 0. -1.
    9900012    2    1    2    0    0 -0.43326123046E+02 -0.23521005542E+01 -0.96843273126E+00  0.47787272158E+02  0.20000005078E+02 0.  0.
        -12    1    1    2    0    0  0.43326123046E+02  0.23521005542E+01  0.96843273126E+00  0.43400727842E+02  0.00000000000E+00 0.  1.
         11    1    3    3    0    0 -0.14231804675E+02 -0.16464579036E+01  0.43457890406E+01  0.14971338303E+02  0.51100000000E-03 0. -1.
        -11    1    3    3    0    0 -0.18446719680E+02 -0.38162158491E+01 -0.93267861988E+01  0.21019845657E+02  0.51100000000E-03 0.  1.
         12    1    3    3    0    0 -0.10647598691E+02  0.31105731985E+01  0.40125644269E+01  0.11796088198E+02  0.00000000000E+00 0. -1.
</event>
<event>
 7    1  0.4675811E-010  0.4778727E+02  0.7816164E-02  0.1312668E+00
        -11   -1    0    0    0    0  0.00000000000E+00  0.00000000000E+00  0.45593999997E+02  0.45594000000E+02  0.51100000000E-03 0.  1.
         11   -1    0    0    0    0 -0.00000000000E+00 -0.00000000000E+00 -0.45593999997E+02  0.45594000000E+02  0.51100000000E-03 0. -1.
    9900012    2    1    2    0    0  0.93194417326E+01  0.35972233686E+02 -0.22422518665E+02  0.47787274961E+02  0.20000017859E+02 0.  0.
        -12    1    1    2    0    0 -0.93194417326E+01 -0.35972233686E+02  0.22422518665E+02  0.43400725039E+02  0.00000000000E+00 0.  1.
         11    1    3    3    0    0 -0.15372646537E+01  0.77194109977E+01 -0.49151256212E+01  0.92795985312E+01  0.51100000000E-03 0. -1.
        -11    1    3    3    0    0  0.74325154374E+01  0.17598444882E+02 -0.17541418127E+01  0.19183966267E+02  0.51100000000E-03 0.  1.
        -12    1    3    3    0    0  0.34241909489E+01  0.10654377807E+02 -0.15753251232E+02  0.19323710163E+02  0.00000000000E+00 0.  1.
</event>
<event>
 7    1  0.4675811E-010  0.4778727E+02  0.7816164E-02  0.1312668E+00
        -11   -1    0    0    0    0  0.00000000000E+00  0.00000000000E+00  0.45593999997E+02  0.45594000000E+02  0.51100000000E-03 0.  1.
         11   -1    0    0    0    0 -0.00000000000E+00 -0.00000000000E+00 -0.45593999997E+02  0.45594000000E+02  0.51100000000E-03 0. -1.
    9900012    2    1    2    0    0 -0.25319987858E+02  0.34786822710E+02 -0.56919603852E+01  0.47787271522E+02  0.20000002179E+02 0.  0.
        -12    1    1    2    0    0  0.25319987858E+02 -0.34786822710E+02  0.56919603852E+01  0.43400728478E+02  0.00000000000E+00 0.  1.
         11    1    3    3    0    0 -0.16688236723E+01 -0.17286988259E+00  0.24337653694E+01  0.29560227637E+01  0.51100000000E-03 0. -1.
        -11    1    3    3    0    0 -0.13065023339E+00  0.92060094730E+01 -0.19391966020E+01  0.94089406218E+01  0.51100000000E-03 0.  1.
         12    1    3    3    0    0 -0.23520513952E+02  0.25753683119E+02 -0.61865291526E+01  0.35422308137E+02  0.00000000000E+00 0. -1.
</event>
<event>
 7    1  0.4675811E-010  0.4778726E+02  0.7816164E-02  0.1312668E+00
        -11   -1    0    0    0    0  0.00000000000E+00  0.00000000000E+00  0.45593999997E+02  0.45594000000E+02  0.51100000000E-03 0.  1.
         11   -1    0    0    0    0 -0.00000000000E+00 -0.00000000000E+00 -0.45593999997E+02  0.45594000000E+02  0.51100000000E-03 0. -1.
    9900012    2    1    2    0    0  0.25664262625E+02 -0.20894361513E+02 -0.28078373902E+02  0.47787264982E+02  0.19999972359E+02 0.  0.
        -12    1    1    2    0    0 -0.25664262625E+02  0.20894361513E+02  0.28078373902E+02  0.43400735018E+02  0.00000000000E+00 0.  1.
         11    1    3    3    0    0  0.65791117872E+01 -0.31975514543E+01 -0.80232784191E+01  0.10857349772E+02  0.51100000000E-03 0. -1.
        -11    1    3    3    0    0  0.32905799395E+01 -0.16031794758E+01  0.29614078233E+01  0.47082945242E+01  0.51100000000E-03 0.  1.
        -12    1    3    3    0    0  0.15794570899E+02 -0.16093630583E+02 -0.23016503306E+02  0.32221620686E+02  0.00000000000E+00 0.  1.
</event>
<event>
 7    1  0.4675811E-010  0.4778727E+02  0.7816164E-02  0.1312668E+00
        -11   -1    0    0    0    0  0.00000000000E+00  0.00000000000E+00  0.45593999997E+02  0.45594000000E+02  0.51100000000E-03 0.  1.
         11   -1    0    0    0    0 -0.00000000000E+00 -0.00000000000E+00 -0.45593999997E+02  0.45594000000E+02  0.51100000000E-03 0. -1.
    9900012    2    1    2    0    0  0.35390265811E+02 -0.21018294384E+02 -0.13761689966E+02  0.47787265862E+02  0.19999976371E+02 0.  0.
        -12    1    1    2    0    0 -0.35390265811E+02  0.21018294384E+02  0.13761689966E+02  0.43400734138E+02  0.00000000000E+00 0.  1.
         11    1    3    3    0    0  0.16224448175E+00 -0.48712718116E+01 -0.60979403054E+01  0.78064389169E+01  0.51100000000E-03 0. -1.
        -11    1    3    3    0    0  0.12531266722E+02 -0.47292796232E+01 -0.55093573820E+01  0.14482808790E+02  0.51100000000E-03 0.  1.
        -12    1    3    3    0    0  0.22696754607E+02 -0.11417742949E+02 -0.21543922790E+01  0.25498018155E+02  0.00000000000E+00 0.  1.
</event>
<event>
 7    1  0.4675811E-010  0.4778727E+02  0.7816164E-02  0.1312668E+00
        -11   -1    0    0    0    0  0.00000000000E+00  0.00000000000E+00  0.45593999997E+02  0.45594000000E+02  0.51100000000E-03 0. -1.
         11   -1    0    0    0    0 -0.00000000000E+00 -0.00000000000E+00 -0.45593999997E+02  0.45594000000E+02  0.51100000000E-03 0.  1.
    9900012    2    1    2    0    0 -0.92901031818E+01  0.42114426922E+02  0.48674733029E+01  0.47787271107E+02  0.20000000286E+02 0.  0.
        -12    1    1    2    0    0  0.92901031818E+01 -0.42114426922E+02 -0.48674733029E+01  0.43400728893E+02  0.00000000000E+00 0.  1.
         11    1    3    3    0    0 -0.11503247112E+01  0.75527699911E+00  0.39530058676E+01  0.41856834492E+01  0.51100000000E-03 0. -1.
        -11    1    3    3    0    0 -0.33572061185E+01  0.46096164466E+01 -0.28065983641E+01  0.63558155532E+01  0.51100000000E-03 0.  1.
         12    1    3    3    0    0 -0.47825723521E+01  0.36749533476E+02  0.37210657994E+01  0.37245772105E+02  0.00000000000E+00 0. -1.
</event>
<event>
 7    1  0.4675811E-010  0.4778727E+02  0.7816164E-02  0.1312668E+00
        -11   -1    0    0    0    0  0.00000000000E+00  0.00000000000E+00  0.45593999997E+02  0.45594000000E+02  0.51100000000E-03 0.  1.
         11   -1    0    0    0    0 -0.00000000000E+00 -0.00000000000E+00 -0.45593999997E+02  0.45594000000E+02  0.51100000000E-03 0. -1.
    9900012    2    1    2    0    0 -0.25693729572E+02 -0.32132881899E+01 -0.34830022678E+02  0.47787269130E+02  0.19999991270E+02 0.  0.
        -12    1    1    2    0    0  0.25693729572E+02  0.32132881899E+01  0.34830022678E+02  0.43400730870E+02  0.00000000000E+00 0.  1.
         11    1    3    3    0    0 -0.81275636796E+01  0.54504815514E+01 -0.20737695060E+02  0.22930700756E+02  0.51100000000E-03 0. -1.
        -11    1    3    3    0    0 -0.32347694768E+01 -0.12152553673E+01 -0.52427271782E-01  0.34559120440E+01  0.51100000000E-03 0.  1.
         12    1    3    3    0    0 -0.14331396415E+02 -0.74485143739E+01 -0.14039900347E+02  0.21400656330E+02  0.00000000000E+00 0. -1.
</event>
<event>
 7    1  0.4675811E-010  0.4778726E+02  0.7816164E-02  0.1312668E+00
        -11   -1    0    0    0    0  0.00000000000E+00  0.00000000000E+00  0.45593999997E+02  0.45594000000E+02  0.51100000000E-03 0.  1.
         11   -1    0    0    0    0 -0.00000000000E+00 -0.00000000000E+00 -0.45593999997E+02  0.45594000000E+02  0.51100000000E-03 0. -1.
    9900012    2    1    2    0    0 -0.15460233965E+02 -0.29154136451E+02  0.28189383597E+02  0.47787264361E+02  0.19999969526E+02 0.  0.
        -12    1    1    2    0    0  0.15460233965E+02  0.29154136451E+02 -0.28189383597E+02  0.43400735639E+02  0.00000000000E+00 0.  1.
         11    1    3    3    0    0  0.25344116076E+01 -0.53883344345E+01  0.16161020966E+01  0.61700224005E+01  0.51100000000E-03 0. -1.
        -11    1    3    3    0    0  0.38776334744E+00  0.85138792696E+00  0.22318445808E+01  0.24199901466E+01  0.51100000000E-03 0.  1.
         12    1    3    3    0    0 -0.18382408920E+02 -0.24617189944E+02  0.24341436919E+02  0.39197251814E+02  0.00000000000E+00 0. -1.
</event>
<event>
 7    1  0.4675811E-010  0.4778728E+02  0.7816164E-02  0.1312668E+00
        -11   -1    0    0    0    0  0.00000000000E+00  0.00000000000E+00  0.45593999997E+02  0.45594000000E+02  0.51100000000E-03 0.  1.
         11   -1    0    0    0    0 -0.00000000000E+00 -0.00000000000E+00 -0.45593999997E+02  0.45594000000E+02  0.51100000000E-03 0. -1.
    9900012    2    1    2    0    0 -0.53210014633E+01 -0.22768227569E+02 -0.36563878552E+02  0.47787280444E+02  0.20000042857E+02 0.  0.
        -12    1    1    2    0    0  0.53210014633E+01  0.22768227569E+02  0.36563878552E+02  0.43400719556E+02  0.00000000000E+00 0.  1.
         11    1    3    3    0    0  0.10768948931E+00 -0.14257901447E+02 -0.21610031768E+02  0.25890013981E+02  0.51100000000E-03 0. -1.
        -11    1    3    3    0    0 -0.64446619687E+01 -0.75026519787E+01 -0.37112018919E+01  0.10563923246E+02  0.51100000000E-03 0.  1.
         12    1    3    3    0    0  0.10159710161E+01 -0.10076741430E+01 -0.11242644893E+02  0.11333343217E+02  0.00000000000E+00 0. -1.
</event>
<event>
 7    1  0.4675811E-010  0.4778727E+02  0.7816164E-02  0.1312668E+00
        -11   -1    0    0    0    0  0.00000000000E+00  0.00000000000E+00  0.45593999997E+02  0.45594000000E+02  0.51100000000E-03 0.  1.
         11   -1    0    0    0    0 -0.00000000000E+00 -0.00000000000E+00 -0.45593999997E+02  0.45594000000E+02  0.51100000000E-03 0. -1.
    9900012    2    1    2    0    0  0.94549045686E+01  0.65979413081E+01 -0.41841309508E+02  0.47787271535E+02  0.20000002239E+02 0.  0.
        -12    1    1    2    0    0 -0.94549045686E+01 -0.65979413081E+01  0.41841309508E+02  0.43400728465E+02  0.00000000000E+00 0.  1.
         11    1    3    3    0    0  0.62930978415E+01 -0.19983122147E+01 -0.81194643159E+01  0.10465277502E+02  0.51100000000E-03 0. -1.
        -11    1    3    3    0    0  0.21161705542E+01 -0.30722013798E+01 -0.12923455560E+02  0.13451107873E+02  0.51100000000E-03 0.  1.
        -12    1    3    3    0    0  0.10456361729E+01  0.11668454903E+02 -0.20798389632E+02  0.23870886161E+02  0.00000000000E+00 0.  1.
</event>
<event>
 7    1  0.4675811E-010  0.4778727E+02  0.7816164E-02  0.1312668E+00
        -11   -1    0    0    0    0  0.00000000000E+00  0.00000000000E+00  0.45593999997E+02  0.45594000000E+02  0.51100000000E-03 0.  1.
         11   -1    0    0    0    0 -0.00000000000E+00 -0.00000000000E+00 -0.45593999997E+02  0.45594000000E+02  0.51100000000E-03 0. -1.
    9900012    2    1    2    0    0  0.10857059770E+02  0.23275676254E+02 -0.34985574950E+02  0.47787270669E+02  0.19999998288E+02 0.  0.
        -12    1    1    2    0    0 -0.10857059770E+02 -0.23275676254E+02  0.34985574950E+02  0.43400729331E+02  0.00000000000E+00 0.  1.
         11    1    3    3    0    0  0.95904970838E+00  0.28536376355E+01 -0.51181320096E+00  0.30536825493E+01  0.51100000000E-03 0. -1.
        -11    1    3    3    0    0  0.10736824162E+02  0.41329721891E+01 -0.95746838977E+01  0.14967812940E+02  0.51100000000E-03 0.  1.
         12    1    3    3    0    0 -0.83881410044E+00  0.16289066429E+02 -0.24899077851E+02  0.29765775180E+02  0.00000000000E+00 0. -1.
</event>
<event>
 7    1  0.4675811E-010  0.4778727E+02  0.7816164E-02  0.1312668E+00
        -11   -1    0    0    0    0  0.00000000000E+00  0.00000000000E+00  0.45593999997E+02  0.45594000000E+02  0.51100000000E-03 0.  1.
         11   -1    0    0    0    0 -0.00000000000E+00 -0.00000000000E+00 -0.45593999997E+02  0.45594000000E+02  0.51100000000E-03 0. -1.
    9900012    2    1    2    0    0  0.81319232136E+01 -0.28226055959E+02 -0.31949726541E+02  0.47787269174E+02  0.19999991473E+02 0.  0.
        -12    1    1    2    0    0 -0.81319232136E+01  0.28226055959E+02  0.31949726541E+02  0.43400730826E+02  0.00000000000E+00 0.  1.
         11    1    3    3    0    0 -0.23143145432E+01 -0.31037277029E+01 -0.86646641524E+01  0.94902888572E+01  0.51100000000E-03 0.  1.
        -11    1    3    3    0    0 -0.27966935276E+01 -0.14895277675E+01 -0.36837833545E+01  0.48590583163E+01  0.51100000000E-03 0. -1.
        -12    1    3    3    0    0  0.13242931284E+02 -0.23632800489E+02 -0.19601279034E+02  0.33437922001E+02  0.00000000000E+00 0.  1.
</event>
<event>
 7    1  0.4675811E-010  0.4778727E+02  0.7816164E-02  0.1312668E+00
        -11   -1    0    0    0    0  0.00000000000E+00  0.00000000000E+00  0.45593999997E+02  0.45594000000E+02  0.51100000000E-03 0.  1.
         11   -1    0    0    0    0 -0.00000000000E+00 -0.00000000000E+00 -0.45593999997E+02  0.45594000000E+02  0.51100000000E-03 0. -1.
    9900012    2    1    2    0    0 -0.32320537692E+02  0.23490075102E+02 -0.16947634088E+02  0.47787273206E+02  0.20000009857E+02 0.  0.
        -12    1    1    2    0    0  0.32320537692E+02 -0.23490075102E+02  0.16947634088E+02  0.43400726794E+02  0.00000000000E+00 0.  1.
         11    1    3    3    0    0 -0.76796287508E+01  0.51497636198E+01 -0.57202161048E+01  0.10872793369E+02  0.51100000000E-03 0. -1.
        -11    1    3    3    0    0  0.18640500986E+01  0.12163351921E+01  0.17131435934E+01  0.28087390947E+01  0.51100000000E-03 0.  1.
        -12    1    3    3    0    0 -0.26504959040E+02  0.17123976291E+02 -0.12940561576E+02  0.34105740743E+02  0.00000000000E+00 0.  1.
</event>
<event>
 7    1  0.4675811E-010  0.4778727E+02  0.7816164E-02  0.1312668E+00
        -11   -1    0    0    0    0  0.00000000000E+00  0.00000000000E+00  0.45593999997E+02  0.45594000000E+02  0.51100000000E-03 0. -1.
         11   -1    0    0    0    0 -0.00000000000E+00 -0.00000000000E+00 -0.45593999997E+02  0.45594000000E+02  0.51100000000E-03 0.  1.
    9900012    2    1    2    0    0 -0.21672492393E+02 -0.25992247662E+02  0.27172218861E+02  0.47787270249E+02  0.19999996375E+02 0.  0.
        -12    1    1    2    0    0  0.21672492393E+02  0.25992247662E+02 -0.27172218861E+02  0.43400729751E+02  0.00000000000E+00 0.  1.
         11    1    3    3    0    0  0.70814569567E+00  0.16378533523E+00 -0.39046146641E+00  0.82507962053E+00  0.51100000000E-03 0. -1.
        -11    1    3    3    0    0  0.75307586556E+00  0.16374400974E+01  0.78609031727E+00  0.19662836977E+01  0.51100000000E-03 0.  1.
         12    1    3    3    0    0 -0.23133713955E+02 -0.27793473095E+02  0.26776590010E+02  0.44995906931E+02  0.00000000000E+00 0. -1.
</event>
<event>
 7    1  0.4675811E-010  0.4778727E+02  0.7816164E-02  0.1312668E+00
        -11   -1    0    0    0    0  0.00000000000E+00  0.00000000000E+00  0.45593999997E+02  0.45594000000E+02  0.51100000000E-03 0.  1.
         11   -1    0    0    0    0 -0.00000000000E+00 -0.00000000000E+00 -0.45593999997E+02  0.45594000000E+02  0.51100000000E-03 0. -1.
    9900012    2    1    2    0    0 -0.43891639809E+01  0.36817237315E+02 -0.22557698358E+02  0.47787268679E+02  0.19999989216E+02 0.  0.
        -12    1    1    2    0    0  0.43891639809E+01 -0.36817237315E+02  0.22557698358E+02  0.43400731321E+02  0.00000000000E+00 0.  1.
         11    1    3    3    0    0 -0.76896719789E+01  0.12025960044E+02 -0.57129274393E+01  0.15375054806E+02  0.51100000000E-03 0. -1.
        -11    1    3    3    0    0 -0.65398689808E+00  0.32381975834E+01  0.16909898751E+01  0.37112086267E+01  0.51100000000E-03 0.  1.
         12    1    3    3    0    0  0.39544948961E+01  0.21553079688E+02 -0.18535760794E+02  0.28701005246E+02  0.00000000000E+00 0. -1.
</event>
<event>
 7    1  0.4675811E-010  0.4778728E+02  0.7816164E-02  0.1312668E+00
        -11   -1    0    0    0    0  0.00000000000E+00  0.00000000000E+00  0.45593999997E+02  0.45594000000E+02  0.51100000000E-03 0. -1.
         11   -1    0    0    0    0 -0.00000000000E+00 -0.00000000000E+00 -0.45593999997E+02  0.45594000000E+02  0.51100000000E-03 0.  1.
    9900012    2    1    2    0    0  0.45783959282E+01 -0.21740910947E+02  0.37282616879E+02  0.47787280658E+02  0.20000043832E+02 0.  0.
        -12    1    1    2    0    0 -0.45783959282E+01  0.21740910947E+02 -0.37282616879E+02  0.43400719342E+02  0.00000000000E+00 0.  1.
         11    1    3    3    0    0 -0.13552053095E+01 -0.94298401198E+01  0.20378932778E+02  0.22495763324E+02  0.51100000000E-03 0. -1.
        -11    1    3    3    0    0  0.22997183169E+01 -0.12168050734E+02  0.17667734790E+02  0.21575426204E+02  0.51100000000E-03 0.  1.
        -12    1    3    3    0    0  0.36338829208E+01 -0.14302009351E+00 -0.76405068938E+00  0.37160911298E+01  0.00000000000E+00 0.  1.
</event>
<event>
 7    1  0.4675811E-010  0.4778727E+02  0.7816164E-02  0.1312668E+00
        -11   -1    0    0    0    0  0.00000000000E+00  0.00000000000E+00  0.45593999997E+02  0.45594000000E+02  0.51100000000E-03 0. -1.
         11   -1    0    0    0    0 -0.00000000000E+00 -0.00000000000E+00 -0.45593999997E+02  0.45594000000E+02  0.51100000000E-03 0.  1.
    9900012    2    1    2    0    0 -0.46078722516E+01  0.41965397742E+02 -0.10064587656E+02  0.47787273981E+02  0.20000013388E+02 0.  0.
        -12    1    1    2    0    0  0.46078722516E+01 -0.41965397742E+02  0.10064587656E+02  0.43400726019E+02  0.00000000000E+00 0.  1.
         11    1    3    3    0    0 -0.11796258399E+01  0.92404758054E+01 -0.75104454680E+01  0.11965981014E+02  0.51100000000E-03 0. -1.
        -11    1    3    3    0    0 -0.82192196049E+01  0.12657485511E+02 -0.14225743028E+01  0.15158866326E+02  0.51100000000E-03 0.  1.
         12    1    3    3    0    0  0.47909731932E+01  0.20067436425E+02 -0.11315678853E+01  0.20662426641E+02  0.00000000000E+00 0. -1.
</event>
<event>
 7    1  0.4675811E-010  0.4778727E+02  0.7816164E-02  0.1312668E+00
        -11   -1    0    0    0    0  0.00000000000E+00  0.00000000000E+00  0.45593999997E+02  0.45594000000E+02  0.51100000000E-03 0.  1.
         11   -1    0    0    0    0 -0.00000000000E+00 -0.00000000000E+00 -0.45593999997E+02  0.45594000000E+02  0.51100000000E-03 0. -1.
    9900012    2    1    2    0    0  0.39266151178E+02  0.45376804080E+01 -0.17922111376E+02  0.47787271343E+02  0.20000001359E+02 0.  0.
        -12    1    1    2    0    0 -0.39266151178E+02 -0.45376804080E+01  0.17922111376E+02  0.43400728657E+02  0.00000000000E+00 0.  1.
         11    1    3    3    0    0  0.39825623423E+01 -0.64025760804E+00 -0.67099847207E+01  0.78290885695E+01  0.51100000000E-03 0. -1.
        -11    1    3    3    0    0  0.93649150156E+01 -0.31117512692E+01  0.13969691838E+01  0.99667523483E+01  0.51100000000E-03 0.  1.
         12    1    3    3    0    0  0.25918673820E+02  0.82896892852E+01 -0.12609095839E+02  0.29991430425E+02  0.00000000000E+00 0. -1.
</event>
<event>
 7    1  0.4675811E-010  0.4778727E+02  0.7816164E-02  0.1312668E+00
        -11   -1    0    0    0    0  0.00000000000E+00  0.00000000000E+00  0.45593999997E+02  0.45594000000E+02  0.51100000000E-03 0.  1.
         11   -1    0    0    0    0 -0.00000000000E+00 -0.00000000000E+00 -0.45593999997E+02  0.45594000000E+02  0.51100000000E-03 0. -1.
    9900012    2    1    2    0    0 -0.33224296132E+02 -0.27924278612E+02 -0.63680339938E-01  0.47787271381E+02  0.20000001537E+02 0.  0.
        -12    1    1    2    0    0  0.33224296132E+02  0.27924278612E+02  0.63680339938E-01  0.43400728619E+02  0.00000000000E+00 0.  1.
         11    1    3    3    0    0 -0.22794413126E+02 -0.10414838691E+02 -0.56823284908E+01  0.25697139765E+02  0.51100000000E-03 0. -1.
        -11    1    3    3    0    0 -0.42238344005E+00  0.47687307655E+00  0.66212110087E+00  0.91881462489E+00  0.51100000000E-03 0.  1.
        -12    1    3    3    0    0 -0.10007499565E+02 -0.17986312997E+02  0.49565270500E+01  0.21171316992E+02  0.00000000000E+00 0.  1.
</event>
<event>
 7    1  0.4675811E-010  0.4778727E+02  0.7816164E-02  0.1312668E+00
        -11   -1    0    0    0    0  0.00000000000E+00  0.00000000000E+00  0.45593999997E+02  0.45594000000E+02  0.51100000000E-03 0.  1.
         11   -1    0    0    0    0 -0.00000000000E+00 -0.00000000000E+00 -0.45593999997E+02  0.45594000000E+02  0.51100000000E-03 0. -1.
    9900012    2    1    2    0    0  0.21276234556E+02  0.52009065219E+01 -0.37468594786E+02  0.47787272117E+02  0.20000004892E+02 0.  0.
        -12    1    1    2    0    0 -0.21276234556E+02 -0.52009065219E+01  0.37468594786E+02  0.43400727883E+02  0.00000000000E+00 0.  1.
         11    1    3    3    0    0  0.11274603560E+02  0.65318784752E+01 -0.26383193115E+02  0.29425414204E+02  0.51100000000E-03 0. -1.
        -11    1    3    3    0    0  0.83983052885E+01 -0.35915434952E+01 -0.12312732732E+02  0.15330822026E+02  0.51100000000E-03 0.  1.
         12    1    3    3    0    0  0.16033257077E+01  0.22605715419E+01  0.12273310611E+01  0.30310358881E+01  0.00000000000E+00 0. -1.
</event>
<event>
 7    1  0.4675811E-010  0.4778727E+02  0.7816164E-02  0.1312668E+00
        -11   -1    0    0    0    0  0.00000000000E+00  0.00000000000E+00  0.45593999997E+02  0.45594000000E+02  0.51100000000E-03 0.  1.
         11   -1    0    0    0    0 -0.00000000000E+00 -0.00000000000E+00 -0.45593999997E+02  0.45594000000E+02  0.51100000000E-03 0. -1.
    9900012    2    1    2    0    0 -0.35734026325E+02  0.16622824241E+02 -0.18176489358E+02  0.47787266268E+02  0.19999978222E+02 0.  0.
        -12    1    1    2    0    0  0.35734026325E+02 -0.16622824241E+02  0.18176489358E+02  0.43400733732E+02  0.00000000000E+00 0.  1.
         11    1    3    3    0    0 -0.19267800044E+02  0.35330913018E+01 -0.38447725484E+01  0.19962793614E+02  0.51100000000E-03 0. -1.
        -11    1    3    3    0    0 -0.81384956027E+00  0.24885645301E+01 -0.71284467753E+01  0.75940804721E+01  0.51100000000E-03 0.  1.
         12    1    3    3    0    0 -0.15652376721E+02  0.10601168409E+02 -0.72032700339E+01  0.20230392182E+02  0.00000000000E+00 0. -1.
</event>
<event>
 7    1  0.4675811E-010  0.4778727E+02  0.7816164E-02  0.1312668E+00
        -11   -1    0    0    0    0  0.00000000000E+00  0.00000000000E+00  0.45593999997E+02  0.45594000000E+02  0.51100000000E-03 0.  1.
         11   -1    0    0    0    0 -0.00000000000E+00 -0.00000000000E+00 -0.45593999997E+02  0.45594000000E+02  0.51100000000E-03 0. -1.
    9900012    2    1    2    0    0 -0.11152668967E+02  0.30768775501E+01 -0.41830303221E+02  0.47787268807E+02  0.19999989799E+02 0.  0.
        -12    1    1    2    0    0  0.11152668967E+02 -0.30768775501E+01  0.41830303221E+02  0.43400731193E+02  0.00000000000E+00 0.  1.
         11    1    3    3    0    0 -0.26861182197E+01 -0.61292640709E+01 -0.13126290689E+02  0.14733723787E+02  0.51100000000E-03 0. -1.
        -11    1    3    3    0    0  0.24945979007E+01  0.14704675688E+01 -0.39497188348E+01  0.48975067833E+01  0.51100000000E-03 0.  1.
         12    1    3    3    0    0 -0.10961148648E+02  0.77356740523E+01 -0.24754293697E+02  0.28156038236E+02  0.00000000000E+00 0. -1.
</event>
<event>
 7    1  0.4675811E-010  0.4778727E+02  0.7816164E-02  0.1312668E+00
        -11   -1    0    0    0    0  0.00000000000E+00  0.00000000000E+00  0.45593999997E+02  0.45594000000E+02  0.51100000000E-03 0. -1.
         11   -1    0    0    0    0 -0.00000000000E+00 -0.00000000000E+00 -0.45593999997E+02  0.45594000000E+02  0.51100000000E-03 0.  1.
    9900012    2    1    2    0    0  0.79192092651E+01 -0.38723060104E+02 -0.17928588121E+02  0.47787268079E+02  0.19999986481E+02 0.  0.
        -12    1    1    2    0    0 -0.79192092651E+01  0.38723060104E+02  0.17928588121E+02  0.43400731921E+02  0.00000000000E+00 0.  1.
         11    1    3    3    0    0  0.49456578763E+01 -0.23211116918E+02 -0.16817415735E+02  0.29086783127E+02  0.51100000000E-03 0.  1.
        -11    1    3    3    0    0 -0.68297262108E+00 -0.11740812900E+02 -0.43386211374E+01  0.12535420726E+02  0.51100000000E-03 0. -1.
        -12    1    3    3    0    0  0.36565240098E+01 -0.37711302869E+01  0.32274487510E+01  0.61650642264E+01  0.00000000000E+00 0.  1.
</event>
<event>
 7    1  0.4675811E-010  0.4778726E+02  0.7816164E-02  0.1312668E+00
        -11   -1    0    0    0    0  0.00000000000E+00  0.00000000000E+00  0.45593999997E+02  0.45594000000E+02  0.51100000000E-03 0.  1.
         11   -1    0    0    0    0 -0.00000000000E+00 -0.00000000000E+00 -0.45593999997E+02  0.45594000000E+02  0.51100000000E-03 0. -1.
    9900012    2    1    2    0    0 -0.42212118251E+02  0.55069711985E+01 -0.84518958849E+01  0.47787260340E+02  0.19999951193E+02 0.  0.
        -12    1    1    2    0    0  0.42212118251E+02 -0.55069711985E+01  0.84518958849E+01  0.43400739660E+02  0.00000000000E+00 0.  1.
         11    1    3    3    0    0 -0.14583425728E+02  0.28344255452E+01 -0.64537398297E-01  0.14856461203E+02  0.51100000000E-03 0. -1.
        -11    1    3    3    0    0 -0.50248268317E+01  0.26674540440E+01  0.41880765922E+01  0.70642891765E+01  0.51100000000E-03 0.  1.
         12    1    3    3    0    0 -0.22603865691E+02  0.50916093681E-02 -0.12575435079E+02  0.25866509960E+02  0.00000000000E+00 0. -1.
</event>
<event>
 7    1  0.4675811E-010  0.4778727E+02  0.7816164E-02  0.1312668E+00
        -11   -1    0    0    0    0  0.00000000000E+00  0.00000000000E+00  0.45593999997E+02  0.45594000000E+02  0.51100000000E-03 0.  1.
         11   -1    0    0    0    0 -0.00000000000E+00 -0.00000000000E+00 -0.45593999997E+02  0.45594000000E+02  0.51100000000E-03 0. -1.
    9900012    2    1    2    0    0 -0.30098926341E+02  0.18386508786E+02 -0.25290601321E+02  0.47787267432E+02  0.19999983531E+02 0.  0.
        -12    1    1    2    0    0  0.30098926341E+02 -0.18386508786E+02  0.25290601321E+02  0.43400732568E+02  0.00000000000E+00 0.  1.
         11    1    3    3    0    0 -0.97348378527E+00  0.43484412518E+01 -0.28857531440E+01  0.53088777976E+01  0.51100000000E-03 0.  1.
        -11    1    3    3    0    0 -0.80042339035E+01  0.44780231089E+01 -0.15972610727E+02  0.18418597804E+02  0.51100000000E-03 0. -1.
         12    1    3    3    0    0 -0.21121208652E+02  0.95600444257E+01 -0.64322374497E+01  0.24059791831E+02  0.00000000000E+00 0. -1.
</event>
<event>
 7    1  0.4675811E-010  0.4778727E+02  0.7816164E-02  0.1312668E+00
        -11   -1    0    0    0    0  0.00000000000E+00  0.00000000000E+00  0.45593999997E+02  0.45594000000E+02  0.51100000000E-03 0.  1.
         11   -1    0    0    0    0 -0.00000000000E+00 -0.00000000000E+00 -0.45593999997E+02  0.45594000000E+02  0.51100000000E-03 0. -1.
    9900012    2    1    2    0    0  0.17665802584E+02 -0.35476484659E+02 -0.17690718298E+02  0.47787273525E+02  0.20000011310E+02 0.  0.
        -12    1    1    2    0    0 -0.17665802584E+02  0.35476484659E+02  0.17690718298E+02  0.43400726475E+02  0.00000000000E+00 0.  1.
         11    1    3    3    0    0  0.10864042264E+02 -0.11135370771E+02 -0.10294006655E+02  0.18654502668E+02  0.51100000000E-03 0. -1.
        -11    1    3    3    0    0  0.70432680360E+01 -0.72920382618E+01 -0.65317361813E+01  0.12060059056E+02  0.51100000000E-03 0.  1.
         12    1    3    3    0    0 -0.24150771589E+00 -0.17049075626E+02 -0.86497546120E+00  0.17072711801E+02  0.00000000000E+00 0. -1.
</event>
<event>
 7    1  0.4675811E-010  0.4778727E+02  0.7816164E-02  0.1312668E+00
        -11   -1    0    0    0    0  0.00000000000E+00  0.00000000000E+00  0.45593999997E+02  0.45594000000E+02  0.51100000000E-03 0. -1.
         11   -1    0    0    0    0 -0.00000000000E+00 -0.00000000000E+00 -0.45593999997E+02  0.45594000000E+02  0.51100000000E-03 0.  1.
    9900012    2    1    2    0    0 -0.39110809148E+02 -0.18743353270E+02  0.16292480483E+01  0.47787272665E+02  0.20000007389E+02 0.  0.
        -12    1    1    2    0    0  0.39110809148E+02  0.18743353270E+02 -0.16292480483E+01  0.43400727335E+02  0.00000000000E+00 0.  1.
         11    1    3    3    0    0 -0.89051377216E+01 -0.46418300030E+01 -0.17075773283E+01  0.10186455920E+02  0.51100000000E-03 0. -1.
        -11    1    3    3    0    0 -0.23297608245E+01 -0.77315654624E+01  0.39727072951E+01  0.89992940564E+01  0.51100000000E-03 0.  1.
        -12    1    3    3    0    0 -0.27875910602E+02 -0.63699578044E+01 -0.63588191854E+00  0.28601522689E+02  0.00000000000E+00 0.  1.
</event>
<event>
 7    1  0.4675811E-010  0.4778727E+02  0.7816164E-02  0.1312668E+00
        -11   -1    0    0    0    0  0.00000000000E+00  0.00000000000E+00  0.45593999997E+02  0.45594000000E+02  0.51100000000E-03 0.  1.
         11   -1    0    0    0    0 -0.00000000000E+00 -0.00000000000E+00 -0.45593999997E+02  0.45594000000E+02  0.51100000000E-03 0. -1.
    9900012    2    1    2    0    0 -0.33154257956E+02 -0.24473057472E+02 -0.13619397953E+02  0.47787270015E+02  0.19999995305E+02 0.  0.
        -12    1    1    2    0    0  0.33154257956E+02  0.24473057472E+02  0.13619397953E+02  0.43400729985E+02  0.00000000000E+00 0.  1.
         11    1    3    3    0    0 -0.17610261289E+02 -0.88024963901E+01 -0.75225814220E+01  0.21075921733E+02  0.51100000000E-03 0. -1.
        -11    1    3    3    0    0 -0.73113785529E+01  0.35276081719E+00  0.92213125975E+00  0.73777383295E+01  0.51100000000E-03 0.  1.
         12    1    3    3    0    0 -0.82326181135E+01 -0.16023321900E+02 -0.70189477908E+01  0.19333609952E+02  0.00000000000E+00 0. -1.
</event>
<event>
 7    1  0.4675811E-010  0.4778727E+02  0.7816164E-02  0.1312668E+00
        -11   -1    0    0    0    0  0.00000000000E+00  0.00000000000E+00  0.45593999997E+02  0.45594000000E+02  0.51100000000E-03 0.  1.
         11   -1    0    0    0    0 -0.00000000000E+00 -0.00000000000E+00 -0.45593999997E+02  0.45594000000E+02  0.51100000000E-03 0. -1.
    9900012    2    1    2    0    0 -0.43077939540E+02  0.12277828141E+01 -0.51387679926E+01  0.47787271180E+02  0.20000000617E+02 0.  0.
        -12    1    1    2    0    0  0.43077939540E+02 -0.12277828141E+01  0.51387679926E+01  0.43400728820E+02  0.00000000000E+00 0.  1.
         11    1    3    3    0    0 -0.13647892223E+02  0.47565027076E+01  0.42919918478E+00  0.14459373857E+02  0.51100000000E-03 0. -1.
        -11    1    3    3    0    0 -0.64111193549E+01  0.23044827800E+01 -0.66988551426E+01  0.95544624521E+01  0.51100000000E-03 0.  1.
         12    1    3    3    0    0 -0.23018927962E+02 -0.58332026734E+01  0.11308879652E+01  0.23773434870E+02  0.00000000000E+00 0. -1.
</event>
<event>
 7    1  0.4675811E-010  0.4778728E+02  0.7816164E-02  0.1312668E+00
        -11   -1    0    0    0    0  0.00000000000E+00  0.00000000000E+00  0.45593999997E+02  0.45594000000E+02  0.51100000000E-03 0.  1.
         11   -1    0    0    0    0 -0.00000000000E+00 -0.00000000000E+00 -0.45593999997E+02  0.45594000000E+02  0.51100000000E-03 0. -1.
    9900012    2    1    2    0    0 -0.14355781772E+02  0.24498051984E+02 -0.32823464951E+02  0.47787275666E+02  0.20000021073E+02 0.  0.
        -12    1    1    2    0    0  0.14355781772E+02 -0.24498051984E+02  0.32823464951E+02  0.43400724334E+02  0.00000000000E+00 0.  1.
         11    1    3    3    0    0  0.10475174325E+01  0.11569598607E+02 -0.11231208084E+02  0.16158370586E+02  0.51100000000E-03 0. -1.
        -11    1    3    3    0    0 -0.44449430495E+00  0.67097499414E+00 -0.78813840064E+01  0.79223731765E+01  0.51100000000E-03 0.  1.
        -12    1    3    3    0    0 -0.14958804899E+02  0.12257478382E+02 -0.13710872861E+02  0.23706531904E+02  0.00000000000E+00 0.  1.
</event>
<event>
 7    1  0.4675811E-010  0.4778727E+02  0.7816164E-02  0.1312668E+00
        -11   -1    0    0    0    0  0.00000000000E+00  0.00000000000E+00  0.45593999997E+02  0.45594000000E+02  0.51100000000E-03 0.  1.
         11   -1    0    0    0    0 -0.00000000000E+00 -0.00000000000E+00 -0.45593999997E+02  0.45594000000E+02  0.51100000000E-03 0. -1.
    9900012    2    1    2    0    0  0.78277984275E+01  0.35458641871E+02 -0.23770435036E+02  0.47787270820E+02  0.19999998979E+02 0.  0.
        -12    1    1    2    0    0 -0.78277984275E+01 -0.35458641871E+02  0.23770435036E+02  0.43400729180E+02  0.00000000000E+00 0.  1.
         11    1    3    3    0    0  0.89550617408E+00  0.43298053074E+00 -0.18084066176E+01  0.20639133227E+01  0.51100000000E-03 0.  1.
        -11    1    3    3    0    0  0.10439718430E+02  0.14617174238E+02 -0.42127831426E+01  0.18449852185E+02  0.51100000000E-03 0. -1.
         12    1    3    3    0    0 -0.35074261764E+01  0.20408487102E+02 -0.17749245276E+02  0.27273505313E+02  0.00000000000E+00 0. -1.
</event>
<event>
 7    1  0.4675811E-010  0.4778724E+02  0.7816164E-02  0.1312668E+00
        -11   -1    0    0    0    0  0.00000000000E+00  0.00000000000E+00  0.45593999997E+02  0.45594000000E+02  0.51100000000E-03 0. -1.
         11   -1    0    0    0    0 -0.00000000000E+00 -0.00000000000E+00 -0.45593999997E+02  0.45594000000E+02  0.51100000000E-03 0.  1.
    9900012    2    1    2    0    0  0.20140661771E+02  0.33207253573E+02  0.19371586887E+02  0.47787235895E+02  0.19999839738E+02 0.  0.
        -12    1    1    2    0    0 -0.20140661771E+02 -0.33207253573E+02 -0.19371586887E+02  0.43400764105E+02  0.00000000000E+00 0.  1.
         11    1    3    3    0    0  0.37567950506E+01  0.41339741365E+01  0.42661873700E+01  0.70287698889E+01  0.51100000000E-03 0. -1.
        -11    1    3    3    0    0  0.13873456719E+02  0.15706477813E+02  0.73010469897E+00  0.20969008077E+02  0.51100000000E-03 0.  1.
         12    1    3    3    0    0  0.25104100017E+01  0.13366801623E+02  0.14375294818E+02  0.19789457929E+02  0.00000000000E+00 0. -1.
</event>
<event>
 7    1  0.5088881E-010  0.4778725E+02  0.7816164E-02  0.1312668E+00
        -11   -1    0    0    0    0  0.00000000000E+00  0.00000000000E+00  0.45593999997E+02  0.45594000000E+02  0.51100000000E-03 0.  1.
         11   -1    0    0    0    0 -0.00000000000E+00 -0.00000000000E+00 -0.45593999997E+02  0.45594000000E+02  0.51100000000E-03 0. -1.
    9900012    2    1    2    0    0  0.27150885500E+01  0.41052065087E+02 -0.13819602655E+02  0.47787249186E+02  0.19999900336E+02 0.  0.
        -12    1    1    2    0    0 -0.27150885500E+01 -0.41052065087E+02  0.13819602655E+02  0.43400750814E+02  0.00000000000E+00 0.  1.
         11    1    3    3    0    0  0.38220935020E+01  0.11528833697E+02  0.15950463504E+01  0.12250166459E+02  0.51100000000E-03 0.  1.
        -11    1    3    3    0    0 -0.15531175431E+01 -0.60785781170E+00 -0.18488371906E+01  0.24899526984E+01  0.51100000000E-03 0. -1.
         12    1    3    3    0    0  0.44611259113E+00  0.30131089202E+02 -0.13565811815E+02  0.33047130029E+02  0.00000000000E+00 0. -1.
</event>
<event>
 7    1  0.4675811E-010  0.4778725E+02  0.7816164E-02  0.1312668E+00
        -11   -1    0    0    0    0  0.00000000000E+00  0.00000000000E+00  0.45593999997E+02  0.45594000000E+02  0.51100000000E-03 0.  1.
         11   -1    0    0    0    0 -0.00000000000E+00 -0.00000000000E+00 -0.45593999997E+02  0.45594000000E+02  0.51100000000E-03 0. -1.
    9900012    2    1    2    0    0 -0.21059767564E+02  0.37837314348E+02 -0.29067155357E+01  0.47787249291E+02  0.19999900816E+02 0.  0.
        -12    1    1    2    0    0  0.21059767564E+02 -0.37837314348E+02  0.29067155357E+01  0.43400750709E+02  0.00000000000E+00 0.  1.
         11    1    3    3    0    0 -0.31699535753E+00  0.15683287897E+01  0.18762060533E+01  0.24658245406E+01  0.51100000000E-03 0. -1.
        -11    1    3    3    0    0  0.18079190236E+01  0.80845736090E+00  0.19296535285E+01  0.27650926750E+01  0.51100000000E-03 0.  1.
         12    1    3    3    0    0 -0.22550691230E+02  0.35460528197E+02 -0.67125751176E+01  0.42556332075E+02  0.00000000000E+00 0. -1.
</event>
<event>
 7    1  0.4675811E-010  0.4778727E+02  0.7816164E-02  0.1312668E+00
        -11   -1    0    0    0    0  0.00000000000E+00  0.00000000000E+00  0.45593999997E+02  0.45594000000E+02  0.51100000000E-03 0. -1.
         11   -1    0    0    0    0 -0.00000000000E+00 -0.00000000000E+00 -0.45593999997E+02  0.45594000000E+02  0.51100000000E-03 0.  1.
    9900012    2    1    2    0    0 -0.43167532927E+02  0.79715307239E+00  0.44217612865E+01  0.47787270457E+02  0.19999997321E+02 0.  0.
        -12    1    1    2    0    0  0.43167532927E+02 -0.79715307239E+00 -0.44217612865E+01  0.43400729543E+02  0.00000000000E+00 0.  1.
         11    1    3    3    0    0 -0.10973344358E+02  0.30900221456E+00  0.33180201085E+01  0.11468174505E+02  0.51100000000E-03 0. -1.
        -11    1    3    3    0    0 -0.12254598557E+02 -0.79633349700E+01 -0.28942575590E+00  0.14617580415E+02  0.51100000000E-03 0.  1.
        -12    1    3    3    0    0 -0.19939590011E+02  0.84514858278E+01  0.13931669339E+01  0.21701515538E+02  0.00000000000E+00 0.  1.
</event>
<event>
 7    1  0.4675811E-010  0.4778727E+02  0.7816164E-02  0.1312668E+00
        -11   -1    0    0    0    0  0.00000000000E+00  0.00000000000E+00  0.45593999997E+02  0.45594000000E+02  0.51100000000E-03 0.  1.
         11   -1    0    0    0    0 -0.00000000000E+00 -0.00000000000E+00 -0.45593999997E+02  0.45594000000E+02  0.51100000000E-03 0. -1.
    9900012    2    1    2    0    0 -0.25137513505E+02 -0.34725845161E+02 -0.67708373200E+01  0.47787272525E+02  0.20000006750E+02 0.  0.
        -12    1    1    2    0    0  0.25137513505E+02  0.34725845161E+02  0.67708373200E+01  0.43400727475E+02  0.00000000000E+00 0.  1.
         11    1    3    3    0    0 -0.16179086860E+02 -0.10665100158E+02 -0.55276839813E+01  0.20150992617E+02  0.51100000000E-03 0. -1.
        -11    1    3    3    0    0 -0.30113324318E+01 -0.91950519210E+01 -0.54187159110E+01  0.11089616099E+02  0.51100000000E-03 0.  1.
         12    1    3    3    0    0 -0.59470942132E+01 -0.14865693082E+02  0.41755625723E+01  0.16546663808E+02  0.00000000000E+00 0. -1.
</event>
<event>
 7    1  0.4675811E-010  0.4778728E+02  0.7816164E-02  0.1312668E+00
        -11   -1    0    0    0    0  0.00000000000E+00  0.00000000000E+00  0.45593999997E+02  0.45594000000E+02  0.51100000000E-03 0.  1.
         11   -1    0    0    0    0 -0.00000000000E+00 -0.00000000000E+00 -0.45593999997E+02  0.45594000000E+02  0.51100000000E-03 0. -1.
    9900012    2    1    2    0    0  0.19332934117E+02 -0.28531091919E+02 -0.26378726667E+02  0.47787276870E+02  0.20000026561E+02 0.  0.
        -12    1    1    2    0    0 -0.19332934117E+02  0.28531091919E+02  0.26378726667E+02  0.43400723130E+02  0.00000000000E+00 0.  1.
         11    1    3    3    0    0  0.30859833874E+00 -0.30794292773E+01 -0.49368441721E+01  0.58267098992E+01  0.51100000000E-03 0. -1.
        -11    1    3    3    0    0  0.15853438703E+02 -0.26408201913E+02 -0.14037748717E+02  0.33849417075E+02  0.51100000000E-03 0.  1.
        -12    1    3    3    0    0  0.31708970746E+01  0.95653927137E+00 -0.74041337778E+01  0.81111498960E+01  0.00000000000E+00 0.  1.
</event>
<event>
 7    1  0.4675811E-010  0.4778725E+02  0.7816164E-02  0.1312668E+00
        -11   -1    0    0    0    0  0.00000000000E+00  0.00000000000E+00  0.45593999997E+02  0.45594000000E+02  0.51100000000E-03 0.  1.
         11   -1    0    0    0    0 -0.00000000000E+00 -0.00000000000E+00 -0.45593999997E+02  0.45594000000E+02  0.51100000000E-03 0. -1.
    9900012    2    1    2    0    0 -0.19484537688E+02  0.36781285053E+02 -0.12292875997E+02  0.47787251857E+02  0.19999912518E+02 0.  0.
        -12    1    1    2    0    0  0.19484537688E+02 -0.36781285053E+02  0.12292875997E+02  0.43400748143E+02  0.00000000000E+00 0.  1.
         11    1    3    3    0    0 -0.50028998736E+01  0.35132324886E+01 -0.59163479939E+01  0.85073487944E+01  0.51100000000E-03 0. -1.
        -11    1    3    3    0    0 -0.18407911119E+01  0.40286838185E+01 -0.59557788316E+01  0.74222710122E+01  0.51100000000E-03 0.  1.
        -12    1    3    3    0    0 -0.12640846702E+02  0.29239368746E+02 -0.42074917148E+00  0.31857632051E+02  0.00000000000E+00 0.  1.
</event>
<event>
 7    1  0.4675811E-010  0.4778727E+02  0.7816164E-02  0.1312668E+00
        -11   -1    0    0    0    0  0.00000000000E+00  0.00000000000E+00  0.45593999997E+02  0.45594000000E+02  0.51100000000E-03 0.  1.
         11   -1    0    0    0    0 -0.00000000000E+00 -0.00000000000E+00 -0.45593999997E+02  0.45594000000E+02  0.51100000000E-03 0. -1.
    9900012    2    1    2    0    0  0.39350383021E+02  0.76142085822E+01 -0.16649158600E+02  0.47787270763E+02  0.19999998716E+02 0.  0.
        -12    1    1    2    0    0 -0.39350383021E+02 -0.76142085822E+01  0.16649158600E+02  0.43400729237E+02  0.00000000000E+00 0.  1.
         11    1    3    3    0    0  0.21155000123E+02 -0.65612348918E+00 -0.88054942192E+01  0.22923814188E+02  0.51100000000E-03 0. -1.
        -11    1    3    3    0    0  0.58044949033E+01 -0.28977508062E+01 -0.13935018831E+00  0.64891093036E+01  0.51100000000E-03 0.  1.
        -12    1    3    3    0    0  0.12390887995E+02  0.11168082878E+02 -0.77043141924E+01  0.18374347271E+02  0.00000000000E+00 0.  1.
</event>
<event>
 7    1  0.4675811E-010  0.4778727E+02  0.7816164E-02  0.1312668E+00
        -11   -1    0    0    0    0  0.00000000000E+00  0.00000000000E+00  0.45593999997E+02  0.45594000000E+02  0.51100000000E-03 0. -1.
         11   -1    0    0    0    0 -0.00000000000E+00 -0.00000000000E+00 -0.45593999997E+02  0.45594000000E+02  0.51100000000E-03 0.  1.
    9900012    2    1    2    0    0 -0.21504302997E+02  0.31900151530E+02 -0.20089016019E+02  0.47787270978E+02  0.19999999696E+02 0.  0.
        -12    1    1    2    0    0  0.21504302997E+02 -0.31900151530E+02  0.20089016019E+02  0.43400729022E+02  0.00000000000E+00 0.  1.
         11    1    3    3    0    0 -0.41055691987E+01  0.39554991112E+01 -0.22761928607E+01  0.61386257309E+01  0.51100000000E-03 0. -1.
        -11    1    3    3    0    0 -0.77484051157E+01  0.13726739028E+02 -0.18681578067E+02  0.24443046159E+02  0.51100000000E-03 0.  1.
         12    1    3    3    0    0 -0.96503286830E+01  0.14217913391E+02  0.86875490907E+00  0.17205599088E+02  0.00000000000E+00 0. -1.
</event>
<event>
 7    1  0.4675811E-010  0.4778727E+02  0.7816164E-02  0.1312668E+00
        -11   -1    0    0    0    0  0.00000000000E+00  0.00000000000E+00  0.45593999997E+02  0.45594000000E+02  0.51100000000E-03 0.  1.
         11   -1    0    0    0    0 -0.00000000000E+00 -0.00000000000E+00 -0.45593999997E+02  0.45594000000E+02  0.51100000000E-03 0. -1.
    9900012    2    1    2    0    0 -0.13119353098E+02 -0.40901926171E+02 -0.62079130288E+01  0.47787272191E+02  0.20000005227E+02 0.  0.
        -12    1    1    2    0    0  0.13119353098E+02  0.40901926171E+02  0.62079130288E+01  0.43400727809E+02  0.00000000000E+00 0.  1.
         11    1    3    3    0    0 -0.60978648597E+00 -0.11088718038E+02  0.22874458764E+00  0.11107827494E+02  0.51100000000E-03 0. -1.
        -11    1    3    3    0    0 -0.12825132162E+02 -0.31292668821E+02 -0.43431697615E+01  0.34096601895E+02  0.51100000000E-03 0.  1.
        -12    1    3    3    0    0  0.31556554964E+00  0.14794606883E+01 -0.20934878549E+01  0.25828428026E+01  0.00000000000E+00 0.  1.
</event>
<event>
 7    1  0.4675811E-010  0.4778727E+02  0.7816164E-02  0.1312668E+00
        -11   -1    0    0    0    0  0.00000000000E+00  0.00000000000E+00  0.45593999997E+02  0.45594000000E+02  0.51100000000E-03 0.  1.
         11   -1    0    0    0    0 -0.00000000000E+00 -0.00000000000E+00 -0.45593999997E+02  0.45594000000E+02  0.51100000000E-03 0. -1.
    9900012    2    1    2    0    0 -0.65811197441E+01 -0.40805448406E+02 -0.13237356019E+02  0.47787270155E+02  0.19999995945E+02 0.  0.
        -12    1    1    2    0    0  0.65811197441E+01  0.40805448406E+02  0.13237356019E+02  0.43400729845E+02  0.00000000000E+00 0.  1.
         11    1    3    3    0    0  0.26433285555E+00 -0.15361872873E+02 -0.55813846005E+01  0.16346524534E+02  0.51100000000E-03 0. -1.
        -11    1    3    3    0    0  0.40088250024E+01 -0.20822936426E+01 -0.25243130007E+01  0.51748218424E+01  0.51100000000E-03 0.  1.
         12    1    3    3    0    0 -0.10854277602E+02 -0.23361281890E+02 -0.51316584182E+01  0.26265923778E+02  0.00000000000E+00 0. -1.
</event>
<event>
 7    1  0.6487771E-010  0.4778727E+02  0.7816164E-02  0.1312668E+00
        -11   -1    0    0    0    0  0.00000000000E+00  0.00000000000E+00  0.45593999997E+02  0.45594000000E+02  0.51100000000E-03 0.  1.
         11   -1    0    0    0    0 -0.00000000000E+00 -0.00000000000E+00 -0.45593999997E+02  0.45594000000E+02  0.51100000000E-03 0. -1.
    9900012    2    1    2    0    0  0.40372277538E+02 -0.15263480609E+02  0.45528743632E+01  0.47787270757E+02  0.19999998688E+02 0.  0.
        -12    1    1    2    0    0 -0.40372277538E+02  0.15263480609E+02 -0.45528743632E+01  0.43400729243E+02  0.00000000000E+00 0.  1.
         11    1    3    3    0    0  0.95518849480E+01 -0.11123367050E+02 -0.73413075840E+00  0.14680148119E+02  0.51100000000E-03 0. -1.
        -11    1    3    3    0    0  0.23688853349E+01  0.40785393212E+00  0.34909628027E+01  0.42384884229E+01  0.51100000000E-03 0.  1.
         12    1    3    3    0    0  0.28451507255E+02 -0.45479674917E+01  0.17960423189E+01  0.28868634214E+02  0.00000000000E+00 0. -1.
</event>
<event>
 7    1  0.4675811E-010  0.4778727E+02  0.7816164E-02  0.1312668E+00
        -11   -1    0    0    0    0  0.00000000000E+00  0.00000000000E+00  0.45593999997E+02  0.45594000000E+02  0.51100000000E-03 0.  1.
         11   -1    0    0    0    0 -0.00000000000E+00 -0.00000000000E+00 -0.45593999997E+02  0.45594000000E+02  0.51100000000E-03 0. -1.
    9900012    2    1    2    0    0  0.16773344724E+02  0.24535711700E+02 -0.31627157932E+02  0.47787270044E+02  0.19999995436E+02 0.  0.
        -12    1    1    2    0    0 -0.16773344724E+02 -0.24535711700E+02  0.31627157932E+02  0.43400729956E+02  0.00000000000E+00 0.  1.
         11    1    3    3    0    0  0.12664401868E+02  0.16769294566E+02 -0.17876595080E+02  0.27589290800E+02  0.51100000000E-03 0. -1.
        -11    1    3    3    0    0  0.30480519598E+01  0.76212587333E+01 -0.15845483750E+02  0.17845267187E+02  0.51100000000E-03 0.  1.
        -12    1    3    3    0    0  0.10608908965E+01  0.14515840036E+00  0.20949208976E+01  0.23527120569E+01  0.00000000000E+00 0.  1.
</event>
<event>
 7    1  0.4675811E-010  0.4778728E+02  0.7816164E-02  0.1312668E+00
        -11   -1    0    0    0    0  0.00000000000E+00  0.00000000000E+00  0.45593999997E+02  0.45594000000E+02  0.51100000000E-03 0. -1.
         11   -1    0    0    0    0 -0.00000000000E+00 -0.00000000000E+00 -0.45593999997E+02  0.45594000000E+02  0.51100000000E-03 0.  1.
    9900012    2    1    2    0    0  0.31770050371E+02  0.19743066046E+02  0.22011318256E+02  0.47787275480E+02  0.20000020224E+02 0.  0.
        -12    1    1    2    0    0 -0.31770050371E+02 -0.19743066046E+02 -0.22011318256E+02  0.43400724520E+02  0.00000000000E+00 0.  1.
         11    1    3    3    0    0  0.14835216134E+02  0.14655512989E+02  0.13095285362E+02  0.24624260348E+02  0.51100000000E-03 0. -1.
        -11    1    3    3    0    0  0.16816715659E+02  0.32844304521E+01  0.11033307807E+02  0.20379482092E+02  0.51100000000E-03 0.  1.
         12    1    3    3    0    0  0.11811857834E+00  0.18031226042E+01 -0.21172749128E+01  0.27835330393E+01  0.00000000000E+00 0. -1.
</event>
<event>
 7    1  0.4675811E-010  0.4778726E+02  0.7816164E-02  0.1312668E+00
        -11   -1    0    0    0    0  0.00000000000E+00  0.00000000000E+00  0.45593999997E+02  0.45594000000E+02  0.51100000000E-03 0.  1.
         11   -1    0    0    0    0 -0.00000000000E+00 -0.00000000000E+00 -0.45593999997E+02  0.45594000000E+02  0.51100000000E-03 0. -1.
    9900012    2    1    2    0    0 -0.92423654458E+01 -0.28923444259E+02 -0.31010278683E+02  0.47787258868E+02  0.19999944481E+02 0.  0.
        -12    1    1    2    0    0  0.92423654458E+01  0.28923444259E+02  0.31010278683E+02  0.43400741132E+02  0.00000000000E+00 0.  1.
         11    1    3    3    0    0 -0.17085744017E+01 -0.30472299329E+00 -0.98439964116E+00  0.19952757964E+01  0.51100000000E-03 0. -1.
        -11    1    3    3    0    0  0.10495115565E+01  0.19753357721E+01 -0.25873947863E+00  0.22517487201E+01  0.51100000000E-03 0.  1.
         12    1    3    3    0    0 -0.85833026005E+01 -0.30594057038E+02 -0.29767139563E+02  0.43540234351E+02  0.00000000000E+00 0. -1.
</event>
<event>
 7    1  0.4675811E-010  0.4778727E+02  0.7816164E-02  0.1312668E+00
        -11   -1    0    0    0    0  0.00000000000E+00  0.00000000000E+00  0.45593999997E+02  0.45594000000E+02  0.51100000000E-03 0. -1.
         11   -1    0    0    0    0 -0.00000000000E+00 -0.00000000000E+00 -0.45593999997E+02  0.45594000000E+02  0.51100000000E-03 0.  1.
    9900012    2    1    2    0    0  0.41967199624E+02 -0.40772249072E+01 -0.10283683011E+02  0.47787265634E+02  0.19999975330E+02 0.  0.
        -12    1    1    2    0    0 -0.41967199624E+02  0.40772249072E+01  0.10283683011E+02  0.43400734366E+02  0.00000000000E+00 0.  1.
         11    1    3    3    0    0  0.25477940078E+02 -0.78509033246E+01 -0.62649764069E+01  0.27386347753E+02  0.51100000000E-03 0. -1.
        -11    1    3    3    0    0  0.11707846260E+02 -0.14074927018E+01  0.86585464947E+00  0.11823891250E+02  0.51100000000E-03 0.  1.
        -12    1    3    3    0    0  0.47814132872E+01  0.51811711192E+01 -0.48845612541E+01  0.85770266313E+01  0.00000000000E+00 0.  1.
</event>
<event>
 7    1  0.4675811E-010  0.4778728E+02  0.7816164E-02  0.1312668E+00
        -11   -1    0    0    0    0  0.00000000000E+00  0.00000000000E+00  0.45593999997E+02  0.45594000000E+02  0.51100000000E-03 0.  1.
         11   -1    0    0    0    0 -0.00000000000E+00 -0.00000000000E+00 -0.45593999997E+02  0.45594000000E+02  0.51100000000E-03 0. -1.
    9900012    2    1    2    0    0  0.32912193813E+02  0.27814917553E+02 -0.51711313102E+01  0.47787277206E+02  0.20000028091E+02 0.  0.
        -12    1    1    2    0    0 -0.32912193813E+02 -0.27814917553E+02  0.51711313102E+01  0.43400722794E+02  0.00000000000E+00 0.  1.
         11    1    3    3    0    0  0.14019156741E+02  0.10146166383E+02  0.52493267948E+01  0.18084161027E+02  0.51100000000E-03 0.  1.
        -11    1    3    3    0    0  0.11867627909E+02  0.90344587068E+01 -0.71088817396E+00  0.14932092907E+02  0.51100000000E-03 0. -1.
        -12    1    3    3    0    0  0.70254091625E+01  0.86342924633E+01 -0.97095699310E+01  0.14771023271E+02  0.00000000000E+00 0.  1.
</event>
<event>
 7    1  0.4675811E-010  0.4778727E+02  0.7816164E-02  0.1312668E+00
        -11   -1    0    0    0    0  0.00000000000E+00  0.00000000000E+00  0.45593999997E+02  0.45594000000E+02  0.51100000000E-03 0. -1.
         11   -1    0    0    0    0 -0.00000000000E+00 -0.00000000000E+00 -0.45593999997E+02  0.45594000000E+02  0.51100000000E-03 0.  1.
    9900012    2    1    2    0    0  0.13104864117E+02 -0.33358176338E+02  0.24476883596E+02  0.47787271634E+02  0.20000002689E+02 0.  0.
        -12    1    1    2    0    0 -0.13104864117E+02  0.33358176338E+02 -0.24476883596E+02  0.43400728366E+02  0.00000000000E+00 0.  1.
         11    1    3    3    0    0  0.11411975937E+02 -0.97476114503E+01  0.58140284354E+01  0.16095093994E+02  0.51100000000E-03 0. -1.
        -11    1    3    3    0    0  0.34687305164E+01 -0.74576201491E+01  0.10975576140E+02  0.13715373183E+02  0.51100000000E-03 0.  1.
        -12    1    3    3    0    0 -0.17758423373E+01 -0.16152944739E+02  0.76872790201E+01  0.17976804457E+02  0.00000000000E+00 0.  1.
</event>
<event>
 7    1  0.4675811E-010  0.4778729E+02  0.7816164E-02  0.1312668E+00
        -11   -1    0    0    0    0  0.00000000000E+00  0.00000000000E+00  0.45593999997E+02  0.45594000000E+02  0.51100000000E-03 0. -1.
         11   -1    0    0    0    0 -0.00000000000E+00 -0.00000000000E+00 -0.45593999997E+02  0.45594000000E+02  0.51100000000E-03 0.  1.
    9900012    2    1    2    0    0  0.36161123156E+02 -0.12339482374E+02  0.20584746805E+02  0.47787292008E+02  0.20000095580E+02 0.  0.
        -12    1    1    2    0    0 -0.36161123156E+02  0.12339482374E+02 -0.20584746805E+02  0.43400707992E+02  0.00000000000E+00 0.  1.
         11    1    3    3    0    0  0.12552620175E+02 -0.40135924938E+01  0.11287159980E+02  0.17351575681E+02  0.51100000000E-03 0. -1.
        -11    1    3    3    0    0  0.12070841567E+02 -0.74578542818E+01  0.11966863365E+02  0.18561536188E+02  0.51100000000E-03 0.  1.
        -12    1    3    3    0    0  0.11537661414E+02 -0.86803559854E+00 -0.26692765387E+01  0.11874180138E+02  0.00000000000E+00 0.  1.
</event>
<event>
 7    1  0.4675811E-010  0.4778727E+02  0.7816164E-02  0.1312668E+00
        -11   -1    0    0    0    0  0.00000000000E+00  0.00000000000E+00  0.45593999997E+02  0.45594000000E+02  0.51100000000E-03 0.  1.
         11   -1    0    0    0    0 -0.00000000000E+00 -0.00000000000E+00 -0.45593999997E+02  0.45594000000E+02  0.51100000000E-03 0. -1.
    9900012    2    1    2    0    0  0.16466154522E+02 -0.35598569721E+02 -0.18580395974E+02  0.47787268146E+02  0.19999986785E+02 0.  0.
        -12    1    1    2    0    0 -0.16466154522E+02  0.35598569721E+02  0.18580395974E+02  0.43400731854E+02  0.00000000000E+00 0.  1.
         11    1    3    3    0    0  0.65063547972E+01 -0.19440605015E+02 -0.66483727317E+01  0.21551580832E+02  0.51100000000E-03 0. -1.
        -11    1    3    3    0    0  0.10674249225E+02 -0.11817164432E+02 -0.28958129010E+01  0.16185509085E+02  0.51100000000E-03 0.  1.
        -12    1    3    3    0    0 -0.71444949957E+00 -0.43408002736E+01 -0.90362103416E+01  0.10050178229E+02  0.00000000000E+00 0.  1.
</event>
<event>
 7    1  0.4675811E-010  0.4778727E+02  0.7816164E-02  0.1312668E+00
        -11   -1    0    0    0    0  0.00000000000E+00  0.00000000000E+00  0.45593999997E+02  0.45594000000E+02  0.51100000000E-03 0. -1.
         11   -1    0    0    0    0 -0.00000000000E+00 -0.00000000000E+00 -0.45593999997E+02  0.45594000000E+02  0.51100000000E-03 0.  1.
    9900012    2    1    2    0    0 -0.17313157366E+02 -0.24312778641E+02  0.31508203150E+02  0.47787268566E+02  0.19999988701E+02 0.  0.
        -12    1    1    2    0    0  0.17313157366E+02  0.24312778641E+02 -0.31508203150E+02  0.43400731434E+02  0.00000000000E+00 0.  1.
         11    1    3    3    0    0 -0.11247656801E+02 -0.21106351438E+02  0.14735073542E+02  0.28091106192E+02  0.51100000000E-03 0.  1.
        -11    1    3    3    0    0 -0.23814274318E+01 -0.30330325344E+01  0.17640098044E+01  0.42405440475E+01  0.51100000000E-03 0. -1.
        -12    1    3    3    0    0 -0.36840731335E+01 -0.17339466819E+00  0.15009119804E+02  0.15455618327E+02  0.00000000000E+00 0.  1.
</event>
<event>
 7    1  0.4675811E-010  0.4778727E+02  0.7816164E-02  0.1312668E+00
        -11   -1    0    0    0    0  0.00000000000E+00  0.00000000000E+00  0.45593999997E+02  0.45594000000E+02  0.51100000000E-03 0. -1.
         11   -1    0    0    0    0 -0.00000000000E+00 -0.00000000000E+00 -0.45593999997E+02  0.45594000000E+02  0.51100000000E-03 0.  1.
    9900012    2    1    2    0    0 -0.35389853235E+02 -0.40285072299E+00  0.25120102344E+02  0.47787267950E+02  0.19999985892E+02 0.  0.
        -12    1    1    2    0    0  0.35389853235E+02  0.40285072299E+00 -0.25120102344E+02  0.43400732050E+02  0.00000000000E+00 0.  1.
         11    1    3    3    0    0 -0.17348353770E+01  0.70902338710E+00  0.73923619449E+01  0.76262299555E+01  0.51100000000E-03 0. -1.
        -11    1    3    3    0    0 -0.17558601918E+02  0.52430415838E+01  0.12117893436E+02  0.21969008351E+02  0.51100000000E-03 0.  1.
         12    1    3    3    0    0 -0.16096415940E+02 -0.63549156938E+01  0.56098469635E+01  0.18192029643E+02  0.00000000000E+00 0. -1.
</event>
<event>
 7    1  0.4675811E-010  0.4778727E+02  0.7816164E-02  0.1312668E+00
        -11   -1    0    0    0    0  0.00000000000E+00  0.00000000000E+00  0.45593999997E+02  0.45594000000E+02  0.51100000000E-03 0.  1.
         11   -1    0    0    0    0 -0.00000000000E+00 -0.00000000000E+00 -0.45593999997E+02  0.45594000000E+02  0.51100000000E-03 0. -1.
    9900012    2    1    2    0    0  0.88858806668E+01 -0.10799174275E+02 -0.41085790861E+02  0.47787271309E+02  0.20000001205E+02 0.  0.
        -12    1    1    2    0    0 -0.88858806668E+01  0.10799174275E+02  0.41085790861E+02  0.43400728691E+02  0.00000000000E+00 0.  1.
         11    1    3    3    0    0  0.68612991922E+01 -0.74697605163E+01 -0.39041766025E+02  0.40337752087E+02  0.51100000000E-03 0. -1.
        -11    1    3    3    0    0  0.23536241928E+01  0.10875680321E+01 -0.52796141433E-01  0.25932872497E+01  0.51100000000E-03 0.  1.
         12    1    3    3    0    0 -0.32904271822E+00 -0.44169817913E+01 -0.19912286941E+01  0.48562319721E+01  0.00000000000E+00 0. -1.
</event>
<event>
 7    1  0.4675811E-010  0.4778727E+02  0.7816164E-02  0.1312668E+00
        -11   -1    0    0    0    0  0.00000000000E+00  0.00000000000E+00  0.45593999997E+02  0.45594000000E+02  0.51100000000E-03 0.  1.
         11   -1    0    0    0    0 -0.00000000000E+00 -0.00000000000E+00 -0.45593999997E+02  0.45594000000E+02  0.51100000000E-03 0. -1.
    9900012    2    1    2    0    0 -0.24416258727E+02  0.35557341307E+02  0.48109386624E+01  0.47787270261E+02  0.19999996429E+02 0.  0.
        -12    1    1    2    0    0  0.24416258727E+02 -0.35557341307E+02 -0.48109386624E+01  0.43400729739E+02  0.00000000000E+00 0.  1.
         11    1    3    3    0    0 -0.18396052855E+02  0.27891926300E+02 -0.80444990918E+00  0.33421870882E+02  0.51100000000E-03 0. -1.
        -11    1    3    3    0    0 -0.35070235068E+01  0.93271849958E+01  0.30863157910E+01  0.10431727529E+02  0.51100000000E-03 0.  1.
        -12    1    3    3    0    0 -0.25131823650E+01 -0.16617699882E+01  0.25290727806E+01  0.39336718499E+01  0.00000000000E+00 0.  1.
</event>
<event>
 7    1  0.4675811E-010  0.4778727E+02  0.7816164E-02  0.1312668E+00
        -11   -1    0    0    0    0  0.00000000000E+00  0.00000000000E+00  0.45593999997E+02  0.45594000000E+02  0.51100000000E-03 0.  1.
         11   -1    0    0    0    0 -0.00000000000E+00 -0.00000000000E+00 -0.45593999997E+02  0.45594000000E+02  0.51100000000E-03 0. -1.
    9900012    2    1    2    0    0 -0.36400788792E+02  0.23024040584E+02  0.53384526992E+01  0.47787274814E+02  0.20000017185E+02 0.  0.
        -12    1    1    2    0    0  0.36400788792E+02 -0.23024040584E+02 -0.53384526992E+01  0.43400725186E+02  0.00000000000E+00 0.  1.
         11    1    3    3    0    0 -0.21903329624E+02  0.11116369951E+02 -0.73286877258E+00  0.24573697858E+02  0.51100000000E-03 0. -1.
        -11    1    3    3    0    0 -0.15136666357E+02  0.90390058590E+01  0.13883428365E+01  0.17684733286E+02  0.51100000000E-03 0.  1.
        -12    1    3    3    0    0  0.63920718962E+00  0.28686647744E+01  0.46829786352E+01  0.55288436691E+01  0.00000000000E+00 0.  1.
</event>
<event>
 7    1  0.4675811E-010  0.4778730E+02  0.7816164E-02  0.1312668E+00
        -11   -1    0    0    0    0  0.00000000000E+00  0.00000000000E+00  0.45593999997E+02  0.45594000000E+02  0.51100000000E-03 0.  1.
         11   -1    0    0    0    0 -0.00000000000E+00 -0.00000000000E+00 -0.45593999997E+02  0.45594000000E+02  0.51100000000E-03 0. -1.
    9900012    2    1    2    0    0 -0.84815870897E+01 -0.37180223258E+02 -0.20719913651E+02  0.47787295596E+02  0.20000111939E+02 0.  0.
        -12    1    1    2    0    0  0.84815870897E+01  0.37180223258E+02  0.20719913651E+02  0.43400704404E+02  0.00000000000E+00 0.  1.
         11    1    3    3    0    0 -0.15548247783E+01 -0.58735302357E+01 -0.90930839990E+01  0.10936179150E+02  0.51100000000E-03 0. -1.
        -11    1    3    3    0    0 -0.14300680127E+01 -0.76810761251E+01  0.31765858463E+01  0.84341403154E+01  0.51100000000E-03 0.  1.
         12    1    3    3    0    0 -0.54966942987E+01 -0.23625616897E+02 -0.14803415498E+02  0.28416976131E+02  0.00000000000E+00 0. -1.
</event>
<event>
 7    1  0.4675811E-010  0.4778727E+02  0.7816164E-02  0.1312668E+00
        -11   -1    0    0    0    0  0.00000000000E+00  0.00000000000E+00  0.45593999997E+02  0.45594000000E+02  0.51100000000E-03 0.  1.
         11   -1    0    0    0    0 -0.00000000000E+00 -0.00000000000E+00 -0.45593999997E+02  0.45594000000E+02  0.51100000000E-03 0. -1.
    9900012    2    1    2    0    0  0.34528450150E+01 -0.54997783193E+01 -0.42912158132E+02  0.47787274017E+02  0.20000013555E+02 0.  0.
        -12    1    1    2    0    0 -0.34528450150E+01  0.54997783193E+01  0.42912158132E+02  0.43400725983E+02  0.00000000000E+00 0.  1.
         11    1    3    3    0    0  0.90658362783E+01 -0.35981293342E+01 -0.13678853647E+02  0.16800207126E+02  0.51100000000E-03 0. -1.
        -11    1    3    3    0    0 -0.56075382081E+01 -0.12319035746E+01 -0.85846325405E+01  0.10327535393E+02  0.51100000000E-03 0.  1.
        -12    1    3    3    0    0 -0.54530551914E-02 -0.66974541044E+00 -0.20648671945E+02  0.20659531499E+02  0.00000000000E+00 0.  1.
</event>
<event>
 7    1  0.4675811E-010  0.4778727E+02  0.7816164E-02  0.1312668E+00
        -11   -1    0    0    0    0  0.00000000000E+00  0.00000000000E+00  0.45593999997E+02  0.45594000000E+02  0.51100000000E-03 0.  1.
         11   -1    0    0    0    0 -0.00000000000E+00 -0.00000000000E+00 -0.45593999997E+02  0.45594000000E+02  0.51100000000E-03 0. -1.
    9900012    2    1    2    0    0 -0.42753764728E+02 -0.65944666779E+01  0.35002762977E+01  0.47787270475E+02  0.19999997404E+02 0.  0.
        -12    1    1    2    0    0  0.42753764728E+02  0.65944666779E+01 -0.35002762977E+01  0.43400729525E+02  0.00000000000E+00 0.  1.
         11    1    3    3    0    0 -0.61479956630E+01 -0.41158884107E+01  0.44490066644E-01  0.73986733749E+01  0.51100000000E-03 0. -1.
        -11    1    3    3    0    0 -0.79805836237E+01 -0.66145592715E+01  0.48257675518E+01  0.11433728266E+02  0.51100000000E-03 0.  1.
         12    1    3    3    0    0 -0.28625185441E+02  0.41359810042E+01 -0.13699813208E+01  0.28954868834E+02  0.00000000000E+00 0. -1.
</event>
<event>
 7    1  0.4675811E-010  0.4778726E+02  0.7816164E-02  0.1312668E+00
        -11   -1    0    0    0    0  0.00000000000E+00  0.00000000000E+00  0.45593999997E+02  0.45594000000E+02  0.51100000000E-03 0. -1.
         11   -1    0    0    0    0 -0.00000000000E+00 -0.00000000000E+00 -0.45593999997E+02  0.45594000000E+02  0.51100000000E-03 0.  1.
    9900012    2    1    2    0    0  0.41095642768E+02 -0.85202867171E+01  0.11053361058E+02  0.47787263475E+02  0.19999965487E+02 0.  0.
        -12    1    1    2    0    0 -0.41095642768E+02  0.85202867171E+01 -0.11053361058E+02  0.43400736525E+02  0.00000000000E+00 0.  1.
         11    1    3    3    0    0  0.22561404552E+02 -0.99770879341E+01  0.33308127103E+01  0.24892841793E+02  0.51100000000E-03 0. -1.
        -11    1    3    3    0    0  0.68420684584E+01 -0.40230206734E+01  0.17770005460E+00  0.79391544700E+01  0.51100000000E-03 0.  1.
        -12    1    3    3    0    0  0.11692169758E+02  0.54798218904E+01  0.75448482933E+01  0.14955267211E+02  0.00000000000E+00 0.  1.
</event>
<event>
 7    1  0.4675811E-010  0.4778727E+02  0.7816164E-02  0.1312668E+00
        -11   -1    0    0    0    0  0.00000000000E+00  0.00000000000E+00  0.45593999997E+02  0.45594000000E+02  0.51100000000E-03 0. -1.
         11   -1    0    0    0    0 -0.00000000000E+00 -0.00000000000E+00 -0.45593999997E+02  0.45594000000E+02  0.51100000000E-03 0.  1.
    9900012    2    1    2    0    0 -0.24099756097E+01  0.28665745115E+02  0.32497550868E+02  0.47787265699E+02  0.19999975629E+02 0.  0.
        -12    1    1    2    0    0  0.24099756097E+01 -0.28665745115E+02 -0.32497550868E+02  0.43400734301E+02  0.00000000000E+00 0.  1.
         11    1    3    3    0    0 -0.35347034527E+00 -0.19324360250E+01  0.98090204029E+00  0.21957730642E+01  0.51100000000E-03 0. -1.
        -11    1    3    3    0    0 -0.65142480545E+01  0.12710557470E+02  0.11139686549E+02  0.18113153110E+02  0.51100000000E-03 0.  1.
         12    1    3    3    0    0  0.44577427901E+01  0.17887623670E+02  0.20376962279E+02  0.27478339525E+02  0.00000000000E+00 0. -1.
</event>
<event>
 7    1  0.4675811E-010  0.4778733E+02  0.7816164E-02  0.1312668E+00
        -11   -1    0    0    0    0  0.00000000000E+00  0.00000000000E+00  0.45593999997E+02  0.45594000000E+02  0.51100000000E-03 0. -1.
         11   -1    0    0    0    0 -0.00000000000E+00 -0.00000000000E+00 -0.45593999997E+02  0.45594000000E+02  0.51100000000E-03 0.  1.
    9900012    2    1    2    0    0 -0.26956882324E+02  0.10590731181E+02  0.32323078882E+02  0.47787325812E+02  0.20000249705E+02 0.  0.
        -12    1    1    2    0    0  0.26956882324E+02 -0.10590731181E+02 -0.32323078882E+02  0.43400674188E+02  0.00000000000E+00 0.  1.
         11    1    3    3    0    0  0.73921426084E+00  0.64117245600E+00  0.47611840711E+01  0.48607009640E+01  0.51100000000E-03 0. -1.
        -11    1    3    3    0    0 -0.34090025401E+01  0.58130741629E+01  0.12070047360E+02  0.13823862451E+02  0.51100000000E-03 0.  1.
         12    1    3    3    0    0 -0.24287094045E+02  0.41364845622E+01  0.15491847451E+02  0.29102762397E+02  0.00000000000E+00 0. -1.
</event>
<event>
 7    1  0.4675811E-010  0.4778727E+02  0.7816164E-02  0.1312668E+00
        -11   -1    0    0    0    0  0.00000000000E+00  0.00000000000E+00  0.45593999997E+02  0.45594000000E+02  0.51100000000E-03 0.  1.
         11   -1    0    0    0    0 -0.00000000000E+00 -0.00000000000E+00 -0.45593999997E+02  0.45594000000E+02  0.51100000000E-03 0. -1.
    9900012    2    1    2    0    0  0.15899014515E+02 -0.38439851664E+02  0.12378302893E+02  0.47787271423E+02  0.20000001726E+02 0.  0.
        -12    1    1    2    0    0 -0.15899014515E+02  0.38439851664E+02 -0.12378302893E+02  0.43400728577E+02  0.00000000000E+00 0.  1.
         11    1    3    3    0    0  0.68962777972E+01 -0.33687346371E+02  0.10590921447E+02  0.35980044057E+02  0.51100000000E-03 0. -1.
        -11    1    3    3    0    0  0.69377259709E+01 -0.60711442595E+01  0.15007415399E+01  0.93403993329E+01  0.51100000000E-03 0.  1.
        -12    1    3    3    0    0  0.20650107467E+01  0.13186389666E+01  0.28663990614E+00  0.24668280329E+01  0.00000000000E+00 0.  1.
</event>
<event>
 7    1  0.4675811E-010  0.4778727E+02  0.7816164E-02  0.1312668E+00
        -11   -1    0    0    0    0  0.00000000000E+00  0.00000000000E+00  0.45593999997E+02  0.45594000000E+02  0.51100000000E-03 0. -1.
         11   -1    0    0    0    0 -0.00000000000E+00 -0.00000000000E+00 -0.45593999997E+02  0.45594000000E+02  0.51100000000E-03 0.  1.
    9900012    2    1    2    0    0 -0.39021758836E+02  0.18612105891E+02 -0.38098744613E+01  0.47787270838E+02  0.19999999058E+02 0.  0.
        -12    1    1    2    0    0  0.39021758836E+02 -0.18612105891E+02  0.38098744613E+01  0.43400729162E+02  0.00000000000E+00 0.  1.
         11    1    3    3    0    0 -0.86821589486E+01  0.39084833230E+01  0.30540554520E+01  0.99991690085E+01  0.51100000000E-03 0. -1.
        -11    1    3    3    0    0 -0.11585657307E+02  0.13712797882E+02 -0.62135353616E+01  0.18996744535E+02  0.51100000000E-03 0.  1.
        -12    1    3    3    0    0 -0.18753942581E+02  0.99082468654E+00 -0.65039455181E+00  0.18791357294E+02  0.00000000000E+00 0.  1.
</event>
<event>
 7    1  0.4675811E-010  0.4778727E+02  0.7816164E-02  0.1312668E+00
        -11   -1    0    0    0    0  0.00000000000E+00  0.00000000000E+00  0.45593999997E+02  0.45594000000E+02  0.51100000000E-03 0.  1.
         11   -1    0    0    0    0 -0.00000000000E+00 -0.00000000000E+00 -0.45593999997E+02  0.45594000000E+02  0.51100000000E-03 0. -1.
    9900012    2    1    2    0    0  0.14363475090E+02 -0.40582979194E+02  0.55077746083E+01  0.47787271917E+02  0.20000003980E+02 0.  0.
        -12    1    1    2    0    0 -0.14363475090E+02  0.40582979194E+02 -0.55077746083E+01  0.43400728083E+02  0.00000000000E+00 0.  1.
         11    1    3    3    0    0  0.11708189145E+01 -0.10357186144E+02 -0.42526551205E+01  0.11257317513E+02  0.51100000000E-03 0. -1.
        -11    1    3    3    0    0  0.97706159849E+01 -0.23569998444E+02  0.17611913026E+01  0.25575604752E+02  0.51100000000E-03 0.  1.
        -12    1    3    3    0    0  0.34220401908E+01 -0.66557946069E+01  0.79992384262E+01  0.10954349653E+02  0.00000000000E+00 0.  1.
</event>
<event>
 7    1  0.4675811E-010  0.4778728E+02  0.7816164E-02  0.1312668E+00
        -11   -1    0    0    0    0  0.00000000000E+00  0.00000000000E+00  0.45593999997E+02  0.45594000000E+02  0.51100000000E-03 0.  1.
         11   -1    0    0    0    0 -0.00000000000E+00 -0.00000000000E+00 -0.45593999997E+02  0.45594000000E+02  0.51100000000E-03 0. -1.
    9900012    2    1    2    0    0 -0.97119322843E+01 -0.37601774598E+00 -0.42298462164E+02  0.47787275127E+02  0.20000018614E+02 0.  0.
        -12    1    1    2    0    0  0.97119322843E+01  0.37601774598E+00  0.42298462164E+02  0.43400724873E+02  0.00000000000E+00 0.  1.
         11    1    3    3    0    0  0.17628940444E+00 -0.38307152178E+01 -0.99294003310E+01  0.10644174380E+02  0.51100000000E-03 0. -1.
        -11    1    3    3    0    0 -0.31430076531E+01 -0.56893370424E+01 -0.15461148228E+02  0.16771826313E+02  0.51100000000E-03 0.  1.
         12    1    3    3    0    0 -0.67452140356E+01  0.91440345142E+01 -0.16907913605E+02  0.20371274434E+02  0.00000000000E+00 0. -1.
</event>
<event>
 7    1  0.4675811E-010  0.4778732E+02  0.7816164E-02  0.1312668E+00
        -11   -1    0    0    0    0  0.00000000000E+00  0.00000000000E+00  0.45593999997E+02  0.45594000000E+02  0.51100000000E-03 0.  1.
         11   -1    0    0    0    0 -0.00000000000E+00 -0.00000000000E+00 -0.45593999997E+02  0.45594000000E+02  0.51100000000E-03 0. -1.
    9900012    2    1    2    0    0 -0.16509935710E+02  0.22821410804E+02 -0.33018543563E+02  0.47787320429E+02  0.20000225162E+02 0.  0.
        -12    1    1    2    0    0  0.16509935710E+02 -0.22821410804E+02  0.33018543563E+02  0.43400679571E+02  0.00000000000E+00 0.  1.
         11    1    3    3    0    0 -0.90226228902E+01  0.74747428153E+01 -0.18947582766E+02  0.22277576100E+02  0.51100000000E-03 0. -1.
        -11    1    3    3    0    0 -0.55909410375E+01  0.14894915747E+02 -0.16142693981E+02  0.22665032672E+02  0.51100000000E-03 0.  1.
        -12    1    3    3    0    0 -0.18963717822E+01  0.45175224097E+00  0.20717331838E+01  0.28447116565E+01  0.00000000000E+00 0.  1.
</event>
<event>
 7    1  0.4675811E-010  0.4778727E+02  0.7816164E-02  0.1312668E+00
        -11   -1    0    0    0    0  0.00000000000E+00  0.00000000000E+00  0.45593999997E+02  0.45594000000E+02  0.51100000000E-03 0.  1.
         11   -1    0    0    0    0 -0.00000000000E+00 -0.00000000000E+00 -0.45593999997E+02  0.45594000000E+02  0.51100000000E-03 0. -1.
    9900012    2    1    2    0    0 -0.11529958588E+02  0.19646835011E+02 -0.36941647433E+02  0.47787269752E+02  0.19999994108E+02 0.  0.
        -12    1    1    2    0    0  0.11529958588E+02 -0.19646835011E+02  0.36941647433E+02  0.43400730248E+02  0.00000000000E+00 0.  1.
         11    1    3    3    0    0 -0.15008101539E+02  0.18157694999E+02 -0.27458241047E+02  0.36178723045E+02  0.51100000000E-03 0. -1.
        -11    1    3    3    0    0  0.13168248271E+01  0.34167258394E+01 -0.64347148614E+01  0.74036206478E+01  0.51100000000E-03 0.  1.
         12    1    3    3    0    0  0.21613181237E+01 -0.19275858278E+01 -0.30486915243E+01  0.42049260595E+01  0.00000000000E+00 0. -1.
</event>
<event>
 7    1  0.4675811E-010  0.4778727E+02  0.7816164E-02  0.1312668E+00
        -11   -1    0    0    0    0  0.00000000000E+00  0.00000000000E+00  0.45593999997E+02  0.45594000000E+02  0.51100000000E-03 0. -1.
         11   -1    0    0    0    0 -0.00000000000E+00 -0.00000000000E+00 -0.45593999997E+02  0.45594000000E+02  0.51100000000E-03 0.  1.
    9900012    2    1    2    0    0  0.37647884656E+02  0.81531993470E+01  0.19994638350E+02  0.47787269114E+02  0.19999991199E+02 0.  0.
        -12    1    1    2    0    0 -0.37647884656E+02 -0.81531993470E+01 -0.19994638350E+02  0.43400730886E+02  0.00000000000E+00 0.  1.
         11    1    3    3    0    0  0.93353674298E+01 -0.22381971694E+01  0.76300840212E+01  0.12262821619E+02  0.51100000000E-03 0. -1.
        -11    1    3    3    0    0  0.31470135926E+01 -0.15363276209E+01 -0.21607291148E+01  0.41149420019E+01  0.51100000000E-03 0.  1.
        -12    1    3    3    0    0  0.25165503634E+02  0.11927724137E+02  0.14525283444E+02  0.31409505494E+02  0.00000000000E+00 0.  1.
</event>
<event>
 7    1  0.4675811E-010  0.4778727E+02  0.7816164E-02  0.1312668E+00
        -11   -1    0    0    0    0  0.00000000000E+00  0.00000000000E+00  0.45593999997E+02  0.45594000000E+02  0.51100000000E-03 0.  1.
         11   -1    0    0    0    0 -0.00000000000E+00 -0.00000000000E+00 -0.45593999997E+02  0.45594000000E+02  0.51100000000E-03 0. -1.
    9900012    2    1    2    0    0 -0.35960650478E+02  0.20156835113E+02 -0.13570437361E+02  0.47787272417E+02  0.20000006257E+02 0.  0.
        -12    1    1    2    0    0  0.35960650478E+02 -0.20156835113E+02  0.13570437361E+02  0.43400727583E+02  0.00000000000E+00 0.  1.
         11    1    3    3    0    0 -0.22757255484E+02  0.18286808870E+01 -0.37523225007E+01  0.23136911535E+02  0.51100000000E-03 0. -1.
        -11    1    3    3    0    0 -0.28677272168E+01  0.34810079628E+01 -0.22573490967E+01  0.50435008707E+01  0.51100000000E-03 0.  1.
         12    1    3    3    0    0 -0.10335667777E+02  0.14847146263E+02 -0.75607657640E+01  0.19606860011E+02  0.00000000000E+00 0. -1.
</event>
<event>
 7    1  0.4675811E-010  0.4778727E+02  0.7816164E-02  0.1312668E+00
        -11   -1    0    0    0    0  0.00000000000E+00  0.00000000000E+00  0.45593999997E+02  0.45594000000E+02  0.51100000000E-03 0. -1.
         11   -1    0    0    0    0 -0.00000000000E+00 -0.00000000000E+00 -0.45593999997E+02  0.45594000000E+02  0.51100000000E-03 0.  1.
    9900012    2    1    2    0    0 -0.59313050183E+01  0.15851686358E+02  0.39964572284E+02  0.47787269851E+02  0.19999994560E+02 0.  0.
        -12    1    1    2    0    0  0.59313050183E+01 -0.15851686358E+02 -0.39964572284E+02  0.43400730149E+02  0.00000000000E+00 0.  1.
         11    1    3    3    0    0  0.38294171233E+00  0.11223935817E+02  0.20168508186E+02  0.23084455859E+02  0.51100000000E-03 0. -1.
        -11    1    3    3    0    0  0.14075159199E+01  0.32765061350E+01  0.15206438056E+02  0.15618974106E+02  0.51100000000E-03 0.  1.
        -12    1    3    3    0    0 -0.77217626505E+01  0.13512444058E+01  0.45896260416E+01  0.90838398862E+01  0.00000000000E+00 0.  1.
</event>
<event>
 7    1  0.4675811E-010  0.4778727E+02  0.7816164E-02  0.1312668E+00
        -11   -1    0    0    0    0  0.00000000000E+00  0.00000000000E+00  0.45593999997E+02  0.45594000000E+02  0.51100000000E-03 0. -1.
         11   -1    0    0    0    0 -0.00000000000E+00 -0.00000000000E+00 -0.45593999997E+02  0.45594000000E+02  0.51100000000E-03 0.  1.
    9900012    2    1    2    0    0  0.16819210766E+02  0.20819298814E+02  0.34165690943E+02  0.47787268537E+02  0.19999988568E+02 0.  0.
        -12    1    1    2    0    0 -0.16819210766E+02 -0.20819298814E+02 -0.34165690943E+02  0.43400731463E+02  0.00000000000E+00 0.  1.
         11    1    3    3    0    0  0.60227478970E+00 -0.12954951902E+01  0.20871400576E+00  0.14438159535E+01  0.51100000000E-03 0. -1.
        -11    1    3    3    0    0  0.10781772668E+02  0.79070462981E+01  0.63027618996E+01  0.14781502321E+02  0.51100000000E-03 0.  1.
         12    1    3    3    0    0  0.54351633079E+01  0.14207747706E+02  0.27654215038E+02  0.31561950263E+02  0.00000000000E+00 0. -1.
</event>
<event>
 7    1  0.4675811E-010  0.4778731E+02  0.7816164E-02  0.1312668E+00
        -11   -1    0    0    0    0  0.00000000000E+00  0.00000000000E+00  0.45593999997E+02  0.45594000000E+02  0.51100000000E-03 0.  1.
         11   -1    0    0    0    0 -0.00000000000E+00 -0.00000000000E+00 -0.45593999997E+02  0.45594000000E+02  0.51100000000E-03 0. -1.
    9900012    2    1    2    0    0  0.34860006065E+02  0.24650537688E+02 -0.77943032203E+01  0.47787306528E+02  0.20000161782E+02 0.  0.
        -12    1    1    2    0    0 -0.34860006065E+02 -0.24650537688E+02  0.77943032203E+01  0.43400693472E+02  0.00000000000E+00 0.  1.
         11    1    3    3    0    0  0.47932889258E+01  0.56421243766E+01 -0.19521208361E+01  0.76563674302E+01  0.51100000000E-03 0. -1.
        -11    1    3    3    0    0  0.14081613670E+02  0.83579275365E+01 -0.11612396719E+02  0.20074724259E+02  0.51100000000E-03 0.  1.
         12    1    3    3    0    0  0.15985103469E+02  0.10650485775E+02  0.57702143351E+01  0.20056214838E+02  0.00000000000E+00 0. -1.
</event>
<event>
 7    1  0.4675811E-010  0.4778729E+02  0.7816164E-02  0.1312668E+00
        -11   -1    0    0    0    0  0.00000000000E+00  0.00000000000E+00  0.45593999997E+02  0.45594000000E+02  0.51100000000E-03 0.  1.
         11   -1    0    0    0    0 -0.00000000000E+00 -0.00000000000E+00 -0.45593999997E+02  0.45594000000E+02  0.51100000000E-03 0. -1.
    9900012    2    1    2    0    0 -0.10671718798E+02 -0.34261605101E+02 -0.24410629664E+02  0.47787285642E+02  0.20000066555E+02 0.  0.
        -12    1    1    2    0    0  0.10671718798E+02  0.34261605101E+02  0.24410629664E+02  0.43400714358E+02  0.00000000000E+00 0.  1.
         11    1    3    3    0    0 -0.50775738792E+01 -0.23284370838E+02 -0.15439122491E+02  0.28395601514E+02  0.51100000000E-03 0. -1.
        -11    1    3    3    0    0 -0.75869688146E+01 -0.12308987879E+02 -0.62139685019E+01  0.15738064786E+02  0.51100000000E-03 0.  1.
        -12    1    3    3    0    0  0.19928238954E+01  0.13317536157E+01 -0.27575386713E+01  0.36536193418E+01  0.00000000000E+00 0.  1.
</event>
<event>
 7    1  0.4675811E-010  0.4778728E+02  0.7816164E-02  0.1312668E+00
        -11   -1    0    0    0    0  0.00000000000E+00  0.00000000000E+00  0.45593999997E+02  0.45594000000E+02  0.51100000000E-03 0. -1.
         11   -1    0    0    0    0 -0.00000000000E+00 -0.00000000000E+00 -0.45593999997E+02  0.45594000000E+02  0.51100000000E-03 0.  1.
    9900012    2    1    2    0    0 -0.26696370561E+02  0.22223153626E+02  0.26020338830E+02  0.47787276607E+02  0.20000025361E+02 0.  0.
        -12    1    1    2    0    0  0.26696370561E+02 -0.22223153626E+02 -0.26020338830E+02  0.43400723393E+02  0.00000000000E+00 0.  1.
         11    1    3    3    0    0 -0.19991589457E+02  0.17001040246E+02  0.87402057331E+01  0.27660264189E+02  0.51100000000E-03 0. -1.
        -11    1    3    3    0    0 -0.40394076050E+01  0.23790110972E+01  0.36230413783E+01  0.59247731340E+01  0.51100000000E-03 0.  1.
        -12    1    3    3    0    0 -0.26653734992E+01  0.28431022831E+01  0.13657091718E+02  0.14202239284E+02  0.00000000000E+00 0.  1.
</event>
<event>
 7    1  0.4675811E-010  0.4778727E+02  0.7816164E-02  0.1312668E+00
        -11   -1    0    0    0    0  0.00000000000E+00  0.00000000000E+00  0.45593999997E+02  0.45594000000E+02  0.51100000000E-03 0.  1.
         11   -1    0    0    0    0 -0.00000000000E+00 -0.00000000000E+00 -0.45593999997E+02  0.45594000000E+02  0.51100000000E-03 0. -1.
    9900012    2    1    2    0    0 -0.14566211220E+02 -0.10791580618E+02 -0.39433365584E+02  0.47787273707E+02  0.20000012138E+02 0.  0.
        -12    1    1    2    0    0  0.14566211220E+02  0.10791580618E+02  0.39433365584E+02  0.43400726293E+02  0.00000000000E+00 0.  1.
         11    1    3    3    0    0 -0.61859551937E+01  0.16030395166E+01 -0.11405797092E+02  0.13073942975E+02  0.51100000000E-03 0. -1.
        -11    1    3    3    0    0 -0.56334794545E+00 -0.11713795369E+01  0.16117130583E+01  0.20705337888E+01  0.51100000000E-03 0.  1.
        -12    1    3    3    0    0 -0.78169080805E+01 -0.11223240598E+02 -0.29639281550E+02  0.32642796943E+02  0.00000000000E+00 0.  1.
</event>
<event>
 7    1  0.4675811E-010  0.4778727E+02  0.7816164E-02  0.1312668E+00
        -11   -1    0    0    0    0  0.00000000000E+00  0.00000000000E+00  0.45593999997E+02  0.45594000000E+02  0.51100000000E-03 0.  1.
         11   -1    0    0    0    0 -0.00000000000E+00 -0.00000000000E+00 -0.45593999997E+02  0.45594000000E+02  0.51100000000E-03 0. -1.
    9900012    2    1    2    0    0 -0.27492798627E+02  0.21343996952E+02 -0.25926874577E+02  0.47787274113E+02  0.20000013989E+02 0.  0.
        -12    1    1    2    0    0  0.27492798627E+02 -0.21343996952E+02  0.25926874577E+02  0.43400725887E+02  0.00000000000E+00 0.  1.
         11    1    3    3    0    0 -0.10557380461E+02  0.14116144892E+02 -0.81316678476E+01  0.19412569409E+02  0.51100000000E-03 0. -1.
        -11    1    3    3    0    0 -0.51337345850E+01  0.59188103952E+00  0.94678829303E+00  0.52537569687E+01  0.51100000000E-03 0.  1.
        -12    1    3    3    0    0 -0.11801683580E+02  0.66359710201E+01 -0.18741995022E+02  0.23120947734E+02  0.00000000000E+00 0.  1.
</event>
<event>
 7    1  0.4675811E-010  0.4778727E+02  0.7816164E-02  0.1312668E+00
        -11   -1    0    0    0    0  0.00000000000E+00  0.00000000000E+00  0.45593999997E+02  0.45594000000E+02  0.51100000000E-03 0. -1.
         11   -1    0    0    0    0 -0.00000000000E+00 -0.00000000000E+00 -0.45593999997E+02  0.45594000000E+02  0.51100000000E-03 0.  1.
    9900012    2    1    2    0    0 -0.39153729334E+02  0.39666914756E+00  0.18720343299E+02  0.47787272812E+02  0.20000008059E+02 0.  0.
        -12    1    1    2    0    0  0.39153729334E+02 -0.39666914756E+00 -0.18720343299E+02  0.43400727188E+02  0.00000000000E+00 0.  1.
         11    1    3    3    0    0 -0.14730946730E+02 -0.26660071685E+01  0.82685593059E+01  0.17101972373E+02  0.51100000000E-03 0. -1.
        -11    1    3    3    0    0 -0.11525855508E+02  0.48379759858E+01  0.12299243098E+02  0.17536326236E+02  0.51100000000E-03 0.  1.
        -12    1    3    3    0    0 -0.12896927096E+02 -0.17752996697E+01 -0.18474591042E+01  0.13148974203E+02  0.00000000000E+00 0.  1.
</event>
<event>
 7    1  0.4675811E-010  0.4778727E+02  0.7816164E-02  0.1312668E+00
        -11   -1    0    0    0    0  0.00000000000E+00  0.00000000000E+00  0.45593999997E+02  0.45594000000E+02  0.51100000000E-03 0.  1.
         11   -1    0    0    0    0 -0.00000000000E+00 -0.00000000000E+00 -0.45593999997E+02  0.45594000000E+02  0.51100000000E-03 0. -1.
    9900012    2    1    2    0    0 -0.56927376719E+01 -0.11116048920E+02 -0.41565004249E+02  0.47787269775E+02  0.19999994214E+02 0.  0.
        -12    1    1    2    0    0  0.56927376719E+01  0.11116048920E+02  0.41565004249E+02  0.43400730225E+02  0.00000000000E+00 0.  1.
         11    1    3    3    0    0  0.52576476511E+00 -0.63704428988E+01 -0.79250758500E+01  0.10181640281E+02  0.51100000000E-03 0. -1.
        -11    1    3    3    0    0 -0.29305017246E+01  0.62308968743E+00  0.36923745581E+00  0.30186781339E+01  0.51100000000E-03 0.  1.
        -12    1    3    3    0    0 -0.32880007125E+01 -0.53686957091E+01 -0.34009165855E+02  0.34586951361E+02  0.00000000000E+00 0.  1.
</event>
<event>
 7    1  0.4675811E-010  0.4778729E+02  0.7816164E-02  0.1312668E+00
        -11   -1    0    0    0    0  0.00000000000E+00  0.00000000000E+00  0.45593999997E+02  0.45594000000E+02  0.51100000000E-03 0.  1.
         11   -1    0    0    0    0 -0.00000000000E+00 -0.00000000000E+00 -0.45593999997E+02  0.45594000000E+02  0.51100000000E-03 0. -1.
    9900012    2    1    2    0    0 -0.40266153992E+02  0.11754713192E+02 -0.11139335491E+02  0.47787294537E+02  0.20000107111E+02 0.  0.
        -12    1    1    2    0    0  0.40266153992E+02 -0.11754713192E+02  0.11139335491E+02  0.43400705463E+02  0.00000000000E+00 0.  1.
         11    1    3    3    0    0 -0.17569989339E+02  0.11588066275E+02 -0.77203590716E+01  0.22418558157E+02  0.51100000000E-03 0. -1.
        -11    1    3    3    0    0  0.62276430127E+00  0.14881018866E+01 -0.97490280849E+00  0.18848656045E+01  0.51100000000E-03 0.  1.
         12    1    3    3    0    0 -0.23318928954E+02 -0.13214549692E+01 -0.24440736114E+01  0.23483870776E+02  0.00000000000E+00 0. -1.
</event>
<event>
 7    1  0.4675811E-010  0.4778727E+02  0.7816164E-02  0.1312668E+00
        -11   -1    0    0    0    0  0.00000000000E+00  0.00000000000E+00  0.45593999997E+02  0.45594000000E+02  0.51100000000E-03 0.  1.
         11   -1    0    0    0    0 -0.00000000000E+00 -0.00000000000E+00 -0.45593999997E+02  0.45594000000E+02  0.51100000000E-03 0. -1.
    9900012    2    1    2    0    0 -0.10636479924E+02 -0.36178442586E+02 -0.21485076635E+02  0.47787274993E+02  0.20000018001E+02 0.  0.
        -12    1    1    2    0    0  0.10636479924E+02  0.36178442586E+02  0.21485076635E+02  0.43400725007E+02  0.00000000000E+00 0.  1.
         11    1    3    3    0    0  0.15272345071E+00 -0.12260595149E+02 -0.10580904459E+02  0.16195711077E+02  0.51100000000E-03 0. -1.
        -11    1    3    3    0    0  0.28424840427E+01 -0.83631353734E+01 -0.46602119963E+01  0.99869577409E+01  0.51100000000E-03 0.  1.
         12    1    3    3    0    0 -0.13631687417E+02 -0.15554712064E+02 -0.62439601804E+01  0.21604606175E+02  0.00000000000E+00 0. -1.
</event>
<event>
 7    1  0.4675811E-010  0.4778727E+02  0.7816164E-02  0.1312668E+00
        -11   -1    0    0    0    0  0.00000000000E+00  0.00000000000E+00  0.45593999997E+02  0.45594000000E+02  0.51100000000E-03 0. -1.
         11   -1    0    0    0    0 -0.00000000000E+00 -0.00000000000E+00 -0.45593999997E+02  0.45594000000E+02  0.51100000000E-03 0.  1.
    9900012    2    1    2    0    0  0.35697388609E+02 -0.16553682714E+02  0.18311073850E+02  0.47787269702E+02  0.19999993878E+02 0.  0.
        -12    1    1    2    0    0 -0.35697388609E+02  0.16553682714E+02 -0.18311073850E+02  0.43400730298E+02  0.00000000000E+00 0.  1.
         11    1    3    3    0    0  0.10610682606E+02 -0.55299322617E+01  0.24574752210E+01  0.12214987552E+02  0.51100000000E-03 0. -1.
        -11    1    3    3    0    0 -0.18507083377E+00  0.17008309960E+01 -0.15877295844E+01  0.23340871416E+01  0.51100000000E-03 0.  1.
        -12    1    3    3    0    0  0.25271776837E+02 -0.12724581448E+02  0.17441328213E+02  0.33238195008E+02  0.00000000000E+00 0.  1.
</event>
<event>
 7    1  0.4675811E-010  0.4778727E+02  0.7816164E-02  0.1312668E+00
        -11   -1    0    0    0    0  0.00000000000E+00  0.00000000000E+00  0.45593999997E+02  0.45594000000E+02  0.51100000000E-03 0.  1.
         11   -1    0    0    0    0 -0.00000000000E+00 -0.00000000000E+00 -0.45593999997E+02  0.45594000000E+02  0.51100000000E-03 0. -1.
    9900012    2    1    2    0    0  0.10621917115E+02 -0.24896314863E+01 -0.42007141200E+02  0.47787270744E+02  0.19999998629E+02 0.  0.
        -12    1    1    2    0    0 -0.10621917115E+02  0.24896314863E+01  0.42007141200E+02  0.43400729256E+02  0.00000000000E+00 0.  1.
         11    1    3    3    0    0 -0.21324753964E+01 -0.20537935398E+01 -0.27999051297E+01  0.40749218663E+01  0.51100000000E-03 0.  1.
        -11    1    3    3    0    0  0.71380858054E+01 -0.69088481474E+01 -0.27225713260E+02  0.28981440863E+02  0.51100000000E-03 0. -1.
        -12    1    3    3    0    0  0.56163067063E+01  0.64730102009E+01 -0.11981522810E+02  0.14730908015E+02  0.00000000000E+00 0.  1.
</event>
<event>
 7    1  0.4675811E-010  0.4778730E+02  0.7816164E-02  0.1312668E+00
        -11   -1    0    0    0    0  0.00000000000E+00  0.00000000000E+00  0.45593999997E+02  0.45594000000E+02  0.51100000000E-03 0. -1.
         11   -1    0    0    0    0 -0.00000000000E+00 -0.00000000000E+00 -0.45593999997E+02  0.45594000000E+02  0.51100000000E-03 0.  1.
    9900012    2    1    2    0    0 -0.28770710072E+02 -0.31071102179E+02  0.95107330928E+01  0.47787295022E+02  0.20000109321E+02 0.  0.
        -12    1    1    2    0    0  0.28770710072E+02  0.31071102179E+02 -0.95107330928E+01  0.43400704978E+02  0.00000000000E+00 0.  1.
         11    1    3    3    0    0 -0.18296191501E+02 -0.99949166914E+01  0.59361394674E+01  0.21676870972E+02  0.51100000000E-03 0. -1.
        -11    1    3    3    0    0 -0.72560977536E+00  0.12190803074E+01  0.77450601685E+00  0.16163310840E+01  0.51100000000E-03 0.  1.
         12    1    3    3    0    0 -0.97489087952E+01 -0.22295265795E+02  0.28000876086E+01  0.24494092965E+02  0.00000000000E+00 0. -1.
</event>
<event>
 7    1  0.4675811E-010  0.4778728E+02  0.7816164E-02  0.1312668E+00
        -11   -1    0    0    0    0  0.00000000000E+00  0.00000000000E+00  0.45593999997E+02  0.45594000000E+02  0.51100000000E-03 0.  1.
         11   -1    0    0    0    0 -0.00000000000E+00 -0.00000000000E+00 -0.45593999997E+02  0.45594000000E+02  0.51100000000E-03 0. -1.
    9900012    2    1    2    0    0  0.18614683426E+02  0.27060100566E+02 -0.28370171590E+02  0.47787284364E+02  0.20000060729E+02 0.  0.
        -12    1    1    2    0    0 -0.18614683426E+02 -0.27060100566E+02  0.28370171590E+02  0.43400715636E+02  0.00000000000E+00 0.  1.
         11    1    3    3    0    0  0.84126971311E+01  0.22089571222E+02 -0.18022636900E+02  0.29724368301E+02  0.51100000000E-03 0. -1.
        -11    1    3    3    0    0 -0.15415257550E+01  0.22868567554E+01 -0.18398876367E+01  0.33152982144E+01  0.51100000000E-03 0.  1.
        -12    1    3    3    0    0  0.11743512050E+02  0.26836725883E+01 -0.85076470529E+01  0.14747617849E+02  0.00000000000E+00 0.  1.
</event>
<event>
 7    1  0.4675811E-010  0.4778727E+02  0.7816164E-02  0.1312668E+00
        -11   -1    0    0    0    0  0.00000000000E+00  0.00000000000E+00  0.45593999997E+02  0.45594000000E+02  0.51100000000E-03 0. -1.
         11   -1    0    0    0    0 -0.00000000000E+00 -0.00000000000E+00 -0.45593999997E+02  0.45594000000E+02  0.51100000000E-03 0.  1.
    9900012    2    1    2    0    0 -0.21759657098E+02  0.35186319117E+02  0.13117294405E+02  0.47787272558E+02  0.20000006900E+02 0.  0.
        -12    1    1    2    0    0  0.21759657098E+02 -0.35186319117E+02 -0.13117294405E+02  0.43400727442E+02  0.00000000000E+00 0.  1.
         11    1    3    3    0    0 -0.53318321066E+01  0.30626965353E+01  0.69385532140E+01  0.92710336342E+01  0.51100000000E-03 0. -1.
        -11    1    3    3    0    0  0.11898799534E+01  0.64216551185E+01  0.30221149398E+01  0.71962940278E+01  0.51100000000E-03 0.  1.
        -12    1    3    3    0    0 -0.17617704945E+02  0.25701967463E+02  0.31566262508E+01  0.31319944896E+02  0.00000000000E+00 0.  1.
</event>
<event>
 7    1  0.4675811E-010  0.4778727E+02  0.7816164E-02  0.1312668E+00
        -11   -1    0    0    0    0  0.00000000000E+00  0.00000000000E+00  0.45593999997E+02  0.45594000000E+02  0.51100000000E-03 0.  1.
         11   -1    0    0    0    0 -0.00000000000E+00 -0.00000000000E+00 -0.45593999997E+02  0.45594000000E+02  0.51100000000E-03 0. -1.
    9900012    2    1    2    0    0  0.37718453699E+02  0.10494549452E+02 -0.18729815386E+02  0.47787270720E+02  0.19999998520E+02 0.  0.
        -12    1    1    2    0    0 -0.37718453699E+02 -0.10494549452E+02  0.18729815386E+02  0.43400729280E+02  0.00000000000E+00 0.  1.
         11    1    3    3    0    0  0.37064411909E+02  0.10065130945E+02 -0.17984348572E+02  0.42408893937E+02  0.51100000000E-03 0. -1.
        -11    1    3    3    0    0  0.21855103684E+01  0.12994221542E+01  0.11502509841E+01  0.27907044080E+01  0.51100000000E-03 0.  1.
         12    1    3    3    0    0 -0.15314685784E+01 -0.87000364674E+00 -0.18957177978E+01  0.25876723751E+01  0.00000000000E+00 0. -1.
</event>
<event>
 7    1  0.4675811E-010  0.4778728E+02  0.7816164E-02  0.1312668E+00
        -11   -1    0    0    0    0  0.00000000000E+00  0.00000000000E+00  0.45593999997E+02  0.45594000000E+02  0.51100000000E-03 0. -1.
         11   -1    0    0    0    0 -0.00000000000E+00 -0.00000000000E+00 -0.45593999997E+02  0.45594000000E+02  0.51100000000E-03 0.  1.
    9900012    2    1    2    0    0 -0.64466730297E+01 -0.42468472141E+02  0.62042002393E+01  0.47787276276E+02  0.20000023853E+02 0.  0.
        -12    1    1    2    0    0  0.64466730297E+01  0.42468472141E+02 -0.62042002393E+01  0.43400723724E+02  0.00000000000E+00 0.  1.
         11    1    3    3    0    0 -0.36477576193E+01 -0.18171044085E+01  0.27083308922E+01  0.48931646778E+01  0.51100000000E-03 0. -1.
        -11    1    3    3    0    0 -0.11743129236E+01 -0.11600130736E+02 -0.48443563157E+01  0.12625760663E+02  0.51100000000E-03 0.  1.
         12    1    3    3    0    0 -0.16246024867E+01 -0.29051236996E+02  0.83402256629E+01  0.30268350936E+02  0.00000000000E+00 0. -1.
</event>
<event>
 7    1  0.4675811E-010  0.4778727E+02  0.7816164E-02  0.1312668E+00
        -11   -1    0    0    0    0  0.00000000000E+00  0.00000000000E+00  0.45593999997E+02  0.45594000000E+02  0.51100000000E-03 0. -1.
         11   -1    0    0    0    0 -0.00000000000E+00 -0.00000000000E+00 -0.45593999997E+02  0.45594000000E+02  0.51100000000E-03 0.  1.
    9900012    2    1    2    0    0  0.37064359281E+02  0.25566988932E+01  0.22434794711E+02  0.47787268993E+02  0.19999990649E+02 0.  0.
        -12    1    1    2    0    0 -0.37064359281E+02 -0.25566988932E+01 -0.22434794711E+02  0.43400731007E+02  0.00000000000E+00 0.  1.
         11    1    3    3    0    0  0.25896518432E+02  0.73393222699E+01  0.11629975531E+02  0.29321521948E+02  0.51100000000E-03 0. -1.
        -11    1    3    3    0    0  0.30178855776E+01 -0.85364204571E+00  0.85990912020E+01  0.91531802049E+01  0.51100000000E-03 0.  1.
        -12    1    3    3    0    0  0.81499552723E+01 -0.39289813310E+01  0.22057279781E+01  0.93125668402E+01  0.00000000000E+00 0.  1.
</event>
<event>
 7    1  0.4675811E-010  0.4778727E+02  0.7816164E-02  0.1312668E+00
        -11   -1    0    0    0    0  0.00000000000E+00  0.00000000000E+00  0.45593999997E+02  0.45594000000E+02  0.51100000000E-03 0. -1.
         11   -1    0    0    0    0 -0.00000000000E+00 -0.00000000000E+00 -0.45593999997E+02  0.45594000000E+02  0.51100000000E-03 0.  1.
    9900012    2    1    2    0    0 -0.21601199997E+01 -0.36650946898E+02  0.23144452731E+02  0.47787265915E+02  0.19999976611E+02 0.  0.
        -12    1    1    2    0    0  0.21601199997E+01  0.36650946898E+02 -0.23144452731E+02  0.43400734085E+02  0.00000000000E+00 0.  1.
         11    1    3    3    0    0  0.22283417651E+01 -0.16601539592E+01  0.53680923060E+01  0.60446698385E+01  0.51100000000E-03 0. -1.
        -11    1    3    3    0    0 -0.43510013172E+01 -0.69587277894E+01  0.94153811718E+01  0.12490176451E+02  0.51100000000E-03 0.  1.
         12    1    3    3    0    0 -0.37460447542E-01 -0.28032065150E+02  0.83609792530E+01  0.29252419625E+02  0.00000000000E+00 0. -1.
</event>
<event>
 7    1  0.4675811E-010  0.4778727E+02  0.7816164E-02  0.1312668E+00
        -11   -1    0    0    0    0  0.00000000000E+00  0.00000000000E+00  0.45593999997E+02  0.45594000000E+02  0.51100000000E-03 0. -1.
         11   -1    0    0    0    0 -0.00000000000E+00 -0.00000000000E+00 -0.45593999997E+02  0.45594000000E+02  0.51100000000E-03 0.  1.
    9900012    2    1    2    0    0 -0.18786531999E+02 -0.27522954002E+01  0.39027093882E+02  0.47787274529E+02  0.20000015888E+02 0.  0.
        -12    1    1    2    0    0  0.18786531999E+02  0.27522954002E+01 -0.39027093882E+02  0.43400725471E+02  0.00000000000E+00 0.  1.
         11    1    3    3    0    0 -0.25265942375E+01  0.33117931188E+01  0.65795762895E+01  0.77873279444E+01  0.51100000000E-03 0. -1.
        -11    1    3    3    0    0 -0.30950869408E+01  0.35461488603E+01  0.16645168672E+02  0.17297871988E+02  0.51100000000E-03 0.  1.
         12    1    3    3    0    0 -0.13164850820E+02 -0.96102373793E+01  0.15802348920E+02  0.22702074597E+02  0.00000000000E+00 0. -1.
</event>
<event>
 7    1  0.4675811E-010  0.4778727E+02  0.7816164E-02  0.1312668E+00
        -11   -1    0    0    0    0  0.00000000000E+00  0.00000000000E+00  0.45593999997E+02  0.45594000000E+02  0.51100000000E-03 0. -1.
         11   -1    0    0    0    0 -0.00000000000E+00 -0.00000000000E+00 -0.45593999997E+02  0.45594000000E+02  0.51100000000E-03 0.  1.
    9900012    2    1    2    0    0 -0.39097617923E+02 -0.83847837084E+00  0.18822774540E+02  0.47787267119E+02  0.19999982104E+02 0.  0.
        -12    1    1    2    0    0  0.39097617923E+02  0.83847837084E+00 -0.18822774540E+02  0.43400732881E+02  0.00000000000E+00 0.  1.
         11    1    3    3    0    0  0.46317159125E+00  0.11604549356E+01  0.58799449440E+01  0.60112341816E+01  0.51100000000E-03 0. -1.
        -11    1    3    3    0    0 -0.13462621347E+02 -0.20385850166E+01  0.40868194945E+01  0.14216191341E+02  0.51100000000E-03 0.  1.
         12    1    3    3    0    0 -0.26098168167E+02  0.39651710161E-01  0.88560101010E+01  0.27559841597E+02  0.00000000000E+00 0. -1.
</event>
<event>
 7    1  0.4675811E-010  0.4778728E+02  0.7816164E-02  0.1312668E+00
        -11   -1    0    0    0    0  0.00000000000E+00  0.00000000000E+00  0.45593999997E+02  0.45594000000E+02  0.51100000000E-03 0. -1.
         11   -1    0    0    0    0 -0.00000000000E+00 -0.00000000000E+00 -0.45593999997E+02  0.45594000000E+02  0.51100000000E-03 0.  1.
    9900012    2    1    2    0    0 -0.39321293269E+02  0.10836740937E+02  0.14833187961E+02  0.47787279689E+02  0.20000039412E+02 0.  0.
        -12    1    1    2    0    0  0.39321293269E+02 -0.10836740937E+02 -0.14833187961E+02  0.43400720311E+02  0.00000000000E+00 0.  1.
         11    1    3    3    0    0 -0.12294093544E+02  0.54258273355E+01  0.11741338945E+02  0.17844981895E+02  0.51100000000E-03 0. -1.
        -11    1    3    3    0    0 -0.84382220338E+01  0.70002553410E+01  0.26531013712E+01  0.11280341887E+02  0.51100000000E-03 0.  1.
         12    1    3    3    0    0 -0.18588977692E+02 -0.15893417398E+01  0.43874764396E+00  0.18661955907E+02  0.00000000000E+00 0. -1.
</event>
<event>
 7    1  0.4675811E-010  0.4778727E+02  0.7816164E-02  0.1312668E+00
        -11   -1    0    0    0    0  0.00000000000E+00  0.00000000000E+00  0.45593999997E+02  0.45594000000E+02  0.51100000000E-03 0.  1.
         11   -1    0    0    0    0 -0.00000000000E+00 -0.00000000000E+00 -0.45593999997E+02  0.45594000000E+02  0.51100000000E-03 0. -1.
    9900012    2    1    2    0    0  0.73555232363E+01  0.11194883015E+02 -0.41281887708E+02  0.47787269816E+02  0.19999994398E+02 0.  0.
        -12    1    1    2    0    0 -0.73555232363E+01 -0.11194883015E+02  0.41281887708E+02  0.43400730184E+02  0.00000000000E+00 0.  1.
         11    1    3    3    0    0  0.53515724184E+01  0.13085062011E+01 -0.54022853191E+01  0.77159706297E+01  0.51100000000E-03 0. -1.
        -11    1    3    3    0    0  0.66649826698E+01  0.48996411958E+01 -0.85282147634E+01  0.11881032158E+02  0.51100000000E-03 0.  1.
         12    1    3    3    0    0 -0.46610318519E+01  0.49867356178E+01 -0.27351387625E+02  0.28190267028E+02  0.00000000000E+00 0. -1.
</event>
<event>
 7    1  0.4675811E-010  0.4778727E+02  0.7816164E-02  0.1312668E+00
        -11   -1    0    0    0    0  0.00000000000E+00  0.00000000000E+00  0.45593999997E+02  0.45594000000E+02  0.51100000000E-03 0.  1.
         11   -1    0    0    0    0 -0.00000000000E+00 -0.00000000000E+00 -0.45593999997E+02  0.45594000000E+02  0.51100000000E-03 0. -1.
    9900012    2    1    2    0    0  0.33300493053E+02 -0.13994893906E+01 -0.27798236701E+02  0.47787269916E+02  0.19999994856E+02 0.  0.
        -12    1    1    2    0    0 -0.33300493053E+02  0.13994893906E+01  0.27798236701E+02  0.43400730084E+02  0.00000000000E+00 0.  1.
         11    1    3    3    0    0  0.11526955076E+02 -0.69677604779E+00 -0.10001374600E+02  0.15276900351E+02  0.51100000000E-03 0. -1.
        -11    1    3    3    0    0  0.38860450605E+01 -0.68691557433E+01 -0.78627243401E+01  0.11140425537E+02  0.51100000000E-03 0.  1.
        -12    1    3    3    0    0  0.17887492916E+02  0.61664424004E+01 -0.99341377601E+01  0.21369944028E+02  0.00000000000E+00 0.  1.
</event>
<event>
 7    1  0.4675811E-010  0.4778727E+02  0.7816164E-02  0.1312668E+00
        -11   -1    0    0    0    0  0.00000000000E+00  0.00000000000E+00  0.45593999997E+02  0.45594000000E+02  0.51100000000E-03 0. -1.
         11   -1    0    0    0    0 -0.00000000000E+00 -0.00000000000E+00 -0.45593999997E+02  0.45594000000E+02  0.51100000000E-03 0.  1.
    9900012    2    1    2    0    0  0.31121508598E+02  0.12017553098E+02 -0.27760639507E+02  0.47787274365E+02  0.20000015138E+02 0.  0.
        -12    1    1    2    0    0 -0.31121508598E+02 -0.12017553098E+02  0.27760639507E+02  0.43400725635E+02  0.00000000000E+00 0.  1.
         11    1    3    3    0    0  0.14362963428E+01  0.25184630482E+01 -0.72273737784E+01  0.77872033043E+01  0.51100000000E-03 0. -1.
        -11    1    3    3    0    0 -0.10455990916E+01  0.14248858225E+01  0.56954161269E+00  0.18568669788E+01  0.51100000000E-03 0.  1.
         12    1    3    3    0    0  0.30730811346E+02  0.80742042270E+01 -0.21102807341E+02  0.38143204081E+02  0.00000000000E+00 0. -1.
</event>
<event>
 7    1  0.4675811E-010  0.4778727E+02  0.7816164E-02  0.1312668E+00
        -11   -1    0    0    0    0  0.00000000000E+00  0.00000000000E+00  0.45593999997E+02  0.45594000000E+02  0.51100000000E-03 0. -1.
         11   -1    0    0    0    0 -0.00000000000E+00 -0.00000000000E+00 -0.45593999997E+02  0.45594000000E+02  0.51100000000E-03 0.  1.
    9900012    2    1    2    0    0 -0.18398191386E+02  0.37060265848E+02  0.13102147348E+02  0.47787274014E+02  0.20000013541E+02 0.  0.
        -12    1    1    2    0    0  0.18398191386E+02 -0.37060265848E+02 -0.13102147348E+02  0.43400725986E+02  0.00000000000E+00 0.  1.
         11    1    3    3    0    0 -0.33725513644E+01  0.89207958014E+01  0.75586189761E+00  0.95669236385E+01  0.51100000000E-03 0. -1.
        -11    1    3    3    0    0 -0.26176230132E+01  0.14149188889E+02 -0.21639547792E+01  0.14551089203E+02  0.51100000000E-03 0.  1.
         12    1    3    3    0    0 -0.12408017008E+02  0.13990281157E+02  0.14510240230E+02  0.23669261173E+02  0.00000000000E+00 0. -1.
</event>
<event>
 7    1  0.4675811E-010  0.4778727E+02  0.7816164E-02  0.1312668E+00
        -11   -1    0    0    0    0  0.00000000000E+00  0.00000000000E+00  0.45593999997E+02  0.45594000000E+02  0.51100000000E-03 0. -1.
         11   -1    0    0    0    0 -0.00000000000E+00 -0.00000000000E+00 -0.45593999997E+02  0.45594000000E+02  0.51100000000E-03 0.  1.
    9900012    2    1    2    0    0 -0.38427534777E+02 -0.20027056892E+02  0.24217179401E+01  0.47787272419E+02  0.20000006265E+02 0.  0.
        -12    1    1    2    0    0  0.38427534777E+02  0.20027056892E+02 -0.24217179401E+01  0.43400727581E+02  0.00000000000E+00 0.  1.
         11    1    3    3    0    0 -0.16754089658E+01 -0.86513128823E+00 -0.21696577245E+01  0.28745194818E+01  0.51100000000E-03 0. -1.
        -11    1    3    3    0    0 -0.13350149660E+02 -0.41927525765E+01 -0.59425487456E+01  0.15202616748E+02  0.51100000000E-03 0.  1.
         12    1    3    3    0    0 -0.23401976151E+02 -0.14969173027E+02  0.10533924410E+02  0.29710136189E+02  0.00000000000E+00 0. -1.
</event>
<event>
 7    1  0.4675811E-010  0.4778727E+02  0.7816164E-02  0.1312668E+00
        -11   -1    0    0    0    0  0.00000000000E+00  0.00000000000E+00  0.45593999997E+02  0.45594000000E+02  0.51100000000E-03 0. -1.
         11   -1    0    0    0    0 -0.00000000000E+00 -0.00000000000E+00 -0.45593999997E+02  0.45594000000E+02  0.51100000000E-03 0.  1.
    9900012    2    1    2    0    0  0.13486949772E+02 -0.30333181903E+02  0.27957530865E+02  0.47787271082E+02  0.20000000172E+02 0.  0.
        -12    1    1    2    0    0 -0.13486949772E+02  0.30333181903E+02 -0.27957530865E+02  0.43400728918E+02  0.00000000000E+00 0.  1.
         11    1    3    3    0    0  0.78600114912E-01  0.38671039934E+00  0.31757169230E+00  0.50653228120E+00  0.51100000000E-03 0. -1.
        -11    1    3    3    0    0  0.44739197443E+01 -0.51613403292E+01 -0.20184739162E+01  0.71224735229E+01  0.51100000000E-03 0.  1.
         12    1    3    3    0    0  0.89344299126E+01 -0.25558551973E+02  0.29658433089E+02  0.40158265278E+02  0.00000000000E+00 0. -1.
</event>
<event>
 7    1  0.4675811E-010  0.4778722E+02  0.7816164E-02  0.1312668E+00
        -11   -1    0    0    0    0  0.00000000000E+00  0.00000000000E+00  0.45593999997E+02  0.45594000000E+02  0.51100000000E-03 0. -1.
         11   -1    0    0    0    0 -0.00000000000E+00 -0.00000000000E+00 -0.45593999997E+02  0.45594000000E+02  0.51100000000E-03 0.  1.
    9900012    2    1    2    0    0 -0.49388883707E+00  0.27956735044E+02  0.33193449130E+02  0.47787216301E+02  0.19999750402E+02 0.  0.
        -12    1    1    2    0    0  0.49388883707E+00 -0.27956735044E+02 -0.33193449130E+02  0.43400783699E+02  0.00000000000E+00 0.  1.
         11    1    3    3    0    0 -0.53879868243E+01  0.69346223066E+01  0.60225187525E+01  0.10648479748E+02  0.51100000000E-03 0. -1.
        -11    1    3    3    0    0  0.24270656378E+01 -0.37989261832E+00 -0.84064178425E-02  0.24566312179E+01  0.51100000000E-03 0.  1.
         12    1    3    3    0    0  0.24670323494E+01  0.21402005356E+02  0.27179336795E+02  0.34682105336E+02  0.00000000000E+00 0. -1.
</event>
<event>
 7    1  0.4675811E-010  0.4778731E+02  0.7816164E-02  0.1312668E+00
        -11   -1    0    0    0    0  0.00000000000E+00  0.00000000000E+00  0.45593999997E+02  0.45594000000E+02  0.51100000000E-03 0.  1.
         11   -1    0    0    0    0 -0.00000000000E+00 -0.00000000000E+00 -0.45593999997E+02  0.45594000000E+02  0.51100000000E-03 0. -1.
    9900012    2    1    2    0    0 -0.20717976417E+02  0.70447921195E+01 -0.37480074938E+02  0.47787312676E+02  0.20000189814E+02 0.  0.
        -12    1    1    2    0    0  0.20717976417E+02 -0.70447921195E+01  0.37480074938E+02  0.43400687324E+02  0.00000000000E+00 0.  1.
         11    1    3    3    0    0 -0.14444979628E+02  0.10812078643E+01 -0.28150686206E+02  0.31658925771E+02  0.51100000000E-03 0. -1.
        -11    1    3    3    0    0 -0.77329097433E+01  0.43338148302E+01 -0.10422570235E+02  0.13682463764E+02  0.51100000000E-03 0.  1.
        -12    1    3    3    0    0  0.14599129543E+01  0.16297694249E+01  0.10931815026E+01  0.24459231407E+01  0.00000000000E+00 0.  1.
</event>
<event>
 7    1  0.4675811E-010  0.4778728E+02  0.7816164E-02  0.1312668E+00
        -11   -1    0    0    0    0  0.00000000000E+00  0.00000000000E+00  0.45593999997E+02  0.45594000000E+02  0.51100000000E-03 0.  1.
         11   -1    0    0    0    0 -0.00000000000E+00 -0.00000000000E+00 -0.45593999997E+02  0.45594000000E+02  0.51100000000E-03 0. -1.
    9900012    2    1    2    0    0  0.35668917150E+02 -0.18721893677E+02 -0.16150595371E+02  0.47787277836E+02  0.20000030966E+02 0.  0.
        -12    1    1    2    0    0 -0.35668917150E+02  0.18721893677E+02  0.16150595371E+02  0.43400722164E+02  0.00000000000E+00 0.  1.
         11    1    3    3    0    0  0.22360826662E+02 -0.98336114014E+01 -0.75960309828E+01  0.25581363708E+02  0.51100000000E-03 0. -1.
        -11    1    3    3    0    0  0.15695306883E+02 -0.75055101460E+01 -0.86832623119E+01  0.19444134985E+02  0.51100000000E-03 0.  1.
        -12    1    3    3    0    0 -0.23872163948E+01 -0.13827721301E+01  0.12869792369E+00  0.27617791430E+01  0.00000000000E+00 0.  1.
</event>
<event>
 7    1  0.4675811E-010  0.4778727E+02  0.7816164E-02  0.1312668E+00
        -11   -1    0    0    0    0  0.00000000000E+00  0.00000000000E+00  0.45593999997E+02  0.45594000000E+02  0.51100000000E-03 0.  1.
         11   -1    0    0    0    0 -0.00000000000E+00 -0.00000000000E+00 -0.45593999997E+02  0.45594000000E+02  0.51100000000E-03 0. -1.
    9900012    2    1    2    0    0 -0.95279069000E+01  0.97276371719E+01 -0.41209407249E+02  0.47787272119E+02  0.20000004898E+02 0.  0.
        -12    1    1    2    0    0  0.95279069000E+01 -0.97276371719E+01  0.41209407249E+02  0.43400727881E+02  0.00000000000E+00 0.  1.
         11    1    3    3    0    0 -0.70834224176E+01 -0.70843600656E+00 -0.19898188770E+02  0.21133259836E+02  0.51100000000E-03 0. -1.
        -11    1    3    3    0    0 -0.46384971898E+01  0.37544823953E+01 -0.17839529380E+02  0.18811182924E+02  0.51100000000E-03 0.  1.
        -12    1    3    3    0    0  0.21940127073E+01  0.66815907832E+01 -0.34716890990E+01  0.78428293590E+01  0.00000000000E+00 0.  1.
</event>
<event>
 7    1  0.4675811E-010  0.4778726E+02  0.7816164E-02  0.1312668E+00
        -11   -1    0    0    0    0  0.00000000000E+00  0.00000000000E+00  0.45593999997E+02  0.45594000000E+02  0.51100000000E-03 0. -1.
         11   -1    0    0    0    0 -0.00000000000E+00 -0.00000000000E+00 -0.45593999997E+02  0.45594000000E+02  0.51100000000E-03 0.  1.
    9900012    2    1    2    0    0  0.21900833884E+02  0.73752936914E+01  0.36736666779E+02  0.47787260745E+02  0.19999953040E+02 0.  0.
        -12    1    1    2    0    0 -0.21900833884E+02 -0.73752936914E+01 -0.36736666779E+02  0.43400739255E+02  0.00000000000E+00 0.  1.
         11    1    3    3    0    0  0.84607201532E+01  0.19046010689E+01  0.14421745405E+02  0.16828488688E+02  0.51100000000E-03 0. -1.
        -11    1    3    3    0    0  0.13261724822E+02  0.63082132866E+01  0.82037933716E+01  0.16821686184E+02  0.51100000000E-03 0.  1.
         12    1    3    3    0    0  0.17838890883E+00 -0.83752066420E+00  0.14111128003E+02  0.14137085873E+02  0.00000000000E+00 0. -1.
</event>
<event>
 7    1  0.4675811E-010  0.4778727E+02  0.7816164E-02  0.1312668E+00
        -11   -1    0    0    0    0  0.00000000000E+00  0.00000000000E+00  0.45593999997E+02  0.45594000000E+02  0.51100000000E-03 0.  1.
         11   -1    0    0    0    0 -0.00000000000E+00 -0.00000000000E+00 -0.45593999997E+02  0.45594000000E+02  0.51100000000E-03 0. -1.
    9900012    2    1    2    0    0  0.17082873144E+02  0.39848464121E+02 -0.19745065175E+01  0.47787270470E+02  0.19999997383E+02 0.  0.
        -12    1    1    2    0    0 -0.17082873144E+02 -0.39848464121E+02  0.19745065175E+01  0.43400729530E+02  0.00000000000E+00 0.  1.
         11    1    3    3    0    0  0.93115110613E+01  0.78333837816E+01 -0.70458053398E+01  0.14060921480E+02  0.51100000000E-03 0. -1.
        -11    1    3    3    0    0  0.16499248480E+01  0.89824291956E+01 -0.84209817540E+00  0.91714456797E+01  0.51100000000E-03 0.  1.
         12    1    3    3    0    0  0.61214372351E+01  0.23032651144E+02  0.59133969977E+01  0.24554903311E+02  0.00000000000E+00 0. -1.
</event>
<event>
 7    1  0.4675811E-010  0.4778727E+02  0.7816164E-02  0.1312668E+00
        -11   -1    0    0    0    0  0.00000000000E+00  0.00000000000E+00  0.45593999997E+02  0.45594000000E+02  0.51100000000E-03 0.  1.
         11   -1    0    0    0    0 -0.00000000000E+00 -0.00000000000E+00 -0.45593999997E+02  0.45594000000E+02  0.51100000000E-03 0. -1.
    9900012    2    1    2    0    0  0.11578936941E+02  0.30524542018E+02 -0.28597268741E+02  0.47787271602E+02  0.20000002540E+02 0.  0.
        -12    1    1    2    0    0 -0.11578936941E+02 -0.30524542018E+02  0.28597268741E+02  0.43400728398E+02  0.00000000000E+00 0.  1.
         11    1    3    3    0    0  0.94137390623E+01  0.21994802170E+02 -0.29246514094E+02  0.37785557989E+02  0.51100000000E-03 0. -1.
        -11    1    3    3    0    0  0.28176136715E+01  0.46929360399E+01 -0.13334694160E+01  0.56338917651E+01  0.51100000000E-03 0.  1.
         12    1    3    3    0    0 -0.65241579304E+00  0.38368038087E+01  0.19827147696E+01  0.43678218475E+01  0.00000000000E+00 0. -1.
</event>
<event>
 7    1  0.4675811E-010  0.4778727E+02  0.7816164E-02  0.1312668E+00
        -11   -1    0    0    0    0  0.00000000000E+00  0.00000000000E+00  0.45593999997E+02  0.45594000000E+02  0.51100000000E-03 0.  1.
         11   -1    0    0    0    0 -0.00000000000E+00 -0.00000000000E+00 -0.45593999997E+02  0.45594000000E+02  0.51100000000E-03 0. -1.
    9900012    2    1    2    0    0 -0.39588578003E+01 -0.34054719506E+01 -0.43085422265E+02  0.47787269522E+02  0.19999993059E+02 0.  0.
        -12    1    1    2    0    0  0.39588578003E+01  0.34054719506E+01  0.43085422265E+02  0.43400730478E+02  0.00000000000E+00 0.  1.
         11    1    3    3    0    0 -0.26165357626E+01  0.19681074612E+01 -0.61749432875E+01  0.69892511216E+01  0.51100000000E-03 0. -1.
        -11    1    3    3    0    0 -0.58290778504E+01 -0.90246554963E+01 -0.17413322510E+02  0.20460849360E+02  0.51100000000E-03 0.  1.
         12    1    3    3    0    0  0.44867558127E+01  0.36510760846E+01 -0.19497156467E+02  0.20337169041E+02  0.00000000000E+00 0. -1.
</event>
<event>
 7    1  0.4675811E-010  0.4778728E+02  0.7816164E-02  0.1312668E+00
        -11   -1    0    0    0    0  0.00000000000E+00  0.00000000000E+00  0.45593999997E+02  0.45594000000E+02  0.51100000000E-03 0. -1.
         11   -1    0    0    0    0 -0.00000000000E+00 -0.00000000000E+00 -0.45593999997E+02  0.45594000000E+02  0.51100000000E-03 0.  1.
    9900012    2    1    2    0    0 -0.11162004641E+02  0.39302590851E+02 -0.14640313267E+02  0.47787276876E+02  0.20000026586E+02 0.  0.
        -12    1    1    2    0    0  0.11162004641E+02 -0.39302590851E+02  0.14640313267E+02  0.43400723124E+02  0.00000000000E+00 0.  1.
         11    1    3    3    0    0 -0.66609879094E+01  0.32235008767E+02 -0.95589620477E+01  0.34275914369E+02  0.51100000000E-03 0. -1.
        -11    1    3    3    0    0  0.95915428862E+00  0.31191777468E+01 -0.58811516609E+01  0.67258599365E+01  0.51100000000E-03 0.  1.
        -12    1    3    3    0    0 -0.54601710206E+01  0.39484043367E+01  0.79980044198E+00  0.67855025700E+01  0.00000000000E+00 0.  1.
</event>
<event>
 7    1  0.4675811E-010  0.4778727E+02  0.7816164E-02  0.1312668E+00
        -11   -1    0    0    0    0  0.00000000000E+00  0.00000000000E+00  0.45593999997E+02  0.45594000000E+02  0.51100000000E-03 0.  1.
         11   -1    0    0    0    0 -0.00000000000E+00 -0.00000000000E+00 -0.45593999997E+02  0.45594000000E+02  0.51100000000E-03 0. -1.
    9900012    2    1    2    0    0  0.16578099438E+02  0.77558488092E+01 -0.39352722120E+02  0.47787270628E+02  0.19999998102E+02 0.  0.
        -12    1    1    2    0    0 -0.16578099438E+02 -0.77558488092E+01  0.39352722120E+02  0.43400729372E+02  0.00000000000E+00 0.  1.
         11    1    3    3    0    0  0.14565512049E+02  0.74034932251E+01 -0.15012065130E+02  0.22188464411E+02  0.51100000000E-03 0. -1.
        -11    1    3    3    0    0 -0.12681770533E+01  0.18418797797E+00 -0.27588026132E+00  0.13108426410E+01  0.51100000000E-03 0.  1.
         12    1    3    3    0    0  0.32807644424E+01  0.16816760620E+00 -0.24064776729E+02  0.24287963577E+02  0.00000000000E+00 0. -1.
</event>
<event>
 7    1  0.4675811E-010  0.4778727E+02  0.7816164E-02  0.1312668E+00
        -11   -1    0    0    0    0  0.00000000000E+00  0.00000000000E+00  0.45593999997E+02  0.45594000000E+02  0.51100000000E-03 0. -1.
         11   -1    0    0    0    0 -0.00000000000E+00 -0.00000000000E+00 -0.45593999997E+02  0.45594000000E+02  0.51100000000E-03 0.  1.
    9900012    2    1    2    0    0  0.12091332513E+02 -0.37162785654E+02  0.18877234262E+02  0.47787274973E+02  0.20000017910E+02 0.  0.
        -12    1    1    2    0    0 -0.12091332513E+02  0.37162785654E+02 -0.18877234262E+02  0.43400725027E+02  0.00000000000E+00 0.  1.
         11    1    3    3    0    0  0.49239107818E+01 -0.21025489153E+02  0.43417999599E+01  0.22026513992E+02  0.51100000000E-03 0. -1.
        -11    1    3    3    0    0  0.35113893949E+01 -0.38399885790E+01 -0.13168998476E+01  0.53674568689E+01  0.51100000000E-03 0.  1.
         12    1    3    3    0    0  0.36560323363E+01 -0.12297307922E+02  0.15852334150E+02  0.20393304111E+02  0.00000000000E+00 0. -1.
</event>
<event>
 7    1  0.4675811E-010  0.4778727E+02  0.7816164E-02  0.1312668E+00
        -11   -1    0    0    0    0  0.00000000000E+00  0.00000000000E+00  0.45593999997E+02  0.45594000000E+02  0.51100000000E-03 0. -1.
         11   -1    0    0    0    0 -0.00000000000E+00 -0.00000000000E+00 -0.45593999997E+02  0.45594000000E+02  0.51100000000E-03 0.  1.
    9900012    2    1    2    0    0 -0.42101891665E+01 -0.24599352502E+02  0.35507315775E+02  0.47787270630E+02  0.19999998111E+02 0.  0.
        -12    1    1    2    0    0  0.42101891665E+01  0.24599352502E+02 -0.35507315775E+02  0.43400729370E+02  0.00000000000E+00 0.  1.
         11    1    3    3    0    0 -0.82729837297E+01 -0.58679907623E+01  0.47285735461E+01  0.11190843731E+02  0.51100000000E-03 0.  1.
        -11    1    3    3    0    0  0.53100385064E-01 -0.32596775404E+01  0.90741722283E+01  0.96420391624E+01  0.51100000000E-03 0. -1.
        -12    1    3    3    0    0  0.40096941781E+01 -0.15471684199E+02  0.21704570000E+02  0.26954387736E+02  0.00000000000E+00 0.  1.
</event>
<event>
 7    1  0.4675811E-010  0.4778727E+02  0.7816164E-02  0.1312668E+00
        -11   -1    0    0    0    0  0.00000000000E+00  0.00000000000E+00  0.45593999997E+02  0.45594000000E+02  0.51100000000E-03 0.  1.
         11   -1    0    0    0    0 -0.00000000000E+00 -0.00000000000E+00 -0.45593999997E+02  0.45594000000E+02  0.51100000000E-03 0. -1.
    9900012    2    1    2    0    0 -0.37293228378E+02 -0.15192288675E+02 -0.16187426656E+02  0.47787270746E+02  0.19999998639E+02 0.  0.
        -12    1    1    2    0    0  0.37293228378E+02  0.15192288675E+02  0.16187426656E+02  0.43400729254E+02  0.00000000000E+00 0.  1.
         11    1    3    3    0    0 -0.46949573118E+01 -0.59176318122E+01 -0.56317058338E+01  0.94221601177E+01  0.51100000000E-03 0. -1.
        -11    1    3    3    0    0 -0.40987825370E-01 -0.12738893868E+01 -0.40079736650E+01  0.42057493188E+01  0.51100000000E-03 0.  1.
         12    1    3    3    0    0 -0.32557283241E+02 -0.80007674756E+01 -0.65477471572E+01  0.34159361309E+02  0.00000000000E+00 0. -1.
</event>
<event>
 7    1  0.4675811E-010  0.4778727E+02  0.7816164E-02  0.1312668E+00
        -11   -1    0    0    0    0  0.00000000000E+00  0.00000000000E+00  0.45593999997E+02  0.45594000000E+02  0.51100000000E-03 0.  1.
         11   -1    0    0    0    0 -0.00000000000E+00 -0.00000000000E+00 -0.45593999997E+02  0.45594000000E+02  0.51100000000E-03 0. -1.
    9900012    2    1    2    0    0  0.15238698493E+02  0.32280160597E+02  0.24685963696E+02  0.47787268399E+02  0.19999987938E+02 0.  0.
        -12    1    1    2    0    0 -0.15238698493E+02 -0.32280160597E+02 -0.24685963696E+02  0.43400731601E+02  0.00000000000E+00 0.  1.
         11    1    3    3    0    0  0.65882468191E+01  0.23858890865E+02  0.18208417496E+02  0.30727807234E+02  0.51100000000E-03 0. -1.
        -11    1    3    3    0    0  0.80908746280E+01  0.10546998875E+02  0.66328294327E+01  0.14855836027E+02  0.51100000000E-03 0.  1.
         12    1    3    3    0    0  0.55957704586E+00 -0.21257291440E+01 -0.15528323252E+00  0.22036251374E+01  0.00000000000E+00 0. -1.
</event>
<event>
 7    1  0.4675811E-010  0.4778727E+02  0.7816164E-02  0.1312668E+00
        -11   -1    0    0    0    0  0.00000000000E+00  0.00000000000E+00  0.45593999997E+02  0.45594000000E+02  0.51100000000E-03 0. -1.
         11   -1    0    0    0    0 -0.00000000000E+00 -0.00000000000E+00 -0.45593999997E+02  0.45594000000E+02  0.51100000000E-03 0.  1.
    9900012    2    1    2    0    0 -0.33398782773E+02 -0.21941575518E+02  0.16932564083E+02  0.47787272433E+02  0.20000006330E+02 0.  0.
        -12    1    1    2    0    0  0.33398782773E+02  0.21941575518E+02 -0.16932564083E+02  0.43400727567E+02  0.00000000000E+00 0.  1.
         11    1    3    3    0    0 -0.11626109484E+02 -0.12322783634E+02  0.62593883127E+01  0.18060934653E+02  0.51100000000E-03 0. -1.
        -11    1    3    3    0    0 -0.11008897717E+02 -0.38967127539E+01 -0.23238298247E+01  0.11907156862E+02  0.51100000000E-03 0.  1.
        -12    1    3    3    0    0 -0.10763775573E+02 -0.57220791298E+01  0.12997005595E+02  0.17819180918E+02  0.00000000000E+00 0.  1.
</event>
<event>
 7    1  0.4675811E-010  0.4778728E+02  0.7816164E-02  0.1312668E+00
        -11   -1    0    0    0    0  0.00000000000E+00  0.00000000000E+00  0.45593999997E+02  0.45594000000E+02  0.51100000000E-03 0.  1.
         11   -1    0    0    0    0 -0.00000000000E+00 -0.00000000000E+00 -0.45593999997E+02  0.45594000000E+02  0.51100000000E-03 0. -1.
    9900012    2    1    2    0    0  0.13361436371E+02  0.26274249671E+02 -0.31855277957E+02  0.47787275220E+02  0.20000019039E+02 0.  0.
        -12    1    1    2    0    0 -0.13361436371E+02 -0.26274249671E+02  0.31855277957E+02  0.43400724780E+02  0.00000000000E+00 0.  1.
         11    1    3    3    0    0  0.13162383244E+02  0.27668762053E+02 -0.28816398156E+02  0.42061782287E+02  0.51100000000E-03 0. -1.
        -11    1    3    3    0    0 -0.15379602324E+00  0.14224715297E+01 -0.24330826570E+01  0.28225821417E+01  0.51100000000E-03 0.  1.
        -12    1    3    3    0    0  0.35284915109E+00 -0.28169839121E+01 -0.60579714459E+00  0.29029107917E+01  0.00000000000E+00 0.  1.
</event>
<event>
 7    1  0.4675811E-010  0.4778727E+02  0.7816164E-02  0.1312668E+00
        -11   -1    0    0    0    0  0.00000000000E+00  0.00000000000E+00  0.45593999997E+02  0.45594000000E+02  0.51100000000E-03 0. -1.
         11   -1    0    0    0    0 -0.00000000000E+00 -0.00000000000E+00 -0.45593999997E+02  0.45594000000E+02  0.51100000000E-03 0.  1.
    9900012    2    1    2    0    0  0.53896925880E+01 -0.24285004416E+02  0.35564213963E+02  0.47787267973E+02  0.19999985995E+02 0.  0.
        -12    1    1    2    0    0 -0.53896925880E+01  0.24285004416E+02 -0.35564213963E+02  0.43400732027E+02  0.00000000000E+00 0.  1.
         11    1    3    3    0    0 -0.12786597180E+01 -0.12351552470E+02  0.85452840003E+01  0.15073742004E+02  0.51100000000E-03 0. -1.
        -11    1    3    3    0    0 -0.19216229461E+01 -0.61818653509E+01  0.17507014080E+02  0.18665573557E+02  0.51100000000E-03 0.  1.
        -12    1    3    3    0    0  0.85899752520E+01 -0.57515865945E+01  0.95119158833E+01  0.14047952412E+02  0.00000000000E+00 0.  1.
</event>
<event>
 7    1  0.4675811E-010  0.4778727E+02  0.7816164E-02  0.1312668E+00
        -11   -1    0    0    0    0  0.00000000000E+00  0.00000000000E+00  0.45593999997E+02  0.45594000000E+02  0.51100000000E-03 0.  1.
         11   -1    0    0    0    0 -0.00000000000E+00 -0.00000000000E+00 -0.45593999997E+02  0.45594000000E+02  0.51100000000E-03 0. -1.
    9900012    2    1    2    0    0 -0.32286104404E+02 -0.27250493536E+02 -0.99318440777E+01  0.47787268874E+02  0.19999990104E+02 0.  0.
        -12    1    1    2    0    0  0.32286104404E+02  0.27250493536E+02  0.99318440777E+01  0.43400731126E+02  0.00000000000E+00 0.  1.
         11    1    3    3    0    0 -0.16432694657E+02 -0.14552093433E+02 -0.18090286582E+01  0.22024292541E+02  0.51100000000E-03 0. -1.
        -11    1    3    3    0    0 -0.13899996976E+01 -0.61685596107E+01  0.23542193097E+01  0.67472643085E+01  0.51100000000E-03 0.  1.
        -12    1    3    3    0    0 -0.14463410049E+02 -0.65298404924E+01 -0.10477034729E+02  0.19015712025E+02  0.00000000000E+00 0.  1.
</event>
<event>
 7    1  0.4675811E-010  0.4778727E+02  0.7816164E-02  0.1312668E+00
        -11   -1    0    0    0    0  0.00000000000E+00  0.00000000000E+00  0.45593999997E+02  0.45594000000E+02  0.51100000000E-03 0.  1.
         11   -1    0    0    0    0 -0.00000000000E+00 -0.00000000000E+00 -0.45593999997E+02  0.45594000000E+02  0.51100000000E-03 0. -1.
    9900012    2    1    2    0    0 -0.37538760640E+02  0.34784254104E+01 -0.21502684420E+02  0.47787269235E+02  0.19999991749E+02 0.  0.
        -12    1    1    2    0    0  0.37538760640E+02 -0.34784254104E+01  0.21502684420E+02  0.43400730765E+02  0.00000000000E+00 0.  1.
         11    1    3    3    0    0 -0.92346112418E+01  0.15635966629E+01 -0.48906263548E+01  0.10566035478E+02  0.51100000000E-03 0. -1.
        -11    1    3    3    0    0 -0.84392821423E+00 -0.44573764349E+01 -0.49498008023E+01  0.67142347112E+01  0.51100000000E-03 0.  1.
        -12    1    3    3    0    0 -0.27460221183E+02  0.63722051825E+01 -0.11662257263E+02  0.30506999046E+02  0.00000000000E+00 0.  1.
</event>
<event>
 7    1  0.4675811E-010  0.4778727E+02  0.7816164E-02  0.1312668E+00
        -11   -1    0    0    0    0  0.00000000000E+00  0.00000000000E+00  0.45593999997E+02  0.45594000000E+02  0.51100000000E-03 0.  1.
         11   -1    0    0    0    0 -0.00000000000E+00 -0.00000000000E+00 -0.45593999997E+02  0.45594000000E+02  0.51100000000E-03 0. -1.
    9900012    2    1    2    0    0  0.15745626306E+02 -0.30968433066E+02 -0.26012590998E+02  0.47787268615E+02  0.19999988924E+02 0.  0.
        -12    1    1    2    0    0 -0.15745626306E+02  0.30968433066E+02  0.26012590998E+02  0.43400731385E+02  0.00000000000E+00 0.  1.
         11    1    3    3    0    0  0.46307361407E+01 -0.72135455494E+01 -0.38013592022E+01  0.93770618342E+01  0.51100000000E-03 0. -1.
        -11    1    3    3    0    0 -0.18938062760E+01  0.14952636986E+01 -0.39934100791E+01  0.46657946869E+01  0.51100000000E-03 0.  1.
        -12    1    3    3    0    0  0.13008696441E+02 -0.25250151215E+02 -0.18217821717E+02  0.33744412094E+02  0.00000000000E+00 0.  1.
</event>
<event>
 7    1  0.4675811E-010  0.4778728E+02  0.7816164E-02  0.1312668E+00
        -11   -1    0    0    0    0  0.00000000000E+00  0.00000000000E+00  0.45593999997E+02  0.45594000000E+02  0.51100000000E-03 0. -1.
         11   -1    0    0    0    0 -0.00000000000E+00 -0.00000000000E+00 -0.45593999997E+02  0.45594000000E+02  0.51100000000E-03 0.  1.
    9900012    2    1    2    0    0  0.22123908483E+02  0.34115888919E+02 -0.15174361209E+02  0.47787280635E+02  0.20000043727E+02 0.  0.
        -12    1    1    2    0    0 -0.22123908483E+02 -0.34115888919E+02  0.15174361209E+02  0.43400719365E+02  0.00000000000E+00 0.  1.
         11    1    3    3    0    0 -0.15011720055E+01  0.94514940306E+01 -0.31700002998E+01  0.10081327242E+02  0.51100000000E-03 0. -1.
        -11    1    3    3    0    0  0.14763505369E+01  0.48179104465E+01 -0.51119663973E+01  0.71780270748E+01  0.51100000000E-03 0.  1.
         12    1    3    3    0    0  0.22148729951E+02  0.19846484442E+02 -0.68923945115E+01  0.30527926318E+02  0.00000000000E+00 0. -1.
</event>
<event>
 7    1  0.4675811E-010  0.4778727E+02  0.7816164E-02  0.1312668E+00
        -11   -1    0    0    0    0  0.00000000000E+00  0.00000000000E+00  0.45593999997E+02  0.45594000000E+02  0.51100000000E-03 0.  1.
         11   -1    0    0    0    0 -0.00000000000E+00 -0.00000000000E+00 -0.45593999997E+02  0.45594000000E+02  0.51100000000E-03 0. -1.
    9900012    2    1    2    0    0  0.63987951396E+01 -0.19685786405E+02 -0.38146410590E+02  0.47787269517E+02  0.19999993034E+02 0.  0.
        -12    1    1    2    0    0 -0.63987951396E+01  0.19685786405E+02  0.38146410590E+02  0.43400730483E+02  0.00000000000E+00 0.  1.
         11    1    3    3    0    0  0.91425409845E+00  0.47424703733E+00 -0.17576489820E+02  0.17606639811E+02  0.51100000000E-03 0. -1.
        -11    1    3    3    0    0  0.19747138243E+01 -0.56961955638E+01 -0.10825041094E+02  0.12390627649E+02  0.51100000000E-03 0.  1.
        -12    1    3    3    0    0  0.35098272169E+01 -0.14463837878E+02 -0.97448796760E+01  0.17790002056E+02  0.00000000000E+00 0.  1.
</event>
<event>
 7    1  0.4675811E-010  0.4778727E+02  0.7816164E-02  0.1312668E+00
        -11   -1    0    0    0    0  0.00000000000E+00  0.00000000000E+00  0.45593999997E+02  0.45594000000E+02  0.51100000000E-03 0. -1.
         11   -1    0    0    0    0 -0.00000000000E+00 -0.00000000000E+00 -0.45593999997E+02  0.45594000000E+02  0.51100000000E-03 0.  1.
    9900012    2    1    2    0    0 -0.22032800741E+02  0.29589938958E+02  0.22860763409E+02  0.47787270747E+02  0.19999998645E+02 0.  0.
        -12    1    1    2    0    0  0.22032800741E+02 -0.29589938958E+02 -0.22860763409E+02  0.43400729253E+02  0.00000000000E+00 0.  1.
         11    1    3    3    0    0 -0.12657726320E+02  0.13740119041E+02  0.16996766040E+02  0.25256661753E+02  0.51100000000E-03 0. -1.
        -11    1    3    3    0    0 -0.15364937308E+01  0.15213491796E+01  0.58086907365E+01  0.61980807227E+01  0.51100000000E-03 0.  1.
        -12    1    3    3    0    0 -0.78385806901E+01  0.14328470738E+02  0.55306632968E-01  0.16332528272E+02  0.00000000000E+00 0.  1.
</event>
<event>
 7    1  0.4675811E-010  0.4778726E+02  0.7816164E-02  0.1312668E+00
        -11   -1    0    0    0    0  0.00000000000E+00  0.00000000000E+00  0.45593999997E+02  0.45594000000E+02  0.51100000000E-03 0. -1.
         11   -1    0    0    0    0 -0.00000000000E+00 -0.00000000000E+00 -0.45593999997E+02  0.45594000000E+02  0.51100000000E-03 0.  1.
    9900012    2    1    2    0    0  0.31957621946E+02 -0.28195004231E+02  0.82082944304E+01  0.47787263123E+02  0.19999963883E+02 0.  0.
        -12    1    1    2    0    0 -0.31957621946E+02  0.28195004231E+02 -0.82082944304E+01  0.43400736877E+02  0.00000000000E+00 0.  1.
         11    1    3    3    0    0  0.74532121003E-01 -0.37288314389E+01 -0.68635810717E-01  0.37302077788E+01  0.51100000000E-03 0.  1.
        -11    1    3    3    0    0  0.20295090986E+02 -0.23863616182E+02  0.35487647748E+01  0.31527077681E+02  0.51100000000E-03 0. -1.
         12    1    3    3    0    0  0.11587998839E+02 -0.60255660975E+00  0.47281654663E+01  0.12529977663E+02  0.00000000000E+00 0. -1.
</event>
<event>
 7    1  0.4675811E-010  0.4778728E+02  0.7816164E-02  0.1312668E+00
        -11   -1    0    0    0    0  0.00000000000E+00  0.00000000000E+00  0.45593999997E+02  0.45594000000E+02  0.51100000000E-03 0. -1.
         11   -1    0    0    0    0 -0.00000000000E+00 -0.00000000000E+00 -0.45593999997E+02  0.45594000000E+02  0.51100000000E-03 0.  1.
    9900012    2    1    2    0    0 -0.41998758907E+01  0.16240158979E+02  0.40028004502E+02  0.47787275748E+02  0.20000021445E+02 0.  0.
        -12    1    1    2    0    0  0.41998758907E+01 -0.16240158979E+02 -0.40028004502E+02  0.43400724252E+02  0.00000000000E+00 0.  1.
         11    1    3    3    0    0 -0.13479926877E+01  0.90205080437E+01  0.30755356517E+02  0.32079255047E+02  0.51100000000E-03 0. -1.
        -11    1    3    3    0    0  0.10050415118E+01 -0.77565291071E+00  0.61779862331E+01  0.63070801514E+01  0.51100000000E-03 0.  1.
        -12    1    3    3    0    0 -0.38569247148E+01  0.79953038465E+01  0.30946617525E+01  0.94009405495E+01  0.00000000000E+00 0.  1.
</event>
<event>
 7    1  0.4675811E-010  0.4778727E+02  0.7816164E-02  0.1312668E+00
        -11   -1    0    0    0    0  0.00000000000E+00  0.00000000000E+00  0.45593999997E+02  0.45594000000E+02  0.51100000000E-03 0.  1.
         11   -1    0    0    0    0 -0.00000000000E+00 -0.00000000000E+00 -0.45593999997E+02  0.45594000000E+02  0.51100000000E-03 0. -1.
    9900012    2    1    2    0    0  0.22448482327E+02  0.20350610288E+02  0.31073168102E+02  0.47787268742E+02  0.19999989501E+02 0.  0.
        -12    1    1    2    0    0 -0.22448482327E+02 -0.20350610288E+02 -0.31073168102E+02  0.43400731258E+02  0.00000000000E+00 0.  1.
         11    1    3    3    0    0  0.27843836482E+01  0.52963459976E+01  0.13271368949E+01  0.61290591305E+01  0.51100000000E-03 0. -1.
        -11    1    3    3    0    0  0.98307825226E+01  0.97199021258E+01  0.53577246451E+01  0.14826530139E+02  0.51100000000E-03 0.  1.
         12    1    3    3    0    0  0.98333161564E+01  0.53343621647E+01  0.24388306562E+02  0.26831679472E+02  0.00000000000E+00 0. -1.
</event>
<event>
 7    1  0.4675811E-010  0.4778727E+02  0.7816164E-02  0.1312668E+00
        -11   -1    0    0    0    0  0.00000000000E+00  0.00000000000E+00  0.45593999997E+02  0.45594000000E+02  0.51100000000E-03 0.  1.
         11   -1    0    0    0    0 -0.00000000000E+00 -0.00000000000E+00 -0.45593999997E+02  0.45594000000E+02  0.51100000000E-03 0. -1.
    9900012    2    1    2    0    0 -0.37956568950E+02 -0.34020769240E+01 -0.20768911963E+02  0.47787274684E+02  0.20000016594E+02 0.  0.
        -12    1    1    2    0    0  0.37956568950E+02  0.34020769240E+01  0.20768911963E+02  0.43400725316E+02  0.00000000000E+00 0.  1.
         11    1    3    3    0    0 -0.63473088054E+01 -0.30705084965E+01 -0.27029098783E+01  0.75512961516E+01  0.51100000000E-03 0. -1.
        -11    1    3    3    0    0 -0.65365664299E+01 -0.30425931844E+01  0.25657031366E+01  0.76529018565E+01  0.51100000000E-03 0.  1.
         12    1    3    3    0    0 -0.25072693714E+02  0.27110247569E+01 -0.20631705221E+02  0.32583076676E+02  0.00000000000E+00 0. -1.
</event>
<event>
 7    1  0.4675811E-010  0.4778727E+02  0.7816164E-02  0.1312668E+00
        -11   -1    0    0    0    0  0.00000000000E+00  0.00000000000E+00  0.45593999997E+02  0.45594000000E+02  0.51100000000E-03 0.  1.
         11   -1    0    0    0    0 -0.00000000000E+00 -0.00000000000E+00 -0.45593999997E+02  0.45594000000E+02  0.51100000000E-03 0. -1.
    9900012    2    1    2    0    0 -0.22788670432E+02 -0.76216251066E+00 -0.36928563258E+02  0.47787272172E+02  0.20000005140E+02 0.  0.
        -12    1    1    2    0    0  0.22788670432E+02  0.76216251066E+00  0.36928563258E+02  0.43400727828E+02  0.00000000000E+00 0.  1.
         11    1    3    3    0    0 -0.94921245108E+01  0.76332611876E+01 -0.21759566814E+02  0.24936837255E+02  0.51100000000E-03 0. -1.
        -11    1    3    3    0    0 -0.37708500517E+01  0.72578277216E+00 -0.42562048165E+01  0.57324820493E+01  0.51100000000E-03 0.  1.
        -12    1    3    3    0    0 -0.95256958691E+01 -0.91212064704E+01 -0.10912791627E+02  0.17117952867E+02  0.00000000000E+00 0.  1.
</event>
<event>
 7    1  0.4675811E-010  0.4778729E+02  0.7816164E-02  0.1312668E+00
        -11   -1    0    0    0    0  0.00000000000E+00  0.00000000000E+00  0.45593999997E+02  0.45594000000E+02  0.51100000000E-03 0. -1.
         11   -1    0    0    0    0 -0.00000000000E+00 -0.00000000000E+00 -0.45593999997E+02  0.45594000000E+02  0.51100000000E-03 0.  1.
    9900012    2    1    2    0    0 -0.30014434990E+02 -0.30404560115E+02  0.76366418132E+01  0.47787287082E+02  0.20000073124E+02 0.  0.
        -12    1    1    2    0    0  0.30014434990E+02  0.30404560115E+02 -0.76366418132E+01  0.43400712918E+02  0.00000000000E+00 0.  1.
         11    1    3    3    0    0 -0.14812851052E+02 -0.12996919960E+02  0.10831450181E+02  0.22486902811E+02  0.51100000000E-03 0. -1.
        -11    1    3    3    0    0 -0.23952737601E+01  0.10129043428E+01 -0.88475314645E+00  0.27470165607E+01  0.51100000000E-03 0.  1.
         12    1    3    3    0    0 -0.12806310178E+02 -0.18420544498E+02 -0.23100552217E+01  0.22553367711E+02  0.00000000000E+00 0. -1.
</event>
<event>
 7    1  0.4675811E-010  0.4778728E+02  0.7816164E-02  0.1312668E+00
        -11   -1    0    0    0    0  0.00000000000E+00  0.00000000000E+00  0.45593999997E+02  0.45594000000E+02  0.51100000000E-03 0. -1.
         11   -1    0    0    0    0 -0.00000000000E+00 -0.00000000000E+00 -0.45593999997E+02  0.45594000000E+02  0.51100000000E-03 0.  1.
    9900012    2    1    2    0    0 -0.61682747678E+01  0.42645790541E+02  0.51876432763E+01  0.47787277572E+02  0.20000029763E+02 0.  0.
        -12    1    1    2    0    0  0.61682747678E+01 -0.42645790541E+02 -0.51876432763E+01  0.43400722428E+02  0.00000000000E+00 0.  1.
         11    1    3    3    0    0 -0.82411579174E+01  0.22334828568E+02 -0.10214180547E+01  0.23828649691E+02  0.51100000000E-03 0. -1.
        -11    1    3    3    0    0 -0.41787311141E+01  0.10204730443E+02  0.13094089573E+01  0.11104632782E+02  0.51100000000E-03 0.  1.
        -12    1    3    3    0    0  0.62516142637E+01  0.10106231530E+02  0.48996523736E+01  0.12853995100E+02  0.00000000000E+00 0.  1.
</event>
<event>
 7    1  0.4675811E-010  0.4778728E+02  0.7816164E-02  0.1312668E+00
        -11   -1    0    0    0    0  0.00000000000E+00  0.00000000000E+00  0.45593999997E+02  0.45594000000E+02  0.51100000000E-03 0.  1.
         11   -1    0    0    0    0 -0.00000000000E+00 -0.00000000000E+00 -0.45593999997E+02  0.45594000000E+02  0.51100000000E-03 0. -1.
    9900012    2    1    2    0    0  0.10736295172E+02 -0.25661859953E+02 -0.33314015953E+02  0.47787277089E+02  0.20000027558E+02 0.  0.
        -12    1    1    2    0    0 -0.10736295172E+02  0.25661859953E+02  0.33314015953E+02  0.43400722911E+02  0.00000000000E+00 0.  1.
         11    1    3    3    0    0  0.25735868945E+01 -0.11237129690E+02 -0.30377188779E+01  0.11921584183E+02  0.51100000000E-03 0. -1.
        -11    1    3    3    0    0 -0.21782553497E+01 -0.16595304566E+01 -0.53947359601E+01  0.60499598383E+01  0.51100000000E-03 0.  1.
         12    1    3    3    0    0  0.10340963627E+02 -0.12765199806E+02 -0.24881561115E+02  0.29815733068E+02  0.00000000000E+00 0. -1.
</event>
<event>
 7    1  0.4675811E-010  0.4778727E+02  0.7816164E-02  0.1312668E+00
        -11   -1    0    0    0    0  0.00000000000E+00  0.00000000000E+00  0.45593999997E+02  0.45594000000E+02  0.51100000000E-03 0.  1.
         11   -1    0    0    0    0 -0.00000000000E+00 -0.00000000000E+00 -0.45593999997E+02  0.45594000000E+02  0.51100000000E-03 0. -1.
    9900012    2    1    2    0    0 -0.32921924732E+01 -0.24641833384E+02 -0.35574776207E+02  0.47787272057E+02  0.20000004616E+02 0.  0.
        -12    1    1    2    0    0  0.32921924732E+01  0.24641833384E+02  0.35574776207E+02  0.43400727943E+02  0.00000000000E+00 0.  1.
         11    1    3    3    0    0 -0.17149661190E+01 -0.14022452539E+02 -0.17761551712E+02  0.22694558896E+02  0.51100000000E-03 0. -1.
        -11    1    3    3    0    0 -0.20253521268E+01 -0.10936878953E+02 -0.19974587063E+02  0.22862666097E+02  0.51100000000E-03 0.  1.
        -12    1    3    3    0    0  0.44812577256E+00  0.31749810747E+00  0.21613625682E+01  0.22300470640E+01  0.00000000000E+00 0.  1.
</event>
<event>
 7    1  0.4675811E-010  0.4778727E+02  0.7816164E-02  0.1312668E+00
        -11   -1    0    0    0    0  0.00000000000E+00  0.00000000000E+00  0.45593999997E+02  0.45594000000E+02  0.51100000000E-03 0. -1.
         11   -1    0    0    0    0 -0.00000000000E+00 -0.00000000000E+00 -0.45593999997E+02  0.45594000000E+02  0.51100000000E-03 0.  1.
    9900012    2    1    2    0    0 -0.37756408902E+02  0.19036610144E+02 -0.97818358522E+01  0.47787271302E+02  0.20000001173E+02 0.  0.
        -12    1    1    2    0    0  0.37756408902E+02 -0.19036610144E+02  0.97818358522E+01  0.43400728698E+02  0.00000000000E+00 0.  1.
         11    1    3    3    0    0 -0.17060186845E+02  0.87857865227E+01 -0.15383871354E+01  0.19251146855E+02  0.51100000000E-03 0. -1.
        -11    1    3    3    0    0 -0.71315894640E+01  0.11597948051E+02 -0.51617606639E+01  0.14560760306E+02  0.51100000000E-03 0.  1.
        -12    1    3    3    0    0 -0.13564632593E+02 -0.13471244297E+01 -0.30816880528E+01  0.13975364141E+02  0.00000000000E+00 0.  1.
</event>
<event>
 7    1  0.4675811E-010  0.4778727E+02  0.7816164E-02  0.1312668E+00
        -11   -1    0    0    0    0  0.00000000000E+00  0.00000000000E+00  0.45593999997E+02  0.45594000000E+02  0.51100000000E-03 0. -1.
         11   -1    0    0    0    0 -0.00000000000E+00 -0.00000000000E+00 -0.45593999997E+02  0.45594000000E+02  0.51100000000E-03 0.  1.
    9900012    2    1    2    0    0  0.60292817737E+00 -0.39463530261E+02 -0.18052410889E+02  0.47787270951E+02  0.19999999574E+02 0.  0.
        -12    1    1    2    0    0 -0.60292817737E+00  0.39463530261E+02  0.18052410889E+02  0.43400729049E+02  0.00000000000E+00 0.  1.
         11    1    3    3    0    0 -0.15113502692E+01 -0.13855819493E+02  0.25674139617E+01  0.14172491954E+02  0.51100000000E-03 0. -1.
        -11    1    3    3    0    0  0.27383463347E+01 -0.38031031041E+01 -0.44399690077E+01  0.64556532528E+01  0.51100000000E-03 0.  1.
        -12    1    3    3    0    0 -0.62406788813E+00 -0.21804607664E+02 -0.16179855843E+02  0.27159125745E+02  0.00000000000E+00 0.  1.
</event>
<event>
 7    1  0.4675811E-010  0.4778731E+02  0.7816164E-02  0.1312668E+00
        -11   -1    0    0    0    0  0.00000000000E+00  0.00000000000E+00  0.45593999997E+02  0.45594000000E+02  0.51100000000E-03 0.  1.
         11   -1    0    0    0    0 -0.00000000000E+00 -0.00000000000E+00 -0.45593999997E+02  0.45594000000E+02  0.51100000000E-03 0. -1.
    9900012    2    1    2    0    0  0.14311003262E+02  0.16422654639E+02 -0.37538139561E+02  0.47787305058E+02  0.20000155081E+02 0.  0.
        -12    1    1    2    0    0 -0.14311003262E+02 -0.16422654639E+02  0.37538139561E+02  0.43400694942E+02  0.00000000000E+00 0.  1.
         11    1    3    3    0    0  0.17687106443E+02  0.71750535530E+01 -0.29155483640E+02  0.34847630541E+02  0.51100000000E-03 0. -1.
        -11    1    3    3    0    0 -0.95718022790E+00  0.21630826879E+01 -0.22049184346E+01  0.32336954507E+01  0.51100000000E-03 0.  1.
         12    1    3    3    0    0 -0.24189229531E+01  0.70845183978E+01 -0.61777374868E+01  0.97059790664E+01  0.00000000000E+00 0. -1.
</event>
<event>
 7    1  0.4675811E-010  0.4778726E+02  0.7816164E-02  0.1312668E+00
        -11   -1    0    0    0    0  0.00000000000E+00  0.00000000000E+00  0.45593999997E+02  0.45594000000E+02  0.51100000000E-03 0. -1.
         11   -1    0    0    0    0 -0.00000000000E+00 -0.00000000000E+00 -0.45593999997E+02  0.45594000000E+02  0.51100000000E-03 0.  1.
    9900012    2    1    2    0    0 -0.42750114142E+02 -0.25607928106E+01  0.70352163346E+01  0.47787260515E+02  0.19999951994E+02 0.  0.
        -12    1    1    2    0    0  0.42750114142E+02  0.25607928106E+01 -0.70352163346E+01  0.43400739485E+02  0.00000000000E+00 0.  1.
         11    1    3    3    0    0 -0.14230925389E+02 -0.16173406600E+00  0.21652390419E+01  0.14395612376E+02  0.51100000000E-03 0. -1.
        -11    1    3    3    0    0 -0.25109104527E+02  0.30269561667E+00 -0.20749568655E+01  0.25196511684E+02  0.51100000000E-03 0.  1.
        -12    1    3    3    0    0 -0.34100842258E+01 -0.27017543612E+01  0.69449341581E+01  0.81951364550E+01  0.00000000000E+00 0.  1.
</event>
<event>
 7    1  0.4675811E-010  0.4778727E+02  0.7816164E-02  0.1312668E+00
        -11   -1    0    0    0    0  0.00000000000E+00  0.00000000000E+00  0.45593999997E+02  0.45594000000E+02  0.51100000000E-03 0.  1.
         11   -1    0    0    0    0 -0.00000000000E+00 -0.00000000000E+00 -0.45593999997E+02  0.45594000000E+02  0.51100000000E-03 0. -1.
    9900012    2    1    2    0    0 -0.19150348164E+02  0.16635196146E+02 -0.35215872432E+02  0.47787271242E+02  0.20000000899E+02 0.  0.
        -12    1    1    2    0    0  0.19150348164E+02 -0.16635196146E+02  0.35215872432E+02  0.43400728758E+02  0.00000000000E+00 0.  1.
         11    1    3    3    0    0  0.39731367379E+00  0.68512164776E+01 -0.65392757758E+01  0.94794068017E+01  0.51100000000E-03 0. -1.
        -11    1    3    3    0    0 -0.55176170411E+01  0.42577506491E+01 -0.13529853799E+01  0.70995146385E+01  0.51100000000E-03 0.  1.
         12    1    3    3    0    0 -0.14030044796E+02  0.55262290195E+01 -0.27323611276E+02  0.31208349802E+02  0.00000000000E+00 0. -1.
</event>
<event>
 7    1  0.4675811E-010  0.4778727E+02  0.7816164E-02  0.1312668E+00
        -11   -1    0    0    0    0  0.00000000000E+00  0.00000000000E+00  0.45593999997E+02  0.45594000000E+02  0.51100000000E-03 0.  1.
         11   -1    0    0    0    0 -0.00000000000E+00 -0.00000000000E+00 -0.45593999997E+02  0.45594000000E+02  0.51100000000E-03 0. -1.
    9900012    2    1    2    0    0 -0.65318238320E+01  0.76840616162E+01 -0.42212719822E+02  0.47787271432E+02  0.20000001766E+02 0.  0.
        -12    1    1    2    0    0  0.65318238320E+01 -0.76840616162E+01  0.42212719822E+02  0.43400728568E+02  0.00000000000E+00 0.  1.
         11    1    3    3    0    0 -0.55573962995E+01  0.47483111871E+01 -0.58020216246E+01  0.93324470506E+01  0.51100000000E-03 0. -1.
        -11    1    3    3    0    0 -0.24736003858E+01  0.73235490372E+01 -0.23221153757E+02  0.24473966811E+02  0.51100000000E-03 0.  1.
        -12    1    3    3    0    0  0.14991728533E+01 -0.43877986082E+01 -0.13189544440E+02  0.13980857570E+02  0.00000000000E+00 0.  1.
</event>
<event>
 7    1  0.4675811E-010  0.4778726E+02  0.7816164E-02  0.1312668E+00
        -11   -1    0    0    0    0  0.00000000000E+00  0.00000000000E+00  0.45593999997E+02  0.45594000000E+02  0.51100000000E-03 0.  1.
         11   -1    0    0    0    0 -0.00000000000E+00 -0.00000000000E+00 -0.45593999997E+02  0.45594000000E+02  0.51100000000E-03 0. -1.
    9900012    2    1    2    0    0  0.47813324621E+01  0.78956744567E+01 -0.42407798998E+02  0.47787260017E+02  0.19999949721E+02 0.  0.
        -12    1    1    2    0    0 -0.47813324621E+01 -0.78956744567E+01  0.42407798998E+02  0.43400739983E+02  0.00000000000E+00 0.  1.
         11    1    3    3    0    0 -0.14409852715E+01 -0.48843939930E+01 -0.15950474530E+02  0.16743696761E+02  0.51100000000E-03 0. -1.
        -11    1    3    3    0    0  0.44002310446E+01  0.16770992506E+01 -0.53696688291E+01  0.71419912306E+01  0.51100000000E-03 0.  1.
         12    1    3    3    0    0  0.18220866890E+01  0.11102969199E+02 -0.21087655639E+02  0.23901572025E+02  0.00000000000E+00 0. -1.
</event>
<event>
 7    1  0.4675811E-010  0.4778727E+02  0.7816164E-02  0.1312668E+00
        -11   -1    0    0    0    0  0.00000000000E+00  0.00000000000E+00  0.45593999997E+02  0.45594000000E+02  0.51100000000E-03 0.  1.
         11   -1    0    0    0    0 -0.00000000000E+00 -0.00000000000E+00 -0.45593999997E+02  0.45594000000E+02  0.51100000000E-03 0. -1.
    9900012    2    1    2    0    0  0.26747701123E+02  0.30431188072E+02 -0.15560405237E+02  0.47787274961E+02  0.20000017855E+02 0.  0.
        -12    1    1    2    0    0 -0.26747701123E+02 -0.30431188072E+02  0.15560405237E+02  0.43400725039E+02  0.00000000000E+00 0.  1.
         11    1    3    3    0    0  0.43440576347E+01  0.25639924484E+01 -0.49422051763E+01  0.70618897099E+01  0.51100000000E-03 0. -1.
        -11    1    3    3    0    0  0.28914754120E+01  0.25593428906E+01 -0.77273953056E+01  0.86384897152E+01  0.51100000000E-03 0.  1.
         12    1    3    3    0    0  0.19512168076E+02  0.25307852733E+02 -0.28908047548E+01  0.32086895535E+02  0.00000000000E+00 0. -1.
</event>
<event>
 7    1  0.4675811E-010  0.4778727E+02  0.7816164E-02  0.1312668E+00
        -11   -1    0    0    0    0  0.00000000000E+00  0.00000000000E+00  0.45593999997E+02  0.45594000000E+02  0.51100000000E-03 0. -1.
         11   -1    0    0    0    0 -0.00000000000E+00 -0.00000000000E+00 -0.45593999997E+02  0.45594000000E+02  0.51100000000E-03 0.  1.
    9900012    2    1    2    0    0  0.58744067490E+01 -0.31924513044E+02  0.28808683953E+02  0.47787268913E+02  0.19999990284E+02 0.  0.
        -12    1    1    2    0    0 -0.58744067490E+01  0.31924513044E+02 -0.28808683953E+02  0.43400731087E+02  0.00000000000E+00 0.  1.
         11    1    3    3    0    0  0.29248690538E+00 -0.27977783997E+01  0.10038840492E+02  0.10425518272E+02  0.51100000000E-03 0. -1.
        -11    1    3    3    0    0  0.29710954567E+01  0.63275359410E-01  0.13033430767E+01  0.32450139323E+01  0.51100000000E-03 0.  1.
        -12    1    3    3    0    0  0.26108243869E+01 -0.29190010004E+02  0.17466500384E+02  0.34116736709E+02  0.00000000000E+00 0.  1.
</event>
<event>
 7    1  0.4675811E-010  0.4778731E+02  0.7816164E-02  0.1312668E+00
        -11   -1    0    0    0    0  0.00000000000E+00  0.00000000000E+00  0.45593999997E+02  0.45594000000E+02  0.51100000000E-03 0.  1.
         11   -1    0    0    0    0 -0.00000000000E+00 -0.00000000000E+00 -0.45593999997E+02  0.45594000000E+02  0.51100000000E-03 0. -1.
    9900012    2    1    2    0    0 -0.32277880897E+02  0.11774846159E+02 -0.26516239534E+02  0.47787313873E+02  0.20000195272E+02 0.  0.
        -12    1    1    2    0    0  0.32277880897E+02 -0.11774846159E+02  0.26516239534E+02  0.43400686127E+02  0.00000000000E+00 0.  1.
         11    1    3    3    0    0 -0.66854436146E+01 -0.15556698416E+01 -0.40606742046E+01  0.79752329268E+01  0.51100000000E-03 0. -1.
        -11    1    3    3    0    0  0.12625352083E+01 -0.15672095500E+01 -0.24038745704E+01  0.31350843908E+01  0.51100000000E-03 0.  1.
         12    1    3    3    0    0 -0.26854972491E+02  0.14897725551E+02 -0.20051690759E+02  0.36676996556E+02  0.00000000000E+00 0. -1.
</event>
<event>
 7    1  0.4675811E-010  0.4778727E+02  0.7816164E-02  0.1312668E+00
        -11   -1    0    0    0    0  0.00000000000E+00  0.00000000000E+00  0.45593999997E+02  0.45594000000E+02  0.51100000000E-03 0.  1.
         11   -1    0    0    0    0 -0.00000000000E+00 -0.00000000000E+00 -0.45593999997E+02  0.45594000000E+02  0.51100000000E-03 0. -1.
    9900012    2    1    2    0    0 -0.21848668302E+02  0.37283196173E+02 -0.40276980642E+01  0.47787269878E+02  0.19999994682E+02 0.  0.
        -12    1    1    2    0    0  0.21848668302E+02 -0.37283196173E+02  0.40276980642E+01  0.43400730122E+02  0.00000000000E+00 0.  1.
         11    1    3    3    0    0 -0.16076067849E+02  0.22651918892E+02 -0.41095679252E+00  0.27779817723E+02  0.51100000000E-03 0. -1.
        -11    1    3    3    0    0 -0.28812676074E+01  0.12572109350E+02  0.23059012980E+01  0.13102550041E+02  0.51100000000E-03 0.  1.
        -12    1    3    3    0    0 -0.28913328448E+01  0.20591679314E+01 -0.59226425697E+01  0.69049021136E+01  0.00000000000E+00 0.  1.
</event>
<event>
 7    1  0.4675811E-010  0.4778727E+02  0.7816164E-02  0.1312668E+00
        -11   -1    0    0    0    0  0.00000000000E+00  0.00000000000E+00  0.45593999997E+02  0.45594000000E+02  0.51100000000E-03 0.  1.
         11   -1    0    0    0    0 -0.00000000000E+00 -0.00000000000E+00 -0.45593999997E+02  0.45594000000E+02  0.51100000000E-03 0. -1.
    9900012    2    1    2    0    0 -0.40483765759E+02 -0.50412345139E+01 -0.14807901250E+02  0.47787271033E+02  0.19999999948E+02 0.  0.
        -12    1    1    2    0    0  0.40483765759E+02  0.50412345139E+01  0.14807901250E+02  0.43400728967E+02  0.00000000000E+00 0.  1.
         11    1    3    3    0    0 -0.74336965965E+00 -0.40638767771E+01 -0.23689397220E+01  0.47623070646E+01  0.51100000000E-03 0. -1.
        -11    1    3    3    0    0 -0.13491943328E+02 -0.54605758683E+01 -0.46820174406E+01  0.15289594866E+02  0.51100000000E-03 0.  1.
        -12    1    3    3    0    0 -0.26248452771E+02  0.44832181314E+01 -0.77569440876E+01  0.27735369103E+02  0.00000000000E+00 0.  1.
</event>
<event>
 7    1  0.4675811E-010  0.4778727E+02  0.7816164E-02  0.1312668E+00
        -11   -1    0    0    0    0  0.00000000000E+00  0.00000000000E+00  0.45593999997E+02  0.45594000000E+02  0.51100000000E-03 0.  1.
         11   -1    0    0    0    0 -0.00000000000E+00 -0.00000000000E+00 -0.45593999997E+02  0.45594000000E+02  0.51100000000E-03 0. -1.
    9900012    2    1    2    0    0  0.10651357925E+02  0.24124401520E+02 -0.34470059112E+02  0.47787272477E+02  0.20000006532E+02 0.  0.
        -12    1    1    2    0    0 -0.10651357925E+02 -0.24124401520E+02  0.34470059112E+02  0.43400727523E+02  0.00000000000E+00 0.  1.
         11    1    3    3    0    0  0.10904843145E+02  0.24759936841E+02 -0.35005630990E+02  0.44242109779E+02  0.51100000000E-03 0. -1.
        -11    1    3    3    0    0  0.12180387358E+01  0.74977051545E+00  0.52652174472E+00  0.15241389689E+01  0.51100000000E-03 0.  1.
         12    1    3    3    0    0 -0.14715239555E+01 -0.13853058361E+01  0.90501338032E-02  0.20210237297E+01  0.00000000000E+00 0. -1.
</event>
<event>
 7    1  0.4675811E-010  0.4778727E+02  0.7816164E-02  0.1312668E+00
        -11   -1    0    0    0    0  0.00000000000E+00  0.00000000000E+00  0.45593999997E+02  0.45594000000E+02  0.51100000000E-03 0. -1.
         11   -1    0    0    0    0 -0.00000000000E+00 -0.00000000000E+00 -0.45593999997E+02  0.45594000000E+02  0.51100000000E-03 0.  1.
    9900012    2    1    2    0    0 -0.17242267818E+02  0.26493530039E+02  0.29739206938E+02  0.47787270021E+02  0.19999995333E+02 0.  0.
        -12    1    1    2    0    0  0.17242267818E+02 -0.26493530039E+02 -0.29739206938E+02  0.43400729979E+02  0.00000000000E+00 0.  1.
         11    1    3    3    0    0 -0.86173924813E+01  0.65316575911E+01  0.17109396959E+02  0.20239897940E+02  0.51100000000E-03 0. -1.
        -11    1    3    3    0    0 -0.83850527446E+01  0.19286730410E+02  0.74392719440E+01  0.22307618581E+02  0.51100000000E-03 0.  1.
         12    1    3    3    0    0 -0.23982259203E+00  0.67514203764E+00  0.51905380344E+01  0.52397534993E+01  0.00000000000E+00 0. -1.
</event>
<event>
 7    1  0.4675811E-010  0.4778727E+02  0.7816164E-02  0.1312668E+00
        -11   -1    0    0    0    0  0.00000000000E+00  0.00000000000E+00  0.45593999997E+02  0.45594000000E+02  0.51100000000E-03 0.  1.
         11   -1    0    0    0    0 -0.00000000000E+00 -0.00000000000E+00 -0.45593999997E+02  0.45594000000E+02  0.51100000000E-03 0. -1.
    9900012    2    1    2    0    0  0.10351956933E+02  0.14122063204E+02 -0.39711811476E+02  0.47787266686E+02  0.19999980130E+02 0.  0.
        -12    1    1    2    0    0 -0.10351956933E+02 -0.14122063204E+02  0.39711811476E+02  0.43400733314E+02  0.00000000000E+00 0.  1.
         11    1    3    3    0    0  0.70766332701E+00  0.11958140413E+02 -0.23839799522E+02  0.26680216473E+02  0.51100000000E-03 0. -1.
        -11    1    3    3    0    0 -0.62032764917E+00 -0.34399221240E+00 -0.77429407422E+01  0.77753629261E+01  0.51100000000E-03 0.  1.
        -12    1    3    3    0    0  0.10264621255E+02  0.25079150034E+01 -0.81290712116E+01  0.13331687288E+02  0.00000000000E+00 0.  1.
</event>
<event>
 7    1  0.4675811E-010  0.4778729E+02  0.7816164E-02  0.1312668E+00
        -11   -1    0    0    0    0  0.00000000000E+00  0.00000000000E+00  0.45593999997E+02  0.45594000000E+02  0.51100000000E-03 0.  1.
         11   -1    0    0    0    0 -0.00000000000E+00 -0.00000000000E+00 -0.45593999997E+02  0.45594000000E+02  0.51100000000E-03 0. -1.
    9900012    2    1    2    0    0  0.58889720536E+01  0.22563019806E+02 -0.36603983478E+02  0.47787291929E+02  0.20000095221E+02 0.  0.
        -12    1    1    2    0    0 -0.58889720536E+01 -0.22563019806E+02  0.36603983478E+02  0.43400708071E+02  0.00000000000E+00 0.  1.
         11    1    3    3    0    0 -0.19222497630E+01  0.11597262098E+02 -0.14362441216E+02  0.18559936698E+02  0.51100000000E-03 0.  1.
        -11    1    3    3    0    0 -0.13714425056E+01  0.83533769866E+01 -0.15077326397E+02  0.17291198142E+02  0.51100000000E-03 0. -1.
         12    1    3    3    0    0  0.91826643223E+01  0.26123807216E+01 -0.71642158646E+01  0.11936157089E+02  0.00000000000E+00 0. -1.
</event>
<event>
 7    1  0.4675811E-010  0.4778727E+02  0.7816164E-02  0.1312668E+00
        -11   -1    0    0    0    0  0.00000000000E+00  0.00000000000E+00  0.45593999997E+02  0.45594000000E+02  0.51100000000E-03 0.  1.
         11   -1    0    0    0    0 -0.00000000000E+00 -0.00000000000E+00 -0.45593999997E+02  0.45594000000E+02  0.51100000000E-03 0. -1.
    9900012    2    1    2    0    0  0.26302699933E+02  0.19320693708E+01 -0.34468220846E+02  0.47787272309E+02  0.20000005765E+02 0.  0.
        -12    1    1    2    0    0 -0.26302699933E+02 -0.19320693708E+01  0.34468220846E+02  0.43400727691E+02  0.00000000000E+00 0.  1.
         11    1    3    3    0    0  0.33196257114E+01 -0.36794004009E+00 -0.17523271906E+02  0.17838731830E+02  0.51100000000E-03 0. -1.
        -11    1    3    3    0    0  0.10648049980E+01  0.24732950009E+01 -0.26634015460E+01  0.37874405476E+01  0.51100000000E-03 0.  1.
        -12    1    3    3    0    0  0.21918269224E+02 -0.17328559003E+00 -0.14281547394E+02  0.26161099932E+02  0.00000000000E+00 0.  1.
</event>
<event>
 7    1  0.4675811E-010  0.4778727E+02  0.7816164E-02  0.1312668E+00
        -11   -1    0    0    0    0  0.00000000000E+00  0.00000000000E+00  0.45593999997E+02  0.45594000000E+02  0.51100000000E-03 0.  1.
         11   -1    0    0    0    0 -0.00000000000E+00 -0.00000000000E+00 -0.45593999997E+02  0.45594000000E+02  0.51100000000E-03 0. -1.
    9900012    2    1    2    0    0 -0.41964775318E+02  0.77616494233E+01  0.78954297416E+01  0.47787269821E+02  0.19999994421E+02 0.  0.
        -12    1    1    2    0    0  0.41964775318E+02 -0.77616494233E+01 -0.78954297416E+01  0.43400730179E+02  0.00000000000E+00 0.  1.
         11    1    3    3    0    0 -0.42477479341E+01  0.34607885621E+01  0.32315845881E+01  0.63610973263E+01  0.51100000000E-03 0.  1.
        -11    1    3    3    0    0 -0.14130110022E+02  0.86006721039E+01  0.55107241772E+01  0.17435585769E+02  0.51100000000E-03 0. -1.
         12    1    3    3    0    0 -0.23586917362E+02 -0.42998112426E+01 -0.84687902373E+00  0.23990586726E+02  0.00000000000E+00 0. -1.
</event>
<event>
 7    1  0.4675811E-010  0.4778727E+02  0.7816164E-02  0.1312668E+00
        -11   -1    0    0    0    0  0.00000000000E+00  0.00000000000E+00  0.45593999997E+02  0.45594000000E+02  0.51100000000E-03 0.  1.
         11   -1    0    0    0    0 -0.00000000000E+00 -0.00000000000E+00 -0.45593999997E+02  0.45594000000E+02  0.51100000000E-03 0. -1.
    9900012    2    1    2    0    0  0.24726364884E+02 -0.26735422630E+02 -0.23610324157E+02  0.47787270163E+02  0.19999995982E+02 0.  0.
        -12    1    1    2    0    0 -0.24726364884E+02  0.26735422630E+02  0.23610324157E+02  0.43400729837E+02  0.00000000000E+00 0.  1.
         11    1    3    3    0    0  0.72042378515E+01  0.19479080545E+00 -0.14480067902E+01  0.73508986120E+01  0.51100000000E-03 0. -1.
        -11    1    3    3    0    0  0.50827811611E+01 -0.26254821688E+01 -0.75389386983E+01  0.94637951112E+01  0.51100000000E-03 0.  1.
         12    1    3    3    0    0  0.12439345871E+02 -0.24304731267E+02 -0.14623378669E+02  0.30972576440E+02  0.00000000000E+00 0. -1.
</event>
<event>
 7    1  0.4675811E-010  0.4778726E+02  0.7816164E-02  0.1312668E+00
        -11   -1    0    0    0    0  0.00000000000E+00  0.00000000000E+00  0.45593999997E+02  0.45594000000E+02  0.51100000000E-03 0.  1.
         11   -1    0    0    0    0 -0.00000000000E+00 -0.00000000000E+00 -0.45593999997E+02  0.45594000000E+02  0.51100000000E-03 0. -1.
    9900012    2    1    2    0    0 -0.17505452596E+02 -0.30591795095E+02 -0.25324396305E+02  0.47787264454E+02  0.19999969951E+02 0.  0.
        -12    1    1    2    0    0  0.17505452596E+02  0.30591795095E+02  0.25324396305E+02  0.43400735546E+02  0.00000000000E+00 0.  1.
         11    1    3    3    0    0 -0.51095819200E+01 -0.12360514953E+01 -0.28617164196E+01  0.59854049005E+01  0.51100000000E-03 0.  1.
        -11    1    3    3    0    0 -0.62911553871E+01 -0.64032378313E+01 -0.13916722794E+02  0.16560654106E+02  0.51100000000E-03 0. -1.
         12    1    3    3    0    0 -0.61047152885E+01 -0.22952505769E+02 -0.85459570911E+01  0.25241205447E+02  0.00000000000E+00 0. -1.
</event>
<event>
 7    1  0.4675811E-010  0.4778727E+02  0.7816164E-02  0.1312668E+00
        -11   -1    0    0    0    0  0.00000000000E+00  0.00000000000E+00  0.45593999997E+02  0.45594000000E+02  0.51100000000E-03 0.  1.
         11   -1    0    0    0    0 -0.00000000000E+00 -0.00000000000E+00 -0.45593999997E+02  0.45594000000E+02  0.51100000000E-03 0. -1.
    9900012    2    1    2    0    0  0.66667179412E+01  0.40183188727E+02 -0.14982970259E+02  0.47787272101E+02  0.20000004818E+02 0.  0.
        -12    1    1    2    0    0 -0.66667179412E+01 -0.40183188727E+02  0.14982970259E+02  0.43400727899E+02  0.00000000000E+00 0.  1.
         11    1    3    3    0    0  0.14790425063E+01 -0.14846282570E+00  0.94310081072E+00  0.17604111299E+01  0.51100000000E-03 0. -1.
        -11    1    3    3    0    0  0.93574967662E+01  0.22169578814E+02 -0.12367034596E+02  0.27055434121E+02  0.51100000000E-03 0.  1.
         12    1    3    3    0    0 -0.41698213314E+01  0.18162072739E+02 -0.35590364735E+01  0.18971426850E+02  0.00000000000E+00 0. -1.
</event>
<event>
 7    1  0.4675811E-010  0.4778727E+02  0.7816164E-02  0.1312668E+00
        -11   -1    0    0    0    0  0.00000000000E+00  0.00000000000E+00  0.45593999997E+02  0.45594000000E+02  0.51100000000E-03 0. -1.
         11   -1    0    0    0    0 -0.00000000000E+00 -0.00000000000E+00 -0.45593999997E+02  0.45594000000E+02  0.51100000000E-03 0.  1.
    9900012    2    1    2    0    0  0.35506136618E+02  0.18766498944E+02  0.16454665207E+02  0.47787271582E+02  0.20000002452E+02 0.  0.
        -12    1    1    2    0    0 -0.35506136618E+02 -0.18766498944E+02 -0.16454665207E+02  0.43400728418E+02  0.00000000000E+00 0.  1.
         11    1    3    3    0    0  0.19754018873E+02  0.12162183732E+02  0.14886846193E+01  0.23245562091E+02  0.51100000000E-03 0. -1.
        -11    1    3    3    0    0  0.91128871917E+01  0.29996561416E+01  0.24161392256E+01  0.98934513167E+01  0.51100000000E-03 0.  1.
        -12    1    3    3    0    0  0.66392305529E+01  0.36046590704E+01  0.12549841362E+02  0.14648258175E+02  0.00000000000E+00 0.  1.
</event>
<event>
 7    1  0.4675811E-010  0.4778728E+02  0.7816164E-02  0.1312668E+00
        -11   -1    0    0    0    0  0.00000000000E+00  0.00000000000E+00  0.45593999997E+02  0.45594000000E+02  0.51100000000E-03 0.  1.
         11   -1    0    0    0    0 -0.00000000000E+00 -0.00000000000E+00 -0.45593999997E+02  0.45594000000E+02  0.51100000000E-03 0. -1.
    9900012    2    1    2    0    0  0.37135551876E+02  0.33106824594E+01  0.22217394266E+02  0.47787280658E+02  0.20000043830E+02 0.  0.
        -12    1    1    2    0    0 -0.37135551876E+02 -0.33106824594E+01 -0.22217394266E+02  0.43400719342E+02  0.00000000000E+00 0.  1.
         11    1    3    3    0    0  0.13131614759E+02  0.18562918453E+01  0.10090310802E+02  0.16664318106E+02  0.51100000000E-03 0. -1.
        -11    1    3    3    0    0  0.12201790975E+02  0.53814434355E+01 -0.57080713130E+00  0.13348013242E+02  0.51100000000E-03 0.  1.
         12    1    3    3    0    0  0.11802146142E+02 -0.39270528215E+01  0.12697890595E+02  0.17774949310E+02  0.00000000000E+00 0. -1.
</event>
<event>
 7    1  0.4675811E-010  0.4778729E+02  0.7816164E-02  0.1312668E+00
        -11   -1    0    0    0    0  0.00000000000E+00  0.00000000000E+00  0.45593999997E+02  0.45594000000E+02  0.51100000000E-03 0.  1.
         11   -1    0    0    0    0 -0.00000000000E+00 -0.00000000000E+00 -0.45593999997E+02  0.45594000000E+02  0.51100000000E-03 0. -1.
    9900012    2    1    2    0    0  0.19245924545E+02  0.28037751615E+01 -0.38798902564E+02  0.47787290249E+02  0.20000087560E+02 0.  0.
        -12    1    1    2    0    0 -0.19245924545E+02 -0.28037751615E+01  0.38798902564E+02  0.43400709751E+02  0.00000000000E+00 0.  1.
         11    1    3    3    0    0  0.91683076495E+01  0.26433141468E+01 -0.95635859182E+01  0.13509520743E+02  0.51100000000E-03 0. -1.
        -11    1    3    3    0    0  0.56193472633E+01 -0.50475933614E+01 -0.49201474278E+01  0.90146055588E+01  0.51100000000E-03 0.  1.
         12    1    3    3    0    0  0.44582696319E+01  0.52080543761E+01 -0.24315169218E+02  0.25263163947E+02  0.00000000000E+00 0. -1.
</event>
<event>
 7    1  0.4675811E-010  0.4778727E+02  0.7816164E-02  0.1312668E+00
        -11   -1    0    0    0    0  0.00000000000E+00  0.00000000000E+00  0.45593999997E+02  0.45594000000E+02  0.51100000000E-03 0. -1.
         11   -1    0    0    0    0 -0.00000000000E+00 -0.00000000000E+00 -0.45593999997E+02  0.45594000000E+02  0.51100000000E-03 0.  1.
    9900012    2    1    2    0    0  0.33536113265E+02  0.26168422262E+02 -0.86119885366E+01  0.47787267711E+02  0.19999984803E+02 0.  0.
        -12    1    1    2    0    0 -0.33536113265E+02 -0.26168422262E+02  0.86119885366E+01  0.43400732289E+02  0.00000000000E+00 0.  1.
         11    1    3    3    0    0  0.17396611869E+02  0.12427168748E+02 -0.29274569714E+00  0.21381354679E+02  0.51100000000E-03 0. -1.
        -11    1    3    3    0    0  0.81706164164E+01  0.13735039524E+02 -0.17475681168E+01  0.16076824249E+02  0.51100000000E-03 0.  1.
         12    1    3    3    0    0  0.79688849801E+01  0.62139903554E-02 -0.65716747226E+01  0.10329088784E+02  0.00000000000E+00 0. -1.
</event>
<event>
 7    1  0.4675811E-010  0.4778727E+02  0.7816164E-02  0.1312668E+00
        -11   -1    0    0    0    0  0.00000000000E+00  0.00000000000E+00  0.45593999997E+02  0.45594000000E+02  0.51100000000E-03 0. -1.
         11   -1    0    0    0    0 -0.00000000000E+00 -0.00000000000E+00 -0.45593999997E+02  0.45594000000E+02  0.51100000000E-03 0.  1.
    9900012    2    1    2    0    0  0.16620438702E+02  0.35015981178E+02 -0.19526030129E+02  0.47787265293E+02  0.19999973778E+02 0.  0.
        -12    1    1    2    0    0 -0.16620438702E+02 -0.35015981178E+02  0.19526030129E+02  0.43400734707E+02  0.00000000000E+00 0.  1.
         11    1    3    3    0    0  0.57104366633E+01  0.77206937187E+01 -0.54766395108E+01  0.11054943644E+02  0.51100000000E-03 0. -1.
        -11    1    3    3    0    0  0.77484521787E+01  0.46893183050E+01  0.14069991274E+01  0.91655804037E+01  0.51100000000E-03 0.  1.
         12    1    3    3    0    0  0.31615498596E+01  0.22605969154E+02 -0.15456389746E+02  0.27566741245E+02  0.00000000000E+00 0. -1.
</event>
<event>
 7    1  0.4675811E-010  0.4778727E+02  0.7816164E-02  0.1312668E+00
        -11   -1    0    0    0    0  0.00000000000E+00  0.00000000000E+00  0.45593999997E+02  0.45594000000E+02  0.51100000000E-03 0.  1.
         11   -1    0    0    0    0 -0.00000000000E+00 -0.00000000000E+00 -0.45593999997E+02  0.45594000000E+02  0.51100000000E-03 0. -1.
    9900012    2    1    2    0    0  0.38121690411E+02  0.19602240948E+02 -0.67905816257E+01  0.47787272716E+02  0.20000007621E+02 0.  0.
        -12    1    1    2    0    0 -0.38121690411E+02 -0.19602240948E+02  0.67905816257E+01  0.43400727284E+02  0.00000000000E+00 0.  1.
         11    1    3    3    0    0  0.11886288952E+02  0.10671994057E+02 -0.48734625699E+01  0.16701076609E+02  0.51100000000E-03 0. -1.
        -11    1    3    3    0    0 -0.17308291180E+01  0.75402031009E+00 -0.29193362994E-01  0.18881653999E+01  0.51100000000E-03 0.  1.
         12    1    3    3    0    0  0.27966230577E+02  0.81762265809E+01 -0.18879256928E+01  0.29198030707E+02  0.00000000000E+00 0. -1.
</event>
<event>
 7    1  0.4675811E-010  0.4778727E+02  0.7816164E-02  0.1312668E+00
        -11   -1    0    0    0    0  0.00000000000E+00  0.00000000000E+00  0.45593999997E+02  0.45594000000E+02  0.51100000000E-03 0.  1.
         11   -1    0    0    0    0 -0.00000000000E+00 -0.00000000000E+00 -0.45593999997E+02  0.45594000000E+02  0.51100000000E-03 0. -1.
    9900012    2    1    2    0    0  0.31338914764E+00 -0.39337036927E+02 -0.18333651790E+02  0.47787268729E+02  0.19999989442E+02 0.  0.
        -12    1    1    2    0    0 -0.31338914764E+00  0.39337036927E+02  0.18333651790E+02  0.43400731271E+02  0.00000000000E+00 0.  1.
         11    1    3    3    0    0  0.23575587602E+00 -0.40210413866E+01 -0.26117610091E+01  0.48005885572E+01  0.51100000000E-03 0. -1.
        -11    1    3    3    0    0  0.89034158919E+01 -0.24244121708E+02 -0.10834841663E+02  0.28007892567E+02  0.51100000000E-03 0.  1.
         12    1    3    3    0    0 -0.88257826202E+01 -0.11071873833E+02 -0.48870491169E+01  0.14978787605E+02  0.00000000000E+00 0. -1.
</event>
<event>
 7    1  0.4675811E-010  0.4778726E+02  0.7816164E-02  0.1312668E+00
        -11   -1    0    0    0    0  0.00000000000E+00  0.00000000000E+00  0.45593999997E+02  0.45594000000E+02  0.51100000000E-03 0.  1.
         11   -1    0    0    0    0 -0.00000000000E+00 -0.00000000000E+00 -0.45593999997E+02  0.45594000000E+02  0.51100000000E-03 0. -1.
    9900012    2    1    2    0    0  0.10260547053E+02  0.29520725032E+02 -0.30114311830E+02  0.47787264877E+02  0.19999971880E+02 0.  0.
        -12    1    1    2    0    0 -0.10260547053E+02 -0.29520725032E+02  0.30114311830E+02  0.43400735123E+02  0.00000000000E+00 0.  1.
         11    1    3    3    0    0  0.52656470921E+01  0.18392693418E+02 -0.26063136356E+02  0.32331181349E+02  0.51100000000E-03 0. -1.
        -11    1    3    3    0    0  0.63535806563E+01  0.60920118512E+01 -0.50458724336E+01  0.10146005343E+02  0.51100000000E-03 0.  1.
        -12    1    3    3    0    0 -0.13586806954E+01  0.50360197629E+01  0.99469695957E+00  0.53100781846E+01  0.00000000000E+00 0.  1.
</event>
<event>
 7    1  0.4675811E-010  0.4778727E+02  0.7816164E-02  0.1312668E+00
        -11   -1    0    0    0    0  0.00000000000E+00  0.00000000000E+00  0.45593999997E+02  0.45594000000E+02  0.51100000000E-03 0.  1.
         11   -1    0    0    0    0 -0.00000000000E+00 -0.00000000000E+00 -0.45593999997E+02  0.45594000000E+02  0.51100000000E-03 0. -1.
    9900012    2    1    2    0    0  0.35071556351E+02 -0.23599411231E+01 -0.25456627401E+02  0.47787271140E+02  0.20000000435E+02 0.  0.
        -12    1    1    2    0    0 -0.35071556351E+02  0.23599411231E+01  0.25456627401E+02  0.43400728860E+02  0.00000000000E+00 0.  1.
         11    1    3    3    0    0 -0.48712109528E+00 -0.12379892528E+01  0.21725919932E+01  0.25475597307E+01  0.51100000000E-03 0. -1.
        -11    1    3    3    0    0  0.68931322304E+01  0.11585824174E+01 -0.66132336958E+01  0.96224968351E+01  0.51100000000E-03 0.  1.
         12    1    3    3    0    0  0.28665545216E+02 -0.22805342878E+01 -0.21015985698E+02  0.35617214574E+02  0.00000000000E+00 0. -1.
</event>
<event>
 7    1  0.4675811E-010  0.4778727E+02  0.7816164E-02  0.1312668E+00
        -11   -1    0    0    0    0  0.00000000000E+00  0.00000000000E+00  0.45593999997E+02  0.45594000000E+02  0.51100000000E-03 0.  1.
         11   -1    0    0    0    0 -0.00000000000E+00 -0.00000000000E+00 -0.45593999997E+02  0.45594000000E+02  0.51100000000E-03 0. -1.
    9900012    2    1    2    0    0  0.15928355961E+02  0.46308367793E+01 -0.40105684079E+02  0.47787273412E+02  0.20000010795E+02 0.  0.
        -12    1    1    2    0    0 -0.15928355961E+02 -0.46308367793E+01  0.40105684079E+02  0.43400726588E+02  0.00000000000E+00 0.  1.
         11    1    3    3    0    0  0.78810786060E+01  0.12223464287E+01 -0.24340248344E+02  0.25613535884E+02  0.51100000000E-03 0. -1.
        -11    1    3    3    0    0  0.12476497154E+01 -0.40599568303E+01 -0.91838622562E+01  0.10118458651E+02  0.51100000000E-03 0.  1.
         12    1    3    3    0    0  0.67996276401E+01  0.74684471809E+01 -0.65815734790E+01  0.12055278877E+02  0.00000000000E+00 0. -1.
</event>
<event>
 7    1  0.4675811E-010  0.4778727E+02  0.7816164E-02  0.1312668E+00
        -11   -1    0    0    0    0  0.00000000000E+00  0.00000000000E+00  0.45593999997E+02  0.45594000000E+02  0.51100000000E-03 0. -1.
         11   -1    0    0    0    0 -0.00000000000E+00 -0.00000000000E+00 -0.45593999997E+02  0.45594000000E+02  0.51100000000E-03 0.  1.
    9900012    2    1    2    0    0  0.12893482141E+02 -0.38657647732E+02  0.14932096287E+02  0.47787272939E+02  0.20000008637E+02 0.  0.
        -12    1    1    2    0    0 -0.12893482141E+02  0.38657647732E+02 -0.14932096287E+02  0.43400727061E+02  0.00000000000E+00 0.  1.
         11    1    3    3    0    0  0.36899689736E+01 -0.18020641793E+01  0.36558160506E+01  0.54980266996E+01  0.51100000000E-03 0. -1.
        -11    1    3    3    0    0  0.10184887362E+01 -0.79425353148E+01 -0.35761000199E+01  0.87698163120E+01  0.51100000000E-03 0.  1.
         12    1    3    3    0    0  0.81850244316E+01 -0.28913048238E+02  0.14852380256E+02  0.33519429927E+02  0.00000000000E+00 0. -1.
</event>
<event>
 7    1  0.4675811E-010  0.4778727E+02  0.7816164E-02  0.1312668E+00
        -11   -1    0    0    0    0  0.00000000000E+00  0.00000000000E+00  0.45593999997E+02  0.45594000000E+02  0.51100000000E-03 0.  1.
         11   -1    0    0    0    0 -0.00000000000E+00 -0.00000000000E+00 -0.45593999997E+02  0.45594000000E+02  0.51100000000E-03 0. -1.
    9900012    2    1    2    0    0  0.17855775849E+02  0.36095383033E+02  0.16183889551E+02  0.47787266268E+02  0.19999978221E+02 0.  0.
        -12    1    1    2    0    0 -0.17855775849E+02 -0.36095383033E+02 -0.16183889551E+02  0.43400733732E+02  0.00000000000E+00 0.  1.
         11    1    3    3    0    0  0.15303961209E+02  0.12643806799E+02  0.51598835445E+01  0.20511008691E+02  0.51100000000E-03 0. -1.
        -11    1    3    3    0    0  0.42281929336E+00 -0.43372174338E+00 -0.38793133526E+00  0.71929249093E+00  0.51100000000E-03 0.  1.
        -12    1    3    3    0    0  0.21289953468E+01  0.23885297978E+02  0.11411937342E+02  0.26556965086E+02  0.00000000000E+00 0.  1.
</event>
<event>
 7    1  0.4675811E-010  0.4778727E+02  0.7816164E-02  0.1312668E+00
        -11   -1    0    0    0    0  0.00000000000E+00  0.00000000000E+00  0.45593999997E+02  0.45594000000E+02  0.51100000000E-03 0.  1.
         11   -1    0    0    0    0 -0.00000000000E+00 -0.00000000000E+00 -0.45593999997E+02  0.45594000000E+02  0.51100000000E-03 0. -1.
    9900012    2    1    2    0    0 -0.35124438224E+02 -0.23014517987E+02  0.10964900908E+02  0.47787271312E+02  0.20000001220E+02 0.  0.
        -12    1    1    2    0    0  0.35124438224E+02  0.23014517987E+02 -0.10964900908E+02  0.43400728688E+02  0.00000000000E+00 0.  1.
         11    1    3    3    0    0 -0.27881324912E+01 -0.53697056473E+01 -0.41851558258E+01  0.73568302328E+01  0.51100000000E-03 0. -1.
        -11    1    3    3    0    0 -0.39710414085E+01 -0.37151782381E+01  0.45763918239E+01  0.71073962599E+01  0.51100000000E-03 0.  1.
        -12    1    3    3    0    0 -0.28365264324E+02 -0.13929634102E+02  0.10573664910E+02  0.33323044819E+02  0.00000000000E+00 0.  1.
</event>
<event>
 7    1  0.4675811E-010  0.4778727E+02  0.7816164E-02  0.1312668E+00
        -11   -1    0    0    0    0  0.00000000000E+00  0.00000000000E+00  0.45593999997E+02  0.45594000000E+02  0.51100000000E-03 0. -1.
         11   -1    0    0    0    0 -0.00000000000E+00 -0.00000000000E+00 -0.45593999997E+02  0.45594000000E+02  0.51100000000E-03 0.  1.
    9900012    2    1    2    0    0  0.21625072210E+02 -0.98201565766E+01  0.36325530984E+02  0.47787269309E+02  0.19999992085E+02 0.  0.
        -12    1    1    2    0    0 -0.21625072210E+02  0.98201565766E+01 -0.36325530984E+02  0.43400730691E+02  0.00000000000E+00 0.  1.
         11    1    3    3    0    0  0.97697551604E+01 -0.70111796381E+01  0.12998765662E+02  0.17707983081E+02  0.51100000000E-03 0.  1.
        -11    1    3    3    0    0  0.11437447696E+02 -0.78803020704E+01  0.16586243827E+02  0.21633720325E+02  0.51100000000E-03 0. -1.
        -12    1    3    3    0    0  0.41786935302E+00  0.50713251319E+01  0.67405214950E+01  0.84455659025E+01  0.00000000000E+00 0.  1.
</event>
<event>
 7    1  0.4675811E-010  0.4778727E+02  0.7816164E-02  0.1312668E+00
        -11   -1    0    0    0    0  0.00000000000E+00  0.00000000000E+00  0.45593999997E+02  0.45594000000E+02  0.51100000000E-03 0. -1.
         11   -1    0    0    0    0 -0.00000000000E+00 -0.00000000000E+00 -0.45593999997E+02  0.45594000000E+02  0.51100000000E-03 0.  1.
    9900012    2    1    2    0    0  0.67271516008E+01 -0.36229309896E+02 -0.22930451323E+02  0.47787273484E+02  0.20000011125E+02 0.  0.
        -12    1    1    2    0    0 -0.67271516008E+01  0.36229309896E+02  0.22930451323E+02  0.43400726516E+02  0.00000000000E+00 0.  1.
         11    1    3    3    0    0 -0.22356054515E+01 -0.30834956452E+01 -0.18279743532E+01  0.42246144943E+01  0.51100000000E-03 0. -1.
        -11    1    3    3    0    0  0.92058372475E+01 -0.18808381173E+02 -0.41304012538E+01  0.21343918491E+02  0.51100000000E-03 0.  1.
        -12    1    3    3    0    0 -0.24308019518E+00 -0.14337433078E+02 -0.16972075716E+02  0.22218740499E+02  0.00000000000E+00 0.  1.
</event>
<event>
 7    1  0.4675811E-010  0.4778727E+02  0.7816164E-02  0.1312668E+00
        -11   -1    0    0    0    0  0.00000000000E+00  0.00000000000E+00  0.45593999997E+02  0.45594000000E+02  0.51100000000E-03 0. -1.
         11   -1    0    0    0    0 -0.00000000000E+00 -0.00000000000E+00 -0.45593999997E+02  0.45594000000E+02  0.51100000000E-03 0.  1.
    9900012    2    1    2    0    0 -0.12226471020E+02  0.35927448628E+02  0.21055997000E+02  0.47787272262E+02  0.20000005553E+02 0.  0.
        -12    1    1    2    0    0  0.12226471020E+02 -0.35927448628E+02 -0.21055997000E+02  0.43400727738E+02  0.00000000000E+00 0.  1.
         11    1    3    3    0    0  0.19093898133E+01 -0.92966605709E+00  0.42790974814E+01  0.47771041388E+01  0.51100000000E-03 0.  1.
        -11    1    3    3    0    0 -0.14790906934E+01  0.71463543092E+01  0.34889054750E+01  0.80889153084E+01  0.51100000000E-03 0. -1.
        -12    1    3    3    0    0 -0.12656770140E+02  0.29710760376E+02  0.13287994044E+02  0.34921252815E+02  0.00000000000E+00 0.  1.
</event>
<event>
 7    1  0.4675811E-010  0.4778727E+02  0.7816164E-02  0.1312668E+00
        -11   -1    0    0    0    0  0.00000000000E+00  0.00000000000E+00  0.45593999997E+02  0.45594000000E+02  0.51100000000E-03 0. -1.
         11   -1    0    0    0    0 -0.00000000000E+00 -0.00000000000E+00 -0.45593999997E+02  0.45594000000E+02  0.51100000000E-03 0.  1.
    9900012    2    1    2    0    0 -0.42172876338E+02 -0.57071675304E+01 -0.85146882650E+01  0.47787272171E+02  0.20000005138E+02 0.  0.
        -12    1    1    2    0    0  0.42172876338E+02  0.57071675304E+01  0.85146882650E+01  0.43400727829E+02  0.00000000000E+00 0.  1.
         11    1    3    3    0    0 -0.26199830966E+02  0.49967569587E+00 -0.77117869122E+01  0.27315791698E+02  0.51100000000E-03 0. -1.
        -11    1    3    3    0    0 -0.17567090209E+02 -0.66617457964E+01 -0.56044556946E+00  0.18796159580E+02  0.51100000000E-03 0.  1.
        -12    1    3    3    0    0  0.15940448367E+01  0.45490257013E+00 -0.24245578337E+00  0.16753208937E+01  0.00000000000E+00 0.  1.
</event>
<event>
 7    1  0.4675811E-010  0.4778727E+02  0.7816164E-02  0.1312668E+00
        -11   -1    0    0    0    0  0.00000000000E+00  0.00000000000E+00  0.45593999997E+02  0.45594000000E+02  0.51100000000E-03 0.  1.
         11   -1    0    0    0    0 -0.00000000000E+00 -0.00000000000E+00 -0.45593999997E+02  0.45594000000E+02  0.51100000000E-03 0. -1.
    9900012    2    1    2    0    0  0.13772089988E+02 -0.31036167538E+02 -0.27031628645E+02  0.47787272987E+02  0.20000008858E+02 0.  0.
        -12    1    1    2    0    0 -0.13772089988E+02  0.31036167538E+02  0.27031628645E+02  0.43400727013E+02  0.00000000000E+00 0.  1.
         11    1    3    3    0    0  0.30168641330E+01 -0.15646910914E+02 -0.10859717114E+02  0.19283691203E+02  0.51100000000E-03 0. -1.
        -11    1    3    3    0    0 -0.22704988622E+01 -0.82904645685E+01 -0.67572396295E+01  0.10933766758E+02  0.51100000000E-03 0.  1.
        -12    1    3    3    0    0  0.13025724717E+02 -0.70987920546E+01 -0.94146719009E+01  0.17569815026E+02  0.00000000000E+00 0.  1.
</event>
<event>
 7    1  0.4675811E-010  0.4778727E+02  0.7816164E-02  0.1312668E+00
        -11   -1    0    0    0    0  0.00000000000E+00  0.00000000000E+00  0.45593999997E+02  0.45594000000E+02  0.51100000000E-03 0.  1.
         11   -1    0    0    0    0 -0.00000000000E+00 -0.00000000000E+00 -0.45593999997E+02  0.45594000000E+02  0.51100000000E-03 0. -1.
    9900012    2    1    2    0    0  0.19698319293E+02 -0.36163580938E+02 -0.13703829428E+02  0.47787270626E+02  0.19999998093E+02 0.  0.
        -12    1    1    2    0    0 -0.19698319293E+02  0.36163580938E+02  0.13703829428E+02  0.43400729374E+02  0.00000000000E+00 0.  1.
         11    1    3    3    0    0 -0.91223066814E+00 -0.18864696749E+01 -0.53127358518E+01  0.57110502640E+01  0.51100000000E-03 0. -1.
        -11    1    3    3    0    0  0.95460634309E+00 -0.35715661066E+01 -0.38481523376E+01  0.53362565904E+01  0.51100000000E-03 0.  1.
        -12    1    3    3    0    0  0.19655943618E+02 -0.30705545156E+02 -0.45429412383E+01  0.36739963772E+02  0.00000000000E+00 0.  1.
</event>
<event>
 7    1  0.4675811E-010  0.4778727E+02  0.7816164E-02  0.1312668E+00
        -11   -1    0    0    0    0  0.00000000000E+00  0.00000000000E+00  0.45593999997E+02  0.45594000000E+02  0.51100000000E-03 0. -1.
         11   -1    0    0    0    0 -0.00000000000E+00 -0.00000000000E+00 -0.45593999997E+02  0.45594000000E+02  0.51100000000E-03 0.  1.
    9900012    2    1    2    0    0 -0.12519866174E+02 -0.36501094966E+02  0.19863188877E+02  0.47787271260E+02  0.20000000985E+02 0.  0.
        -12    1    1    2    0    0  0.12519866174E+02  0.36501094966E+02 -0.19863188877E+02  0.43400728740E+02  0.00000000000E+00 0.  1.
         11    1    3    3    0    0 -0.49688518696E+01 -0.21830887792E+02  0.69373864783E+01  0.23439378876E+02  0.51100000000E-03 0. -1.
        -11    1    3    3    0    0  0.28666765988E+01 -0.72175177983E+01  0.57765390005E+01  0.96787809654E+01  0.51100000000E-03 0.  1.
         12    1    3    3    0    0 -0.10417690903E+02 -0.74526893761E+01  0.71492633987E+01  0.14669111419E+02  0.00000000000E+00 0. -1.
</event>
<event>
 7    1  0.4675811E-010  0.4778727E+02  0.7816164E-02  0.1312668E+00
        -11   -1    0    0    0    0  0.00000000000E+00  0.00000000000E+00  0.45593999997E+02  0.45594000000E+02  0.51100000000E-03 0.  1.
         11   -1    0    0    0    0 -0.00000000000E+00 -0.00000000000E+00 -0.45593999997E+02  0.45594000000E+02  0.51100000000E-03 0. -1.
    9900012    2    1    2    0    0  0.23669519323E+01  0.32712077506E+02 -0.28424301214E+02  0.47787269871E+02  0.19999994650E+02 0.  0.
        -12    1    1    2    0    0 -0.23669519323E+01 -0.32712077506E+02  0.28424301214E+02  0.43400730129E+02  0.00000000000E+00 0.  1.
         11    1    3    3    0    0  0.32796378482E+01  0.16003387810E+02 -0.76477231425E+01  0.18037519656E+02  0.51100000000E-03 0. -1.
        -11    1    3    3    0    0  0.37076215244E+01  0.10756001330E+02 -0.53311460188E+01  0.12564200735E+02  0.51100000000E-03 0.  1.
         12    1    3    3    0    0 -0.46203074402E+01  0.59526883661E+01 -0.15445432052E+02  0.17185549480E+02  0.00000000000E+00 0. -1.
</event>
<event>
 7    1  0.4675811E-010  0.4778728E+02  0.7816164E-02  0.1312668E+00
        -11   -1    0    0    0    0  0.00000000000E+00  0.00000000000E+00  0.45593999997E+02  0.45594000000E+02  0.51100000000E-03 0.  1.
         11   -1    0    0    0    0 -0.00000000000E+00 -0.00000000000E+00 -0.45593999997E+02  0.45594000000E+02  0.51100000000E-03 0. -1.
    9900012    2    1    2    0    0  0.13033997197E+02  0.85570801399E+01 -0.40503259095E+02  0.47787277647E+02  0.20000030102E+02 0.  0.
        -12    1    1    2    0    0 -0.13033997197E+02 -0.85570801399E+01  0.40503259095E+02  0.43400722353E+02  0.00000000000E+00 0.  1.
         11    1    3    3    0    0  0.64758458763E+01  0.26786841753E+01 -0.13891480260E+02  0.15559085860E+02  0.51100000000E-03 0. -1.
        -11    1    3    3    0    0  0.42747590684E+01  0.72682487014E+01 -0.27981627146E+02  0.29224518170E+02  0.51100000000E-03 0.  1.
         12    1    3    3    0    0  0.22833922519E+01 -0.13898527368E+01  0.13698483099E+01  0.30036736171E+01  0.00000000000E+00 0. -1.
</event>
<event>
 7    1  0.4675811E-010  0.4778727E+02  0.7816164E-02  0.1312668E+00
        -11   -1    0    0    0    0  0.00000000000E+00  0.00000000000E+00  0.45593999997E+02  0.45594000000E+02  0.51100000000E-03 0. -1.
         11   -1    0    0    0    0 -0.00000000000E+00 -0.00000000000E+00 -0.45593999997E+02  0.45594000000E+02  0.51100000000E-03 0.  1.
    9900012    2    1    2    0    0  0.73534334816E+01  0.54320501091E+00  0.42769794525E+02  0.47787269829E+02  0.19999994457E+02 0.  0.
        -12    1    1    2    0    0 -0.73534334816E+01 -0.54320501091E+00 -0.42769794525E+02  0.43400730171E+02  0.00000000000E+00 0.  1.
         11    1    3    3    0    0 -0.30614523390E+00 -0.58391462299E+01  0.24669944256E+02  0.25353412068E+02  0.51100000000E-03 0. -1.
        -11    1    3    3    0    0  0.12670179603E+01 -0.26586168229E+00  0.10224133186E+02  0.10305771034E+02  0.51100000000E-03 0.  1.
        -12    1    3    3    0    0  0.63925607552E+01  0.66482129231E+01  0.78757170829E+01  0.12128086727E+02  0.00000000000E+00 0.  1.
</event>
<event>
 7    1  0.4675811E-010  0.4778727E+02  0.7816164E-02  0.1312668E+00
        -11   -1    0    0    0    0  0.00000000000E+00  0.00000000000E+00  0.45593999997E+02  0.45594000000E+02  0.51100000000E-03 0. -1.
         11   -1    0    0    0    0 -0.00000000000E+00 -0.00000000000E+00 -0.45593999997E+02  0.45594000000E+02  0.51100000000E-03 0.  1.
    9900012    2    1    2    0    0  0.17332425058E+02 -0.31812627230E+02 -0.23899105924E+02  0.47787268743E+02  0.19999989508E+02 0.  0.
        -12    1    1    2    0    0 -0.17332425058E+02  0.31812627230E+02  0.23899105924E+02  0.43400731257E+02  0.00000000000E+00 0.  1.
         11    1    3    3    0    0  0.49099810725E+01 -0.28785163168E+01 -0.16946010181E+01  0.59384714523E+01  0.51100000000E-03 0. -1.
        -11    1    3    3    0    0 -0.28063431014E+01 -0.87522284602E+01 -0.18148295014E+01  0.93686002691E+01  0.51100000000E-03 0.  1.
         12    1    3    3    0    0  0.15228787087E+02 -0.20181882453E+02 -0.20389675405E+02  0.32480197022E+02  0.00000000000E+00 0. -1.
</event>
<event>
 7    1  0.4675811E-010  0.4778727E+02  0.7816164E-02  0.1312668E+00
        -11   -1    0    0    0    0  0.00000000000E+00  0.00000000000E+00  0.45593999997E+02  0.45594000000E+02  0.51100000000E-03 0.  1.
         11   -1    0    0    0    0 -0.00000000000E+00 -0.00000000000E+00 -0.45593999997E+02  0.45594000000E+02  0.51100000000E-03 0. -1.
    9900012    2    1    2    0    0  0.52636193031E+01 -0.36633739632E+02 -0.22669069930E+02  0.47787270754E+02  0.19999998675E+02 0.  0.
        -12    1    1    2    0    0 -0.52636193031E+01  0.36633739632E+02  0.22669069930E+02  0.43400729246E+02  0.00000000000E+00 0.  1.
         11    1    3    3    0    0  0.44379831424E+01 -0.80203832440E+01  0.26629470385E+01  0.95453406929E+01  0.51100000000E-03 0.  1.
        -11    1    3    3    0    0  0.19100433123E+00 -0.84978731229E+01 -0.68309754571E+01  0.10904703399E+02  0.51100000000E-03 0. -1.
        -12    1    3    3    0    0  0.63463182946E+00 -0.20115483265E+02 -0.18501041511E+02  0.27337226662E+02  0.00000000000E+00 0.  1.
</event>
<event>
 7    1  0.4675811E-010  0.4778728E+02  0.7816164E-02  0.1312668E+00
        -11   -1    0    0    0    0  0.00000000000E+00  0.00000000000E+00  0.45593999997E+02  0.45594000000E+02  0.51100000000E-03 0.  1.
         11   -1    0    0    0    0 -0.00000000000E+00 -0.00000000000E+00 -0.45593999997E+02  0.45594000000E+02  0.51100000000E-03 0. -1.
    9900012    2    1    2    0    0  0.20606301383E+02  0.50515773317E+00 -0.38193550668E+02  0.47787283951E+02  0.20000058844E+02 0.  0.
        -12    1    1    2    0    0 -0.20606301383E+02 -0.50515773317E+00  0.38193550668E+02  0.43400716049E+02  0.00000000000E+00 0.  1.
         11    1    3    3    0    0  0.71312851052E+01  0.28243032084E+01 -0.52731941697E+01  0.93079800643E+01  0.51100000000E-03 0.  1.
        -11    1    3    3    0    0  0.14621246638E+02 -0.58613069259E+01 -0.22944598160E+02  0.27831463439E+02  0.51100000000E-03 0. -1.
        -12    1    3    3    0    0 -0.11462303612E+01  0.35421614507E+01 -0.99757583377E+01  0.10647840448E+02  0.00000000000E+00 0.  1.
</event>
<event>
 7    1  0.4675811E-010  0.4778727E+02  0.7816164E-02  0.1312668E+00
        -11   -1    0    0    0    0  0.00000000000E+00  0.00000000000E+00  0.45593999997E+02  0.45594000000E+02  0.51100000000E-03 0.  1.
         11   -1    0    0    0    0 -0.00000000000E+00 -0.00000000000E+00 -0.45593999997E+02  0.45594000000E+02  0.51100000000E-03 0. -1.
    9900012    2    1    2    0    0 -0.15586970765E+02  0.24084474072E+01 -0.40433517741E+02  0.47787266901E+02  0.19999981110E+02 0.  0.
        -12    1    1    2    0    0  0.15586970765E+02 -0.24084474072E+01  0.40433517741E+02  0.43400733099E+02  0.00000000000E+00 0.  1.
         11    1    3    3    0    0  0.14835409607E+01  0.98389147264E+00 -0.77726995653E+00  0.19424430644E+01  0.51100000000E-03 0. -1.
        -11    1    3    3    0    0 -0.92004723255E+01  0.16257258700E+01 -0.56048971494E+01  0.10895253459E+02  0.51100000000E-03 0.  1.
         12    1    3    3    0    0 -0.78700394005E+01 -0.20116993546E+00 -0.34051350636E+02  0.34949570378E+02  0.00000000000E+00 0. -1.
</event>
<event>
 7    1  0.4675811E-010  0.4778732E+02  0.7816164E-02  0.1312668E+00
        -11   -1    0    0    0    0  0.00000000000E+00  0.00000000000E+00  0.45593999997E+02  0.45594000000E+02  0.51100000000E-03 0.  1.
         11   -1    0    0    0    0 -0.00000000000E+00 -0.00000000000E+00 -0.45593999997E+02  0.45594000000E+02  0.51100000000E-03 0. -1.
    9900012    2    1    2    0    0 -0.17777731895E+02  0.16407595548E+02 -0.36032794149E+02  0.47787318010E+02  0.20000214134E+02 0.  0.
        -12    1    1    2    0    0  0.17777731895E+02 -0.16407595548E+02  0.36032794149E+02  0.43400681990E+02  0.00000000000E+00 0.  1.
         11    1    3    3    0    0 -0.37595330952E+01  0.59863334513E+01 -0.18526483662E+02  0.19829293341E+02  0.51100000000E-03 0. -1.
        -11    1    3    3    0    0 -0.88155662918E+01  0.23354362108E+00 -0.12899849029E+02  0.15626095382E+02  0.51100000000E-03 0.  1.
        -12    1    3    3    0    0 -0.52026325077E+01  0.10187718476E+02 -0.46064614584E+01  0.12331929286E+02  0.00000000000E+00 0.  1.
</event>
<event>
 7    1  0.4675811E-010  0.4778727E+02  0.7816164E-02  0.1312668E+00
        -11   -1    0    0    0    0  0.00000000000E+00  0.00000000000E+00  0.45593999997E+02  0.45594000000E+02  0.51100000000E-03 0.  1.
         11   -1    0    0    0    0 -0.00000000000E+00 -0.00000000000E+00 -0.45593999997E+02  0.45594000000E+02  0.51100000000E-03 0. -1.
    9900012    2    1    2    0    0 -0.35798520387E+02  0.23850961363E+02  0.57637569915E+01  0.47787270576E+02  0.19999997864E+02 0.  0.
        -12    1    1    2    0    0  0.35798520387E+02 -0.23850961363E+02 -0.57637569915E+01  0.43400729424E+02  0.00000000000E+00 0.  1.
         11    1    3    3    0    0 -0.10306169177E+02  0.94556619234E+00 -0.26176759364E+01  0.10675366321E+02  0.51100000000E-03 0. -1.
        -11    1    3    3    0    0 -0.40933619637E+01  0.12286183625E+01  0.48243478317E+01  0.64451103567E+01  0.51100000000E-03 0.  1.
        -12    1    3    3    0    0 -0.21398989247E+02  0.21676776809E+02  0.35570850962E+01  0.30666793898E+02  0.00000000000E+00 0.  1.
</event>
<event>
 7    1  0.4675811E-010  0.4778727E+02  0.7816164E-02  0.1312668E+00
        -11   -1    0    0    0    0  0.00000000000E+00  0.00000000000E+00  0.45593999997E+02  0.45594000000E+02  0.51100000000E-03 0. -1.
         11   -1    0    0    0    0 -0.00000000000E+00 -0.00000000000E+00 -0.45593999997E+02  0.45594000000E+02  0.51100000000E-03 0.  1.
    9900012    2    1    2    0    0  0.15940116585E+02 -0.28181304784E+01  0.40269021387E+02  0.47787271209E+02  0.20000000750E+02 0.  0.
        -12    1    1    2    0    0 -0.15940116585E+02  0.28181304784E+01 -0.40269021387E+02  0.43400728791E+02  0.00000000000E+00 0.  1.
         11    1    3    3    0    0  0.17944388212E+02  0.17459874297E+01  0.24172699094E+02  0.30155744430E+02  0.51100000000E-03 0. -1.
        -11    1    3    3    0    0 -0.15919205585E+00  0.11594438404E+01  0.30139919018E+01  0.32332336097E+01  0.51100000000E-03 0.  1.
         12    1    3    3    0    0 -0.18450795708E+01 -0.57235617485E+01  0.13082330391E+02  0.14398293169E+02  0.00000000000E+00 0. -1.
</event>
<event>
 7    1  0.4675811E-010  0.4778727E+02  0.7816164E-02  0.1312668E+00
        -11   -1    0    0    0    0  0.00000000000E+00  0.00000000000E+00  0.45593999997E+02  0.45594000000E+02  0.51100000000E-03 0.  1.
         11   -1    0    0    0    0 -0.00000000000E+00 -0.00000000000E+00 -0.45593999997E+02  0.45594000000E+02  0.51100000000E-03 0. -1.
    9900012    2    1    2    0    0 -0.73024397045E+01 -0.34142942703E+02 -0.25778999683E+02  0.47787274352E+02  0.20000015082E+02 0.  0.
        -12    1    1    2    0    0  0.73024397045E+01  0.34142942703E+02  0.25778999683E+02  0.43400725648E+02  0.00000000000E+00 0.  1.
         11    1    3    3    0    0  0.34534553261E+01 -0.47440148887E+01 -0.65765404735E+01  0.88137912281E+01  0.51100000000E-03 0. -1.
        -11    1    3    3    0    0 -0.67975149050E+00 -0.19905473648E+02 -0.94903883336E+01  0.22062579501E+02  0.51100000000E-03 0.  1.
        -12    1    3    3    0    0 -0.10076143540E+02 -0.94934541665E+01 -0.97120708763E+01  0.16910903623E+02  0.00000000000E+00 0.  1.
</event>
<event>
 7    1  0.4675811E-010  0.4778726E+02  0.7816164E-02  0.1312668E+00
        -11   -1    0    0    0    0  0.00000000000E+00  0.00000000000E+00  0.45593999997E+02  0.45594000000E+02  0.51100000000E-03 0. -1.
         11   -1    0    0    0    0 -0.00000000000E+00 -0.00000000000E+00 -0.45593999997E+02  0.45594000000E+02  0.51100000000E-03 0.  1.
    9900012    2    1    2    0    0 -0.30833047729E+02  0.15014275118E+02  0.26599221511E+02  0.47787264124E+02  0.19999968447E+02 0.  0.
        -12    1    1    2    0    0  0.30833047729E+02 -0.15014275118E+02 -0.26599221511E+02  0.43400735876E+02  0.00000000000E+00 0.  1.
         11    1    3    3    0    0 -0.12508000485E+02  0.13233398336E+02  0.11556177394E+02  0.21566597874E+02  0.51100000000E-03 0. -1.
        -11    1    3    3    0    0  0.14838836523E+01 -0.41670140415E+00  0.12216406208E+01  0.19667121856E+01  0.51100000000E-03 0.  1.
        -12    1    3    3    0    0 -0.19808930896E+02  0.21975781864E+01  0.13821403497E+02  0.24253954064E+02  0.00000000000E+00 0.  1.
</event>
<event>
 7    1  0.4675811E-010  0.4778726E+02  0.7816164E-02  0.1312668E+00
        -11   -1    0    0    0    0  0.00000000000E+00  0.00000000000E+00  0.45593999997E+02  0.45594000000E+02  0.51100000000E-03 0.  1.
         11   -1    0    0    0    0 -0.00000000000E+00 -0.00000000000E+00 -0.45593999997E+02  0.45594000000E+02  0.51100000000E-03 0. -1.
    9900012    2    1    2    0    0  0.21052155681E+02 -0.17670835249E+02 -0.33588283287E+02  0.47787257479E+02  0.19999938148E+02 0.  0.
        -12    1    1    2    0    0 -0.21052155681E+02  0.17670835249E+02  0.33588283287E+02  0.43400742521E+02  0.00000000000E+00 0.  1.
         11    1    3    3    0    0  0.61171629500E+01 -0.45540998794E+01 -0.29500993115E+01  0.81769550860E+01  0.51100000000E-03 0. -1.
        -11    1    3    3    0    0 -0.12055866716E+00 -0.43489368664E+01  0.16342502188E-01  0.43506382979E+01  0.51100000000E-03 0.  1.
         12    1    3    3    0    0  0.15055551399E+02 -0.87677985030E+01 -0.30654526478E+02  0.35259664095E+02  0.00000000000E+00 0. -1.
</event>
<event>
 7    1  0.4675811E-010  0.4778727E+02  0.7816164E-02  0.1312668E+00
        -11   -1    0    0    0    0  0.00000000000E+00  0.00000000000E+00  0.45593999997E+02  0.45594000000E+02  0.51100000000E-03 0. -1.
         11   -1    0    0    0    0 -0.00000000000E+00 -0.00000000000E+00 -0.45593999997E+02  0.45594000000E+02  0.51100000000E-03 0.  1.
    9900012    2    1    2    0    0  0.34650811444E+02  0.23213863609E+02  0.12002551802E+02  0.47787269048E+02  0.19999990898E+02 0.  0.
        -12    1    1    2    0    0 -0.34650811444E+02 -0.23213863609E+02 -0.12002551802E+02  0.43400730952E+02  0.00000000000E+00 0.  1.
         11    1    3    3    0    0  0.32063343117E+02  0.17409496691E+02  0.49076195087E+01  0.36813493129E+02  0.51100000000E-03 0. -1.
        -11    1    3    3    0    0  0.22819955009E+01  0.60076467323E+01  0.34185633822E+01  0.72791413357E+01  0.51100000000E-03 0.  1.
        -12    1    3    3    0    0  0.30547282608E+00 -0.20327981417E+00  0.36763689116E+01  0.36946345833E+01  0.00000000000E+00 0.  1.
</event>
<event>
 7    1  0.4675811E-010  0.4778727E+02  0.7816164E-02  0.1312668E+00
        -11   -1    0    0    0    0  0.00000000000E+00  0.00000000000E+00  0.45593999997E+02  0.45594000000E+02  0.51100000000E-03 0. -1.
         11   -1    0    0    0    0 -0.00000000000E+00 -0.00000000000E+00 -0.45593999997E+02  0.45594000000E+02  0.51100000000E-03 0.  1.
    9900012    2    1    2    0    0  0.99236694810E+01  0.42007206548E+02 -0.45319294647E+01  0.47787274169E+02  0.20000014247E+02 0.  0.
        -12    1    1    2    0    0 -0.99236694810E+01 -0.42007206548E+02  0.45319294647E+01  0.43400725831E+02  0.00000000000E+00 0.  1.
         11    1    3    3    0    0 -0.42635524152E-01  0.92022245931E+00  0.58347011866E+00  0.10904424804E+01  0.51100000000E-03 0. -1.
        -11    1    3    3    0    0  0.15986632006E+01  0.37794795167E+01 -0.73276717814E+01  0.83985095965E+01  0.51100000000E-03 0.  1.
        -12    1    3    3    0    0  0.83676418046E+01  0.37307504573E+02  0.22122721980E+01  0.38298322092E+02  0.00000000000E+00 0.  1.
</event>
<event>
 7    1  0.4675811E-010  0.4778727E+02  0.7816164E-02  0.1312668E+00
        -11   -1    0    0    0    0  0.00000000000E+00  0.00000000000E+00  0.45593999997E+02  0.45594000000E+02  0.51100000000E-03 0.  1.
         11   -1    0    0    0    0 -0.00000000000E+00 -0.00000000000E+00 -0.45593999997E+02  0.45594000000E+02  0.51100000000E-03 0. -1.
    9900012    2    1    2    0    0 -0.79775072515E+01  0.22159070317E+02 -0.36454886732E+02  0.47787265146E+02  0.19999973105E+02 0.  0.
        -12    1    1    2    0    0  0.79775072515E+01 -0.22159070317E+02  0.36454886732E+02  0.43400734854E+02  0.00000000000E+00 0.  1.
         11    1    3    3    0    0  0.12034750167E+01  0.26284276398E+01  0.58973844630E+00  0.29503856815E+01  0.51100000000E-03 0. -1.
        -11    1    3    3    0    0 -0.23224442663E+01  0.10000795843E+00 -0.12842365343E+02  0.13051057306E+02  0.51100000000E-03 0.  1.
         12    1    3    3    0    0 -0.68585380019E+01  0.19430634719E+02 -0.24202259835E+02  0.31785822158E+02  0.00000000000E+00 0. -1.
</event>
<event>
 7    1  0.4675811E-010  0.4778725E+02  0.7816164E-02  0.1312668E+00
        -11   -1    0    0    0    0  0.00000000000E+00  0.00000000000E+00  0.45593999997E+02  0.45594000000E+02  0.51100000000E-03 0. -1.
         11   -1    0    0    0    0 -0.00000000000E+00 -0.00000000000E+00 -0.45593999997E+02  0.45594000000E+02  0.51100000000E-03 0.  1.
    9900012    2    1    2    0    0  0.13751562231E+02  0.26080651653E+01  0.41081845933E+02  0.47787245019E+02  0.19999881340E+02 0.  0.
        -12    1    1    2    0    0 -0.13751562231E+02 -0.26080651653E+01 -0.41081845933E+02  0.43400754981E+02  0.00000000000E+00 0.  1.
         11    1    3    3    0    0  0.15342776718E+02  0.29129632401E+01  0.30533215177E+02  0.34295238468E+02  0.51100000000E-03 0. -1.
        -11    1    3    3    0    0  0.76120506220E-01  0.36637148229E+01  0.70476560281E+01  0.79434285033E+01  0.51100000000E-03 0.  1.
         12    1    3    3    0    0 -0.16673349934E+01 -0.39686128977E+01  0.35009747270E+01  0.55485780477E+01  0.00000000000E+00 0. -1.
</event>
<event>
 7    1  0.4675811E-010  0.4778727E+02  0.7816164E-02  0.1312668E+00
        -11   -1    0    0    0    0  0.00000000000E+00  0.00000000000E+00  0.45593999997E+02  0.45594000000E+02  0.51100000000E-03 0.  1.
         11   -1    0    0    0    0 -0.00000000000E+00 -0.00000000000E+00 -0.45593999997E+02  0.45594000000E+02  0.51100000000E-03 0. -1.
    9900012    2    1    2    0    0 -0.28928829064E+02 -0.29923861119E+02 -0.12300762540E+02  0.47787269887E+02  0.19999994725E+02 0.  0.
        -12    1    1    2    0    0  0.28928829064E+02  0.29923861119E+02  0.12300762540E+02  0.43400730113E+02  0.00000000000E+00 0.  1.
         11    1    3    3    0    0 -0.60303975745E+01  0.86656356288E+00 -0.22345404581E+01  0.64892063179E+01  0.51100000000E-03 0.  1.
        -11    1    3    3    0    0 -0.35458875573E+00 -0.59793403457E+01 -0.40723620964E+01  0.72430917060E+01  0.51100000000E-03 0. -1.
        -12    1    3    3    0    0 -0.22543842733E+02 -0.24811084336E+02 -0.59938599852E+01  0.34054971864E+02  0.00000000000E+00 0.  1.
</event>
<event>
 7    1  0.4675811E-010  0.4778728E+02  0.7816164E-02  0.1312668E+00
        -11   -1    0    0    0    0  0.00000000000E+00  0.00000000000E+00  0.45593999997E+02  0.45594000000E+02  0.51100000000E-03 0.  1.
         11   -1    0    0    0    0 -0.00000000000E+00 -0.00000000000E+00 -0.45593999997E+02  0.45594000000E+02  0.51100000000E-03 0. -1.
    9900012    2    1    2    0    0  0.34947958242E+02  0.21652409592E+02  0.13908109971E+02  0.47787284000E+02  0.20000059068E+02 0.  0.
        -12    1    1    2    0    0 -0.34947958242E+02 -0.21652409592E+02 -0.13908109971E+02  0.43400716000E+02  0.00000000000E+00 0.  1.
         11    1    3    3    0    0  0.28546035382E+02  0.19321160444E+02  0.93476162249E+01  0.35715001138E+02  0.51100000000E-03 0. -1.
        -11    1    3    3    0    0  0.48873291122E+01  0.51565606975E+01  0.51988738411E+01  0.88036579644E+01  0.51100000000E-03 0.  1.
        -12    1    3    3    0    0  0.15145937477E+01 -0.28253115500E+01 -0.63838009539E+00  0.32686248976E+01  0.00000000000E+00 0.  1.
</event>
<event>
 7    1  0.4675811E-010  0.4778727E+02  0.7816164E-02  0.1312668E+00
        -11   -1    0    0    0    0  0.00000000000E+00  0.00000000000E+00  0.45593999997E+02  0.45594000000E+02  0.51100000000E-03 0.  1.
         11   -1    0    0    0    0 -0.00000000000E+00 -0.00000000000E+00 -0.45593999997E+02  0.45594000000E+02  0.51100000000E-03 0. -1.
    9900012    2    1    2    0    0 -0.38580810831E+02 -0.13881500989E+02 -0.14228426725E+02  0.47787272343E+02  0.20000005919E+02 0.  0.
        -12    1    1    2    0    0  0.38580810831E+02  0.13881500989E+02  0.14228426725E+02  0.43400727657E+02  0.00000000000E+00 0.  1.
         11    1    3    3    0    0 -0.98993633815E+00 -0.52472331526E+00 -0.22131657267E+01  0.24806070439E+01  0.51100000000E-03 0. -1.
        -11    1    3    3    0    0 -0.21905966055E+02 -0.80019339196E+01  0.22622179575E+01  0.23431174226E+02  0.51100000000E-03 0.  1.
         12    1    3    3    0    0 -0.15684908438E+02 -0.53548437542E+01 -0.14277478956E+02  0.21875491073E+02  0.00000000000E+00 0. -1.
</event>
<event>
 7    1  0.4675811E-010  0.4778727E+02  0.7816164E-02  0.1312668E+00
        -11   -1    0    0    0    0  0.00000000000E+00  0.00000000000E+00  0.45593999997E+02  0.45594000000E+02  0.51100000000E-03 0.  1.
         11   -1    0    0    0    0 -0.00000000000E+00 -0.00000000000E+00 -0.45593999997E+02  0.45594000000E+02  0.51100000000E-03 0. -1.
    9900012    2    1    2    0    0 -0.16246736105E+02 -0.38220983226E+02 -0.12602507377E+02  0.47787272068E+02  0.20000004667E+02 0.  0.
        -12    1    1    2    0    0  0.16246736105E+02  0.38220983226E+02  0.12602507377E+02  0.43400727932E+02  0.00000000000E+00 0.  1.
         11    1    3    3    0    0 -0.45148482358E+01 -0.70171406682E-01 -0.50827876981E+00  0.45439108913E+01  0.51100000000E-03 0. -1.
        -11    1    3    3    0    0 -0.85377775967E+01 -0.10892641965E+02 -0.19150933990E+01  0.13971788656E+02  0.51100000000E-03 0.  1.
         12    1    3    3    0    0 -0.31941102725E+01 -0.27258169855E+02 -0.10179135208E+02  0.29271572521E+02  0.00000000000E+00 0. -1.
</event>
<event>
 7    1  0.4675811E-010  0.4778727E+02  0.7816164E-02  0.1312668E+00
        -11   -1    0    0    0    0  0.00000000000E+00  0.00000000000E+00  0.45593999997E+02  0.45594000000E+02  0.51100000000E-03 0.  1.
         11   -1    0    0    0    0 -0.00000000000E+00 -0.00000000000E+00 -0.45593999997E+02  0.45594000000E+02  0.51100000000E-03 0. -1.
    9900012    2    1    2    0    0  0.16212441156E+01 -0.27109262678E+02 -0.33853843729E+02  0.47787270851E+02  0.19999999118E+02 0.  0.
        -12    1    1    2    0    0 -0.16212441156E+01  0.27109262678E+02  0.33853843729E+02  0.43400729149E+02  0.00000000000E+00 0.  1.
         11    1    3    3    0    0 -0.30055232595E+01 -0.14691813889E+02 -0.12301091353E+02  0.19395860748E+02  0.51100000000E-03 0. -1.
        -11    1    3    3    0    0 -0.13164094275E+01 -0.36509870422E+01  0.51367005218E+00  0.39149070675E+01  0.51100000000E-03 0.  1.
         12    1    3    3    0    0  0.59431768026E+01 -0.87664617469E+01 -0.22066422428E+02  0.24476503036E+02  0.00000000000E+00 0. -1.
</event>
<event>
 7    1  0.4675811E-010  0.4778727E+02  0.7816164E-02  0.1312668E+00
        -11   -1    0    0    0    0  0.00000000000E+00  0.00000000000E+00  0.45593999997E+02  0.45594000000E+02  0.51100000000E-03 0.  1.
         11   -1    0    0    0    0 -0.00000000000E+00 -0.00000000000E+00 -0.45593999997E+02  0.45594000000E+02  0.51100000000E-03 0. -1.
    9900012    2    1    2    0    0  0.42095906279E+02 -0.93000047811E+01 -0.50067519334E+01  0.47787274438E+02  0.20000015474E+02 0.  0.
        -12    1    1    2    0    0 -0.42095906279E+02  0.93000047811E+01  0.50067519334E+01  0.43400725562E+02  0.00000000000E+00 0.  1.
         11    1    3    3    0    0  0.27734967335E+02 -0.35637279838E+01 -0.11881690540E+02  0.30382612471E+02  0.51100000000E-03 0. -1.
        -11    1    3    3    0    0  0.13954483192E+01 -0.13169257173E+01 -0.29884515367E+00  0.19418748784E+01  0.51100000000E-03 0.  1.
         12    1    3    3    0    0  0.12965490625E+02 -0.44193510801E+01  0.71737837607E+01  0.15462787089E+02  0.00000000000E+00 0. -1.
</event>
<event>
 7    1  0.4675811E-010  0.4778728E+02  0.7816164E-02  0.1312668E+00
        -11   -1    0    0    0    0  0.00000000000E+00  0.00000000000E+00  0.45593999997E+02  0.45594000000E+02  0.51100000000E-03 0.  1.
         11   -1    0    0    0    0 -0.00000000000E+00 -0.00000000000E+00 -0.45593999997E+02  0.45594000000E+02  0.51100000000E-03 0. -1.
    9900012    2    1    2    0    0 -0.16164041678E+02  0.38440586630E+02  0.12027794308E+02  0.47787276737E+02  0.20000025953E+02 0.  0.
        -12    1    1    2    0    0  0.16164041678E+02 -0.38440586630E+02 -0.12027794308E+02  0.43400723263E+02  0.00000000000E+00 0.  1.
         11    1    3    3    0    0  0.97429598272E+00  0.72210380758E+01  0.45375097504E+01  0.85838009384E+01  0.51100000000E-03 0. -1.
        -11    1    3    3    0    0 -0.14273983905E+02  0.27558815396E+02  0.11466646586E+02  0.33086536638E+02  0.51100000000E-03 0.  1.
        -12    1    3    3    0    0 -0.28643537567E+01  0.36607331586E+01 -0.39763620287E+01  0.61169391598E+01  0.00000000000E+00 0.  1.
</event>
<event>
 7    1  0.4675811E-010  0.4778727E+02  0.7816164E-02  0.1312668E+00
        -11   -1    0    0    0    0  0.00000000000E+00  0.00000000000E+00  0.45593999997E+02  0.45594000000E+02  0.51100000000E-03 0. -1.
         11   -1    0    0    0    0 -0.00000000000E+00 -0.00000000000E+00 -0.45593999997E+02  0.45594000000E+02  0.51100000000E-03 0.  1.
    9900012    2    1    2    0    0  0.13651514023E+02  0.24265249935E+02  0.33293503153E+02  0.47787267959E+02  0.19999985930E+02 0.  0.
        -12    1    1    2    0    0 -0.13651514023E+02 -0.24265249935E+02 -0.33293503153E+02  0.43400732041E+02  0.00000000000E+00 0.  1.
         11    1    3    3    0    0  0.65548305944E+01  0.27127892806E+01  0.44779630117E+00  0.71081327781E+01  0.51100000000E-03 0. -1.
        -11    1    3    3    0    0  0.49093925679E+00  0.84047029142E+01  0.70454830748E+01  0.10978109329E+02  0.51100000000E-03 0.  1.
         12    1    3    3    0    0  0.66057441717E+01  0.13147757740E+02  0.25800223777E+02  0.29701025851E+02  0.00000000000E+00 0. -1.
</event>
<event>
 7    1  0.4675811E-010  0.4778730E+02  0.7816164E-02  0.1312668E+00
        -11   -1    0    0    0    0  0.00000000000E+00  0.00000000000E+00  0.45593999997E+02  0.45594000000E+02  0.51100000000E-03 0. -1.
         11   -1    0    0    0    0 -0.00000000000E+00 -0.00000000000E+00 -0.45593999997E+02  0.45594000000E+02  0.51100000000E-03 0.  1.
    9900012    2    1    2    0    0 -0.61311092867E+01 -0.25924942293E+02  0.34262626565E+02  0.47787300546E+02  0.20000134507E+02 0.  0.
        -12    1    1    2    0    0  0.61311092867E+01  0.25924942293E+02 -0.34262626565E+02  0.43400699454E+02  0.00000000000E+00 0.  1.
         11    1    3    3    0    0 -0.20624702716E+01 -0.13671421942E+02  0.11888405354E+02  0.18234465818E+02  0.51100000000E-03 0. -1.
        -11    1    3    3    0    0 -0.34112966827E+01 -0.35778429809E+01 -0.60620729447E+00  0.49805012798E+01  0.51100000000E-03 0.  1.
         12    1    3    3    0    0 -0.65734233239E+00 -0.86756773701E+01  0.22980428506E+02  0.24572333448E+02  0.00000000000E+00 0. -1.
</event>
<event>
 7    1  0.4807065E-010  0.4778727E+02  0.7816164E-02  0.1312668E+00
        -11   -1    0    0    0    0  0.00000000000E+00  0.00000000000E+00  0.45593999997E+02  0.45594000000E+02  0.51100000000E-03 0.  1.
         11   -1    0    0    0    0 -0.00000000000E+00 -0.00000000000E+00 -0.45593999997E+02  0.45594000000E+02  0.51100000000E-03 0. -1.
    9900012    2    1    2    0    0  0.42556746648E+02 -0.82942598466E+01  0.19370123866E+01  0.47787269031E+02  0.19999990818E+02 0.  0.
        -12    1    1    2    0    0 -0.42556746648E+02  0.82942598466E+01 -0.19370123866E+01  0.43400730969E+02  0.00000000000E+00 0.  1.
         11    1    3    3    0    0  0.29054005300E+02 -0.63859971878E+01  0.16369818203E+01  0.29792547622E+02  0.51100000000E-03 0. -1.
        -11    1    3    3    0    0  0.11165360909E+02  0.28200124215E+01 -0.28337879591E+01  0.11859515536E+02  0.51100000000E-03 0.  1.
         12    1    3    3    0    0  0.23373804392E+01 -0.47282750803E+01  0.31338185253E+01  0.61352058728E+01  0.00000000000E+00 0. -1.
</event>
<event>
 7    1  0.4675811E-010  0.4778725E+02  0.7816164E-02  0.1312668E+00
        -11   -1    0    0    0    0  0.00000000000E+00  0.00000000000E+00  0.45593999997E+02  0.45594000000E+02  0.51100000000E-03 0.  1.
         11   -1    0    0    0    0 -0.00000000000E+00 -0.00000000000E+00 -0.45593999997E+02  0.45594000000E+02  0.51100000000E-03 0. -1.
    9900012    2    1    2    0    0 -0.19909038577E+02  0.35607945214E+02 -0.14809770614E+02  0.47787252483E+02  0.19999915370E+02 0.  0.
        -12    1    1    2    0    0  0.19909038577E+02 -0.35607945214E+02  0.14809770614E+02  0.43400747517E+02  0.00000000000E+00 0.  1.
         11    1    3    3    0    0 -0.11691921034E+02  0.92836629571E+01 -0.63031888098E+01  0.16205480703E+02  0.51100000000E-03 0. -1.
        -11    1    3    3    0    0 -0.43065738187E+01  0.72275679627E+00 -0.23607328588E+01  0.49640724546E+01  0.51100000000E-03 0.  1.
         12    1    3    3    0    0 -0.39105437240E+01  0.25601525461E+02 -0.61458489453E+01  0.26617699325E+02  0.00000000000E+00 0. -1.
</event>
<event>
 7    1  0.4675811E-010  0.4778725E+02  0.7816164E-02  0.1312668E+00
        -11   -1    0    0    0    0  0.00000000000E+00  0.00000000000E+00  0.45593999997E+02  0.45594000000E+02  0.51100000000E-03 0.  1.
         11   -1    0    0    0    0 -0.00000000000E+00 -0.00000000000E+00 -0.45593999997E+02  0.45594000000E+02  0.51100000000E-03 0. -1.
    9900012    2    1    2    0    0  0.33884028626E+02 -0.94211156524E+01 -0.25431085724E+02  0.47787251883E+02  0.19999912633E+02 0.  0.
        -12    1    1    2    0    0 -0.33884028626E+02  0.94211156524E+01  0.25431085724E+02  0.43400748117E+02  0.00000000000E+00 0.  1.
         11    1    3    3    0    0  0.28973796954E+01 -0.70746132719E+00 -0.11394414776E+01  0.31927476835E+01  0.51100000000E-03 0. -1.
        -11    1    3    3    0    0  0.11027763186E+02 -0.16131839627E+01  0.14696080454E+01  0.11241604488E+02  0.51100000000E-03 0.  1.
         12    1    3    3    0    0  0.19958885745E+02 -0.71004703625E+01 -0.25761252292E+02  0.33352899711E+02  0.00000000000E+00 0. -1.
</event>
<event>
 7    1  0.4675811E-010  0.4778727E+02  0.7816164E-02  0.1312668E+00
        -11   -1    0    0    0    0  0.00000000000E+00  0.00000000000E+00  0.45593999997E+02  0.45594000000E+02  0.51100000000E-03 0. -1.
         11   -1    0    0    0    0 -0.00000000000E+00 -0.00000000000E+00 -0.45593999997E+02  0.45594000000E+02  0.51100000000E-03 0.  1.
    9900012    2    1    2    0    0 -0.22814122904E+02  0.14108289037E+02  0.34118843292E+02  0.47787268543E+02  0.19999988594E+02 0.  0.
        -12    1    1    2    0    0  0.22814122904E+02 -0.14108289037E+02 -0.34118843292E+02  0.43400731457E+02  0.00000000000E+00 0.  1.
         11    1    3    3    0    0 -0.20183165354E+01 -0.12925751920E+00  0.67939027405E+01  0.70885417296E+01  0.51100000000E-03 0. -1.
        -11    1    3    3    0    0 -0.28500783607E+01  0.11552115674E+02  0.12601216380E+02  0.17331040872E+02  0.51100000000E-03 0.  1.
         12    1    3    3    0    0 -0.17945728008E+02  0.26854308824E+01  0.14723724172E+02  0.23367685941E+02  0.00000000000E+00 0. -1.
</event>
<event>
 7    1  0.4675811E-010  0.4778727E+02  0.7816164E-02  0.1312668E+00
        -11   -1    0    0    0    0  0.00000000000E+00  0.00000000000E+00  0.45593999997E+02  0.45594000000E+02  0.51100000000E-03 0.  1.
         11   -1    0    0    0    0 -0.00000000000E+00 -0.00000000000E+00 -0.45593999997E+02  0.45594000000E+02  0.51100000000E-03 0. -1.
    9900012    2    1    2    0    0  0.14089759561E+02  0.31479091093E+02 -0.26347082042E+02  0.47787271520E+02  0.20000002167E+02 0.  0.
        -12    1    1    2    0    0 -0.14089759561E+02 -0.31479091093E+02  0.26347082042E+02  0.43400728480E+02  0.00000000000E+00 0.  1.
         11    1    3    3    0    0 -0.25227907115E+01  0.30176945205E+01 -0.64659950092E+01  0.75683581385E+01  0.51100000000E-03 0. -1.
        -11    1    3    3    0    0  0.78572733390E+01  0.66480956301E+01 -0.11073672740E+02  0.15118205847E+02  0.51100000000E-03 0.  1.
         12    1    3    3    0    0  0.87552769332E+01  0.21813300942E+02 -0.88074142928E+01  0.25100707534E+02  0.00000000000E+00 0. -1.
</event>
<event>
 7    1  0.4675811E-010  0.4778727E+02  0.7816164E-02  0.1312668E+00
        -11   -1    0    0    0    0  0.00000000000E+00  0.00000000000E+00  0.45593999997E+02  0.45594000000E+02  0.51100000000E-03 0.  1.
         11   -1    0    0    0    0 -0.00000000000E+00 -0.00000000000E+00 -0.45593999997E+02  0.45594000000E+02  0.51100000000E-03 0. -1.
    9900012    2    1    2    0    0 -0.35641923873E+01 -0.52964221295E+01 -0.42928632816E+02  0.47787273391E+02  0.20000010697E+02 0.  0.
        -12    1    1    2    0    0  0.35641923873E+01  0.52964221295E+01  0.42928632816E+02  0.43400726609E+02  0.00000000000E+00 0.  1.
         11    1    3    3    0    0  0.47513028016E+00  0.19360177955E+01 -0.37818811394E+01  0.42751068877E+01  0.51100000000E-03 0. -1.
        -11    1    3    3    0    0 -0.21198764634E+01  0.37283783718E+01 -0.19958378037E+01  0.47305443982E+01  0.51100000000E-03 0.  1.
         12    1    3    3    0    0 -0.19194462041E+01 -0.10960818297E+02 -0.37150913873E+02  0.38781622105E+02  0.00000000000E+00 0. -1.
</event>
<event>
 7    1  0.4675811E-010  0.4778727E+02  0.7816164E-02  0.1312668E+00
        -11   -1    0    0    0    0  0.00000000000E+00  0.00000000000E+00  0.45593999997E+02  0.45594000000E+02  0.51100000000E-03 0. -1.
         11   -1    0    0    0    0 -0.00000000000E+00 -0.00000000000E+00 -0.45593999997E+02  0.45594000000E+02  0.51100000000E-03 0.  1.
    9900012    2    1    2    0    0  0.30397469151E+02 -0.30795016188E+02 -0.33591497199E+01  0.47787273743E+02  0.20000012303E+02 0.  0.
        -12    1    1    2    0    0 -0.30397469151E+02  0.30795016188E+02  0.33591497199E+01  0.43400726257E+02  0.00000000000E+00 0.  1.
         11    1    3    3    0    0  0.89721662567E+01 -0.66373494416E+01  0.43730999955E+01  0.11986583282E+02  0.51100000000E-03 0. -1.
        -11    1    3    3    0    0  0.16615908488E+02 -0.16543827678E+02  0.70788837090E+00  0.23458212961E+02  0.51100000000E-03 0.  1.
        -12    1    3    3    0    0  0.48093944061E+01 -0.76138390689E+01 -0.84401380863E+01  0.12342477500E+02  0.00000000000E+00 0.  1.
</event>
<event>
 7    1  0.4675811E-010  0.4778727E+02  0.7816164E-02  0.1312668E+00
        -11   -1    0    0    0    0  0.00000000000E+00  0.00000000000E+00  0.45593999997E+02  0.45594000000E+02  0.51100000000E-03 0. -1.
         11   -1    0    0    0    0 -0.00000000000E+00 -0.00000000000E+00 -0.45593999997E+02  0.45594000000E+02  0.51100000000E-03 0.  1.
    9900012    2    1    2    0    0  0.30903794167E+02 -0.26901406982E+01  0.30353613974E+02  0.47787271524E+02  0.20000002189E+02 0.  0.
        -12    1    1    2    0    0 -0.30903794167E+02  0.26901406982E+01 -0.30353613974E+02  0.43400728476E+02  0.00000000000E+00 0.  1.
         11    1    3    3    0    0  0.10083576530E+01 -0.59534581532E+00  0.17844760117E+00  0.11845107022E+01  0.51100000000E-03 0. -1.
        -11    1    3    3    0    0 -0.97400503688E+00  0.33320807357E+01  0.62712723279E+00  0.35277098333E+01  0.51100000000E-03 0.  1.
         12    1    3    3    0    0  0.30869441551E+02 -0.54268756185E+01  0.29548039140E+02  0.43075050989E+02  0.00000000000E+00 0. -1.
</event>
<event>
 7    1  0.4675811E-010  0.4778727E+02  0.7816164E-02  0.1312668E+00
        -11   -1    0    0    0    0  0.00000000000E+00  0.00000000000E+00  0.45593999997E+02  0.45594000000E+02  0.51100000000E-03 0. -1.
         11   -1    0    0    0    0 -0.00000000000E+00 -0.00000000000E+00 -0.45593999997E+02  0.45594000000E+02  0.51100000000E-03 0.  1.
    9900012    2    1    2    0    0  0.39026556438E+02  0.18597616306E+02 -0.38314227450E+01  0.47787271435E+02  0.20000001782E+02 0.  0.
        -12    1    1    2    0    0 -0.39026556438E+02 -0.18597616306E+02  0.38314227450E+01  0.43400728565E+02  0.00000000000E+00 0.  1.
         11    1    3    3    0    0  0.27122174965E+01  0.28962222567E+01 -0.73135399914E+00  0.40347374192E+01  0.51100000000E-03 0. -1.
        -11    1    3    3    0    0  0.73278903940E+01  0.99037723368E+01 -0.66152390534E+01  0.13983707381E+02  0.51100000000E-03 0.  1.
         12    1    3    3    0    0  0.28986448548E+02  0.57976217121E+01  0.35151703075E+01  0.29768826635E+02  0.00000000000E+00 0. -1.
</event>
<event>
 7    1  0.4675811E-010  0.4778726E+02  0.7816164E-02  0.1312668E+00
        -11   -1    0    0    0    0  0.00000000000E+00  0.00000000000E+00  0.45593999997E+02  0.45594000000E+02  0.51100000000E-03 0.  1.
         11   -1    0    0    0    0 -0.00000000000E+00 -0.00000000000E+00 -0.45593999997E+02  0.45594000000E+02  0.51100000000E-03 0. -1.
    9900012    2    1    2    0    0 -0.17992530958E+02 -0.37495800971E+02  0.12407963328E+02  0.47787264814E+02  0.19999971593E+02 0.  0.
        -12    1    1    2    0    0  0.17992530958E+02  0.37495800971E+02 -0.12407963328E+02  0.43400735186E+02  0.00000000000E+00 0.  1.
         11    1    3    3    0    0 -0.11992366803E+02 -0.14036767325E+02  0.47618055944E+01  0.19066265792E+02  0.51100000000E-03 0. -1.
        -11    1    3    3    0    0 -0.67429026862E+01 -0.23707159380E+02  0.39733651575E+01  0.24965651873E+02  0.51100000000E-03 0.  1.
        -12    1    3    3    0    0  0.74273853035E+00  0.24812573406E+00  0.36727925763E+01  0.37553471494E+01  0.00000000000E+00 0.  1.
</event>
<event>
 7    1  0.4675811E-010  0.4778727E+02  0.7816164E-02  0.1312668E+00
        -11   -1    0    0    0    0  0.00000000000E+00  0.00000000000E+00  0.45593999997E+02  0.45594000000E+02  0.51100000000E-03 0.  1.
         11   -1    0    0    0    0 -0.00000000000E+00 -0.00000000000E+00 -0.45593999997E+02  0.45594000000E+02  0.51100000000E-03 0. -1.
    9900012    2    1    2    0    0  0.94775681180E+01 -0.27696542979E+02 -0.32042166909E+02  0.47787271313E+02  0.20000001223E+02 0.  0.
        -12    1    1    2    0    0 -0.94775681180E+01  0.27696542979E+02  0.32042166909E+02  0.43400728687E+02  0.00000000000E+00 0.  1.
         11    1    3    3    0    0  0.64639797396E+01 -0.24071132979E+02 -0.25263594977E+02  0.35488754675E+02  0.51100000000E-03 0. -1.
        -11    1    3    3    0    0 -0.61847540390E+00 -0.28141239687E+00 -0.73022506857E+01  0.73337964316E+01  0.51100000000E-03 0.  1.
        -12    1    3    3    0    0  0.36320637823E+01 -0.33439976030E+01  0.52367875408E+00  0.49647202061E+01  0.00000000000E+00 0.  1.
</event>
<event>
 7    1  0.4675811E-010  0.4778727E+02  0.7816164E-02  0.1312668E+00
        -11   -1    0    0    0    0  0.00000000000E+00  0.00000000000E+00  0.45593999997E+02  0.45594000000E+02  0.51100000000E-03 0. -1.
         11   -1    0    0    0    0 -0.00000000000E+00 -0.00000000000E+00 -0.45593999997E+02  0.45594000000E+02  0.51100000000E-03 0.  1.
    9900012    2    1    2    0    0 -0.22889510514E+02  0.29906650736E+02  0.21570484320E+02  0.47787271393E+02  0.20000001591E+02 0.  0.
        -12    1    1    2    0    0  0.22889510514E+02 -0.29906650736E+02 -0.21570484320E+02  0.43400728607E+02  0.00000000000E+00 0.  1.
         11    1    3    3    0    0 -0.15399131262E+01 -0.24369615039E+00  0.38985494933E+01  0.41987389372E+01  0.51100000000E-03 0. -1.
        -11    1    3    3    0    0 -0.51014900616E+01  0.12042254221E+02 -0.70755211120E+00  0.13097393551E+02  0.51100000000E-03 0.  1.
         12    1    3    3    0    0 -0.16248107326E+02  0.18108092665E+02  0.18379486938E+02  0.30491138905E+02  0.00000000000E+00 0. -1.
</event>
<event>
 7    1  0.4675811E-010  0.4778727E+02  0.7816164E-02  0.1312668E+00
        -11   -1    0    0    0    0  0.00000000000E+00  0.00000000000E+00  0.45593999997E+02  0.45594000000E+02  0.51100000000E-03 0. -1.
         11   -1    0    0    0    0 -0.00000000000E+00 -0.00000000000E+00 -0.45593999997E+02  0.45594000000E+02  0.51100000000E-03 0.  1.
    9900012    2    1    2    0    0  0.18227909018E+02 -0.26830618195E+02  0.28835474263E+02  0.47787270561E+02  0.19999997796E+02 0.  0.
        -12    1    1    2    0    0 -0.18227909018E+02  0.26830618195E+02 -0.28835474263E+02  0.43400729439E+02  0.00000000000E+00 0.  1.
         11    1    3    3    0    0 -0.25479463055E+01 -0.44235929019E+01  0.13914729027E+01  0.52911625979E+01  0.51100000000E-03 0. -1.
        -11    1    3    3    0    0  0.20143903888E+01 -0.12943425260E+01  0.76248311878E+01  0.79919423244E+01  0.51100000000E-03 0.  1.
        -12    1    3    3    0    0  0.18761464934E+02 -0.21112682767E+02  0.19819170172E+02  0.34504165639E+02  0.00000000000E+00 0.  1.
</event>
<event>
 7    1  0.4675811E-010  0.4778727E+02  0.7816164E-02  0.1312668E+00
        -11   -1    0    0    0    0  0.00000000000E+00  0.00000000000E+00  0.45593999997E+02  0.45594000000E+02  0.51100000000E-03 0. -1.
         11   -1    0    0    0    0 -0.00000000000E+00 -0.00000000000E+00 -0.45593999997E+02  0.45594000000E+02  0.51100000000E-03 0.  1.
    9900012    2    1    2    0    0 -0.23345825086E+02  0.12743687042E+02  0.34295687102E+02  0.47787271179E+02  0.20000000616E+02 0.  0.
        -12    1    1    2    0    0  0.23345825086E+02 -0.12743687042E+02 -0.34295687102E+02  0.43400728821E+02  0.00000000000E+00 0.  1.
         11    1    3    3    0    0 -0.41149652115E+01  0.46535954098E+01  0.25790566398E+01  0.67261000842E+01  0.51100000000E-03 0. -1.
        -11    1    3    3    0    0 -0.38933481745E+00  0.25879291433E+01 -0.10867413412E+01  0.28337194382E+01  0.51100000000E-03 0.  1.
         12    1    3    3    0    0 -0.18841525057E+02  0.55021624889E+01  0.32803371804E+02  0.38227451657E+02  0.00000000000E+00 0. -1.
</event>
<event>
 7    1  0.4675811E-010  0.4778728E+02  0.7816164E-02  0.1312668E+00
        -11   -1    0    0    0    0  0.00000000000E+00  0.00000000000E+00  0.45593999997E+02  0.45594000000E+02  0.51100000000E-03 0. -1.
         11   -1    0    0    0    0 -0.00000000000E+00 -0.00000000000E+00 -0.45593999997E+02  0.45594000000E+02  0.51100000000E-03 0.  1.
    9900012    2    1    2    0    0 -0.38639632457E+02 -0.17710485106E+02  0.87715295675E+01  0.47787283300E+02  0.20000055877E+02 0.  0.
        -12    1    1    2    0    0  0.38639632457E+02  0.17710485106E+02 -0.87715295675E+01  0.43400716700E+02  0.00000000000E+00 0.  1.
         11    1    3    3    0    0 -0.85778944652E+01 -0.75707836657E+01  0.37598064403E+00  0.11447200552E+02  0.51100000000E-03 0. -1.
        -11    1    3    3    0    0  0.53468799589E+00  0.10941417078E+01  0.30850731297E+01  0.33167323990E+01  0.51100000000E-03 0.  1.
        -12    1    3    3    0    0 -0.30596425988E+02 -0.11233843148E+02  0.53104757938E+01  0.33023350349E+02  0.00000000000E+00 0.  1.
</event>
<event>
 7    1  0.4675811E-010  0.4778727E+02  0.7816164E-02  0.1312668E+00
        -11   -1    0    0    0    0  0.00000000000E+00  0.00000000000E+00  0.45593999997E+02  0.45594000000E+02  0.51100000000E-03 0. -1.
         11   -1    0    0    0    0 -0.00000000000E+00 -0.00000000000E+00 -0.45593999997E+02  0.45594000000E+02  0.51100000000E-03 0.  1.
    9900012    2    1    2    0    0  0.22148797260E+02 -0.25502902764E+02  0.27251715594E+02  0.47787271063E+02  0.20000000085E+02 0.  0.
        -12    1    1    2    0    0 -0.22148797260E+02  0.25502902764E+02 -0.27251715594E+02  0.43400728937E+02  0.00000000000E+00 0.  1.
         11    1    3    3    0    0  0.71357946913E+01 -0.29321988537E+01  0.46252244241E+01  0.89950017915E+01  0.51100000000E-03 0. -1.
        -11    1    3    3    0    0  0.89107211836E+01 -0.12594990964E+01  0.40436135415E+01  0.98660073342E+01  0.51100000000E-03 0.  1.
         12    1    3    3    0    0  0.61022813847E+01 -0.21311204814E+02  0.18582877629E+02  0.28926261937E+02  0.00000000000E+00 0. -1.
</event>
<event>
 7    1  0.4675811E-010  0.4778727E+02  0.7816164E-02  0.1312668E+00
        -11   -1    0    0    0    0  0.00000000000E+00  0.00000000000E+00  0.45593999997E+02  0.45594000000E+02  0.51100000000E-03 0. -1.
         11   -1    0    0    0    0 -0.00000000000E+00 -0.00000000000E+00 -0.45593999997E+02  0.45594000000E+02  0.51100000000E-03 0.  1.
    9900012    2    1    2    0    0  0.10689438499E+02 -0.23585153967E+02  0.34829578032E+02  0.47787273175E+02  0.20000009712E+02 0.  0.
        -12    1    1    2    0    0 -0.10689438499E+02  0.23585153967E+02 -0.34829578032E+02  0.43400726825E+02  0.00000000000E+00 0.  1.
         11    1    3    3    0    0 -0.94574045908E+00 -0.10589113056E+02  0.54637067795E+01  0.11953067906E+02  0.51100000000E-03 0. -1.
        -11    1    3    3    0    0  0.39963115252E+01 -0.89805016958E+01  0.76159953308E+01  0.12434761825E+02  0.51100000000E-03 0.  1.
        -12    1    3    3    0    0  0.76388674333E+01 -0.40155392156E+01  0.21749875922E+02  0.23399443443E+02  0.00000000000E+00 0.  1.
</event>
<event>
 7    1  0.4675811E-010  0.4778727E+02  0.7816164E-02  0.1312668E+00
        -11   -1    0    0    0    0  0.00000000000E+00  0.00000000000E+00  0.45593999997E+02  0.45594000000E+02  0.51100000000E-03 0.  1.
         11   -1    0    0    0    0 -0.00000000000E+00 -0.00000000000E+00 -0.45593999997E+02  0.45594000000E+02  0.51100000000E-03 0. -1.
    9900012    2    1    2    0    0 -0.15640655223E+02  0.20931723777E+02 -0.34653374583E+02  0.47787268139E+02  0.19999986754E+02 0.  0.
        -12    1    1    2    0    0  0.15640655223E+02 -0.20931723777E+02  0.34653374583E+02  0.43400731861E+02  0.00000000000E+00 0.  1.
         11    1    3    3    0    0 -0.43996607492E+01  0.53219374467E+01 -0.40550587719E+01  0.80077172027E+01  0.51100000000E-03 0.  1.
        -11    1    3    3    0    0 -0.15097432118E+02  0.88502549997E+01 -0.23022643854E+02  0.28918879653E+02  0.51100000000E-03 0. -1.
         12    1    3    3    0    0  0.38564376449E+01  0.67595313305E+01 -0.75756719572E+01  0.10860671283E+02  0.00000000000E+00 0. -1.
</event>
<event>
 7    1  0.4675811E-010  0.4778727E+02  0.7816164E-02  0.1312668E+00
        -11   -1    0    0    0    0  0.00000000000E+00  0.00000000000E+00  0.45593999997E+02  0.45594000000E+02  0.51100000000E-03 0.  1.
         11   -1    0    0    0    0 -0.00000000000E+00 -0.00000000000E+00 -0.45593999997E+02  0.45594000000E+02  0.51100000000E-03 0. -1.
    9900012    2    1    2    0    0  0.16110335580E+02  0.28052298125E+02 -0.28933528048E+02  0.47787269731E+02  0.19999994009E+02 0.  0.
        -12    1    1    2    0    0 -0.16110335580E+02 -0.28052298125E+02  0.28933528048E+02  0.43400730269E+02  0.00000000000E+00 0.  1.
         11    1    3    3    0    0  0.64663578156E+01  0.21444033434E+02 -0.18844130397E+02  0.29270490327E+02  0.51100000000E-03 0. -1.
        -11    1    3    3    0    0  0.12332473134E+01  0.47746542025E+01  0.39974490905E+00  0.49475264469E+01  0.51100000000E-03 0.  1.
        -12    1    3    3    0    0  0.84107304512E+01  0.18336104888E+01 -0.10489142560E+02  0.13569252957E+02  0.00000000000E+00 0.  1.
</event>
<event>
 7    1  0.4675811E-010  0.4778728E+02  0.7816164E-02  0.1312668E+00
        -11   -1    0    0    0    0  0.00000000000E+00  0.00000000000E+00  0.45593999997E+02  0.45594000000E+02  0.51100000000E-03 0. -1.
         11   -1    0    0    0    0 -0.00000000000E+00 -0.00000000000E+00 -0.45593999997E+02  0.45594000000E+02  0.51100000000E-03 0.  1.
    9900012    2    1    2    0    0 -0.42932286981E+02  0.63528796436E+01 -0.28720416580E+00  0.47787276142E+02  0.20000023240E+02 0.  0.
        -12    1    1    2    0    0  0.42932286981E+02 -0.63528796436E+01  0.28720416580E+00  0.43400723858E+02  0.00000000000E+00 0.  1.
         11    1    3    3    0    0 -0.56229595986E+01  0.37227693763E+00 -0.38663798129E+01  0.68341171986E+01  0.51100000000E-03 0.  1.
        -11    1    3    3    0    0 -0.25028388168E+02  0.86820321370E+01 -0.31723354634E+01  0.26680734789E+02  0.51100000000E-03 0. -1.
        -12    1    3    3    0    0 -0.12280939215E+02 -0.27014294311E+01  0.67515111105E+01  0.14272424154E+02  0.00000000000E+00 0.  1.
</event>
<event>
 7    1  0.4675811E-010  0.4778727E+02  0.7816164E-02  0.1312668E+00
        -11   -1    0    0    0    0  0.00000000000E+00  0.00000000000E+00  0.45593999997E+02  0.45594000000E+02  0.51100000000E-03 0.  1.
         11   -1    0    0    0    0 -0.00000000000E+00 -0.00000000000E+00 -0.45593999997E+02  0.45594000000E+02  0.51100000000E-03 0. -1.
    9900012    2    1    2    0    0  0.13909859844E+02 -0.27808748400E+02 -0.30278918124E+02  0.47787267619E+02  0.19999984384E+02 0.  0.
        -12    1    1    2    0    0 -0.13909859844E+02  0.27808748400E+02  0.30278918124E+02  0.43400732381E+02  0.00000000000E+00 0.  1.
         11    1    3    3    0    0 -0.42176955464E+00 -0.41797843072E+00 -0.11109712021E+01  0.12597034567E+01  0.51100000000E-03 0. -1.
        -11    1    3    3    0    0 -0.40669425968E+01 -0.98571443536E+01 -0.66133984179E+01  0.12547523891E+02  0.51100000000E-03 0.  1.
         12    1    3    3    0    0  0.18398571995E+02 -0.17533625615E+02 -0.22554548504E+02  0.33980040272E+02  0.00000000000E+00 0. -1.
</event>
<event>
 7    1  0.4675811E-010  0.4778727E+02  0.7816164E-02  0.1312668E+00
        -11   -1    0    0    0    0  0.00000000000E+00  0.00000000000E+00  0.45593999997E+02  0.45594000000E+02  0.51100000000E-03 0.  1.
         11   -1    0    0    0    0 -0.00000000000E+00 -0.00000000000E+00 -0.45593999997E+02  0.45594000000E+02  0.51100000000E-03 0. -1.
    9900012    2    1    2    0    0 -0.25678609630E+02  0.33278715235E+02 -0.10805519630E+02  0.47787272648E+02  0.20000007310E+02 0.  0.
        -12    1    1    2    0    0  0.25678609630E+02 -0.33278715235E+02  0.10805519630E+02  0.43400727352E+02  0.00000000000E+00 0.  1.
         11    1    3    3    0    0 -0.63736873958E+00  0.26484766368E+01 -0.39866629176E+01  0.48284727281E+01  0.51100000000E-03 0. -1.
        -11    1    3    3    0    0 -0.49948022681E+01  0.89887027483E+01  0.46791869992E+01  0.11297770489E+02  0.51100000000E-03 0.  1.
         12    1    3    3    0    0 -0.20046438622E+02  0.21641535850E+02 -0.11498043711E+02  0.31661029430E+02  0.00000000000E+00 0. -1.
</event>
<event>
 7    1  0.4675811E-010  0.4778727E+02  0.7816164E-02  0.1312668E+00
        -11   -1    0    0    0    0  0.00000000000E+00  0.00000000000E+00  0.45593999997E+02  0.45594000000E+02  0.51100000000E-03 0.  1.
         11   -1    0    0    0    0 -0.00000000000E+00 -0.00000000000E+00 -0.45593999997E+02  0.45594000000E+02  0.51100000000E-03 0. -1.
    9900012    2    1    2    0    0  0.27090907946E+02 -0.11458931901E+02 -0.31912362923E+02  0.47787270501E+02  0.19999997523E+02 0.  0.
        -12    1    1    2    0    0 -0.27090907946E+02  0.11458931901E+02  0.31912362923E+02  0.43400729499E+02  0.00000000000E+00 0.  1.
         11    1    3    3    0    0  0.14732829645E+02 -0.86412601140E+01 -0.12210536462E+02  0.20995829268E+02  0.51100000000E-03 0. -1.
        -11    1    3    3    0    0  0.14719245254E+02 -0.43124856317E+01 -0.16162222015E+02  0.22281632209E+02  0.51100000000E-03 0.  1.
        -12    1    3    3    0    0 -0.23611669519E+01  0.14948138444E+01 -0.35396044458E+01  0.45098090244E+01  0.00000000000E+00 0.  1.
</event>
<event>
 7    1  0.4675811E-010  0.4778727E+02  0.7816164E-02  0.1312668E+00
        -11   -1    0    0    0    0  0.00000000000E+00  0.00000000000E+00  0.45593999997E+02  0.45594000000E+02  0.51100000000E-03 0.  1.
         11   -1    0    0    0    0 -0.00000000000E+00 -0.00000000000E+00 -0.45593999997E+02  0.45594000000E+02  0.51100000000E-03 0. -1.
    9900012    2    1    2    0    0 -0.39102704750E+02 -0.53231311386E+01 -0.18062830326E+02  0.47787273241E+02  0.20000010014E+02 0.  0.
        -12    1    1    2    0    0  0.39102704750E+02  0.53231311386E+01  0.18062830326E+02  0.43400726759E+02  0.00000000000E+00 0.  1.
         11    1    3    3    0    0 -0.27980490091E+02 -0.55348148531E+01 -0.46859976454E+01  0.28905026819E+02  0.51100000000E-03 0.  1.
        -11    1    3    3    0    0 -0.92949498502E+01 -0.21273381483E+01 -0.69381420399E+01  0.11792348178E+02  0.51100000000E-03 0. -1.
        -12    1    3    3    0    0 -0.18272648080E+01  0.23390218627E+01 -0.64386906402E+01  0.70898982442E+01  0.00000000000E+00 0.  1.
</event>
<event>
 7    1  0.4675811E-010  0.4778727E+02  0.7816164E-02  0.1312668E+00
        -11   -1    0    0    0    0  0.00000000000E+00  0.00000000000E+00  0.45593999997E+02  0.45594000000E+02  0.51100000000E-03 0.  1.
         11   -1    0    0    0    0 -0.00000000000E+00 -0.00000000000E+00 -0.45593999997E+02  0.45594000000E+02  0.51100000000E-03 0. -1.
    9900012    2    1    2    0    0  0.56804068024E+01 -0.42580080661E+02 -0.61881217859E+01  0.47787272567E+02  0.20000006940E+02 0.  0.
        -12    1    1    2    0    0 -0.56804068024E+01  0.42580080661E+02  0.61881217859E+01  0.43400727433E+02  0.00000000000E+00 0.  1.
         11    1    3    3    0    0  0.33773091175E+01 -0.56100060982E+01 -0.15742908461E+01  0.67347440357E+01  0.51100000000E-03 0. -1.
        -11    1    3    3    0    0 -0.16205163049E+01 -0.31347845624E+02  0.20958745012E+01  0.31459596129E+02  0.51100000000E-03 0.  1.
        -12    1    3    3    0    0  0.39236139898E+01 -0.56222289380E+01 -0.67097054410E+01  0.95929324024E+01  0.00000000000E+00 0.  1.
</event>
<event>
 7    1  0.4675811E-010  0.4778727E+02  0.7816164E-02  0.1312668E+00
        -11   -1    0    0    0    0  0.00000000000E+00  0.00000000000E+00  0.45593999997E+02  0.45594000000E+02  0.51100000000E-03 0.  1.
         11   -1    0    0    0    0 -0.00000000000E+00 -0.00000000000E+00 -0.45593999997E+02  0.45594000000E+02  0.51100000000E-03 0. -1.
    9900012    2    1    2    0    0 -0.15132942310E+01 -0.21168331907E+02 -0.37858088629E+02  0.47787271783E+02  0.20000003366E+02 0.  0.
        -12    1    1    2    0    0  0.15132942310E+01  0.21168331907E+02  0.37858088629E+02  0.43400728217E+02  0.00000000000E+00 0.  1.
         11    1    3    3    0    0  0.30085520317E-02  0.23625357558E-01  0.27956463461E+00  0.28057771642E+00  0.51100000000E-03 0.  1.
        -11    1    3    3    0    0 -0.63398323267E+01 -0.63273456564E+00 -0.14332181265E+02  0.15684554409E+02  0.51100000000E-03 0. -1.
         12    1    3    3    0    0  0.48235295436E+01 -0.20559222699E+02 -0.23805471999E+02  0.31822139657E+02  0.00000000000E+00 0. -1.
</event>
<event>
 7    1  0.4675811E-010  0.4778728E+02  0.7816164E-02  0.1312668E+00
        -11   -1    0    0    0    0  0.00000000000E+00  0.00000000000E+00  0.45593999997E+02  0.45594000000E+02  0.51100000000E-03 0.  1.
         11   -1    0    0    0    0 -0.00000000000E+00 -0.00000000000E+00 -0.45593999997E+02  0.45594000000E+02  0.51100000000E-03 0. -1.
    9900012    2    1    2    0    0 -0.38298864813E+02  0.16439760017E+02 -0.12105952532E+02  0.47787276019E+02  0.20000022682E+02 0.  0.
        -12    1    1    2    0    0  0.38298864813E+02 -0.16439760017E+02  0.12105952532E+02  0.43400723981E+02  0.00000000000E+00 0.  1.
         11    1    3    3    0    0 -0.21138219121E+01  0.38131533172E+01 -0.11010607265E+00  0.43612503832E+01  0.51100000000E-03 0. -1.
        -11    1    3    3    0    0 -0.13985491996E+02  0.58385936917E+01 -0.13316198981E+02  0.20174348025E+02  0.51100000000E-03 0.  1.
         12    1    3    3    0    0 -0.22199550904E+02  0.67880130081E+01  0.13203525218E+01  0.23251677611E+02  0.00000000000E+00 0. -1.
</event>
<event>
 7    1  0.4675811E-010  0.4778728E+02  0.7816164E-02  0.1312668E+00
        -11   -1    0    0    0    0  0.00000000000E+00  0.00000000000E+00  0.45593999997E+02  0.45594000000E+02  0.51100000000E-03 0.  1.
         11   -1    0    0    0    0 -0.00000000000E+00 -0.00000000000E+00 -0.45593999997E+02  0.45594000000E+02  0.51100000000E-03 0. -1.
    9900012    2    1    2    0    0  0.31502315763E+02  0.19833964561E+02 -0.22312337074E+02  0.47787280716E+02  0.20000044099E+02 0.  0.
        -12    1    1    2    0    0 -0.31502315763E+02 -0.19833964561E+02  0.22312337074E+02  0.43400719284E+02  0.00000000000E+00 0.  1.
         11    1    3    3    0    0  0.20397419445E+02  0.80856744733E+01 -0.89142248232E+01  0.23683248429E+02  0.51100000000E-03 0. -1.
        -11    1    3    3    0    0  0.20030922361E+01 -0.94263164337E+00  0.13752978340E+01  0.26062189690E+01  0.51100000000E-03 0.  1.
        -12    1    3    3    0    0  0.91018040816E+01  0.12690921731E+02 -0.14773410085E+02  0.21497813318E+02  0.00000000000E+00 0.  1.
</event>
<event>
 7    1  0.4675811E-010  0.4778728E+02  0.7816164E-02  0.1312668E+00
        -11   -1    0    0    0    0  0.00000000000E+00  0.00000000000E+00  0.45593999997E+02  0.45594000000E+02  0.51100000000E-03 0. -1.
         11   -1    0    0    0    0 -0.00000000000E+00 -0.00000000000E+00 -0.45593999997E+02  0.45594000000E+02  0.51100000000E-03 0.  1.
    9900012    2    1    2    0    0 -0.41876042940E+02 -0.10976488583E+02 -0.30880474682E+01  0.47787282136E+02  0.20000050571E+02 0.  0.
        -12    1    1    2    0    0  0.41876042940E+02  0.10976488583E+02  0.30880474682E+01  0.43400717864E+02  0.00000000000E+00 0.  1.
         11    1    3    3    0    0 -0.26593113023E+02 -0.62908992991E+01 -0.20805781029E+01  0.27406164996E+02  0.51100000000E-03 0. -1.
        -11    1    3    3    0    0 -0.12572876642E+02 -0.57991626745E+01  0.41457640482E+01  0.14453195999E+02  0.51100000000E-03 0.  1.
        -12    1    3    3    0    0 -0.27100532752E+01  0.11135733905E+01 -0.51532334135E+01  0.59279211419E+01  0.00000000000E+00 0.  1.
</event>
<event>
 7    1  0.4675811E-010  0.4778722E+02  0.7816164E-02  0.1312668E+00
        -11   -1    0    0    0    0  0.00000000000E+00  0.00000000000E+00  0.45593999997E+02  0.45594000000E+02  0.51100000000E-03 0. -1.
         11   -1    0    0    0    0 -0.00000000000E+00 -0.00000000000E+00 -0.45593999997E+02  0.45594000000E+02  0.51100000000E-03 0.  1.
    9900012    2    1    2    0    0 -0.19970964087E+02  0.17844930253E+02  0.34151821158E+02  0.47787218547E+02  0.19999760644E+02 0.  0.
        -12    1    1    2    0    0  0.19970964087E+02 -0.17844930253E+02 -0.34151821158E+02  0.43400781453E+02  0.00000000000E+00 0.  1.
         11    1    3    3    0    0 -0.19756787002E+01 -0.52435795942E+00  0.35336060475E+00  0.20743966772E+01  0.51100000000E-03 0.  1.
        -11    1    3    3    0    0 -0.18170642767E+02  0.18329680783E+02  0.22002453829E+02  0.33915445315E+02  0.51100000000E-03 0. -1.
         12    1    3    3    0    0  0.17535738030E+00  0.39607430131E-01  0.11796006724E+02  0.11797376555E+02  0.00000000000E+00 0. -1.
</event>
<event>
 7    1  0.4675811E-010  0.4778727E+02  0.7816164E-02  0.1312668E+00
        -11   -1    0    0    0    0  0.00000000000E+00  0.00000000000E+00  0.45593999997E+02  0.45594000000E+02  0.51100000000E-03 0.  1.
         11   -1    0    0    0    0 -0.00000000000E+00 -0.00000000000E+00 -0.45593999997E+02  0.45594000000E+02  0.51100000000E-03 0. -1.
    9900012    2    1    2    0    0 -0.41877702506E+02  0.97607437363E+01  0.58829480536E+01  0.47787272319E+02  0.20000005812E+02 0.  0.
        -12    1    1    2    0    0  0.41877702506E+02 -0.97607437363E+01 -0.58829480536E+01  0.43400727681E+02  0.00000000000E+00 0.  1.
         11    1    3    3    0    0 -0.51008252896E+01  0.17206982028E+01 -0.45290521708E+01  0.70350220161E+01  0.51100000000E-03 0. -1.
        -11    1    3    3    0    0 -0.10709379354E+02 -0.29433264511E+01  0.26080875895E+01  0.11408597543E+02  0.51100000000E-03 0.  1.
         12    1    3    3    0    0 -0.26067497861E+02  0.10983371985E+02  0.78039126349E+01  0.29343652760E+02  0.00000000000E+00 0. -1.
</event>
<event>
 7    1  0.4675811E-010  0.4778728E+02  0.7816164E-02  0.1312668E+00
        -11   -1    0    0    0    0  0.00000000000E+00  0.00000000000E+00  0.45593999997E+02  0.45594000000E+02  0.51100000000E-03 0.  1.
         11   -1    0    0    0    0 -0.00000000000E+00 -0.00000000000E+00 -0.45593999997E+02  0.45594000000E+02  0.51100000000E-03 0. -1.
    9900012    2    1    2    0    0  0.28877684965E+01 -0.22005708341E+02 -0.37296545135E+02  0.47787277823E+02  0.20000030908E+02 0.  0.
        -12    1    1    2    0    0 -0.28877684965E+01  0.22005708341E+02  0.37296545135E+02  0.43400722177E+02  0.00000000000E+00 0.  1.
         11    1    3    3    0    0  0.59216226473E+01 -0.84772817036E+01 -0.22686081366E+02  0.24931670780E+02  0.51100000000E-03 0. -1.
        -11    1    3    3    0    0  0.55174252402E-01 -0.31179556137E+01 -0.10966737748E+02  0.11401492380E+02  0.51100000000E-03 0.  1.
        -12    1    3    3    0    0 -0.30890284033E+01 -0.10410471023E+02 -0.36437260204E+01  0.11454114663E+02  0.00000000000E+00 0.  1.
</event>
<event>
 7    1  0.4675811E-010  0.4778727E+02  0.7816164E-02  0.1312668E+00
        -11   -1    0    0    0    0  0.00000000000E+00  0.00000000000E+00  0.45593999997E+02  0.45594000000E+02  0.51100000000E-03 0.  1.
         11   -1    0    0    0    0 -0.00000000000E+00 -0.00000000000E+00 -0.45593999997E+02  0.45594000000E+02  0.51100000000E-03 0. -1.
    9900012    2    1    2    0    0  0.56268497887E+01 -0.31640662994E+02 -0.29168992412E+02  0.47787272914E+02  0.20000008524E+02 0.  0.
        -12    1    1    2    0    0 -0.56268497887E+01  0.31640662994E+02  0.29168992412E+02  0.43400727086E+02  0.00000000000E+00 0.  1.
         11    1    3    3    0    0 -0.35403135304E+01 -0.68278491241E+01 -0.51549055213E+01  0.92588549373E+01  0.51100000000E-03 0. -1.
        -11    1    3    3    0    0  0.11340891130E+01 -0.62650104302E+01  0.91760716798E+00  0.64326135422E+01  0.51100000000E-03 0.  1.
         12    1    3    3    0    0  0.80330742061E+01 -0.18547803440E+02 -0.24931694059E+02  0.32095804434E+02  0.00000000000E+00 0. -1.
</event>
<event>
 7    1  0.4675811E-010  0.4778726E+02  0.7816164E-02  0.1312668E+00
        -11   -1    0    0    0    0  0.00000000000E+00  0.00000000000E+00  0.45593999997E+02  0.45594000000E+02  0.51100000000E-03 0.  1.
         11   -1    0    0    0    0 -0.00000000000E+00 -0.00000000000E+00 -0.45593999997E+02  0.45594000000E+02  0.51100000000E-03 0. -1.
    9900012    2    1    2    0    0 -0.13128082309E+02  0.33472849640E+02 -0.24307325007E+02  0.47787259717E+02  0.19999948355E+02 0.  0.
        -12    1    1    2    0    0  0.13128082309E+02 -0.33472849640E+02  0.24307325007E+02  0.43400740283E+02  0.00000000000E+00 0.  1.
         11    1    3    3    0    0 -0.12867296444E+02  0.23007252534E+02 -0.18242840629E+02  0.32057795018E+02  0.51100000000E-03 0. -1.
        -11    1    3    3    0    0 -0.31370228306E+01  0.87378472174E+01 -0.76394045365E+01  0.12022952556E+02  0.51100000000E-03 0.  1.
        -12    1    3    3    0    0  0.28762369653E+01  0.17277498888E+01  0.15749201594E+01  0.37065121432E+01  0.00000000000E+00 0.  1.
</event>
<event>
 7    1  0.4675811E-010  0.4778727E+02  0.7816164E-02  0.1312668E+00
        -11   -1    0    0    0    0  0.00000000000E+00  0.00000000000E+00  0.45593999997E+02  0.45594000000E+02  0.51100000000E-03 0.  1.
         11   -1    0    0    0    0 -0.00000000000E+00 -0.00000000000E+00 -0.45593999997E+02  0.45594000000E+02  0.51100000000E-03 0. -1.
    9900012    2    1    2    0    0  0.18940053475E+02  0.38436619766E+02 -0.68937712573E+01  0.47787269052E+02  0.19999990915E+02 0.  0.
        -12    1    1    2    0    0 -0.18940053475E+02 -0.38436619766E+02  0.68937712573E+01  0.43400730948E+02  0.00000000000E+00 0.  1.
         11    1    3    3    0    0  0.45115041894E+01  0.81070537033E+01  0.62152573776E+01  0.11167247393E+02  0.51100000000E-03 0. -1.
        -11    1    3    3    0    0  0.44846332135E+01  0.10295827193E+02 -0.76787241096E+01  0.13604366831E+02  0.51100000000E-03 0.  1.
         12    1    3    3    0    0  0.99439160724E+01  0.20033738869E+02 -0.54303045252E+01  0.23015654828E+02  0.00000000000E+00 0. -1.
</event>
<event>
 7    1  0.4675811E-010  0.4778727E+02  0.7816164E-02  0.1312668E+00
        -11   -1    0    0    0    0  0.00000000000E+00  0.00000000000E+00  0.45593999997E+02  0.45594000000E+02  0.51100000000E-03 0.  1.
         11   -1    0    0    0    0 -0.00000000000E+00 -0.00000000000E+00 -0.45593999997E+02  0.45594000000E+02  0.51100000000E-03 0. -1.
    9900012    2    1    2    0    0  0.16785188344E+02  0.18266305743E+02 -0.35612116877E+02  0.47787270263E+02  0.19999996436E+02 0.  0.
        -12    1    1    2    0    0 -0.16785188344E+02 -0.18266305743E+02  0.35612116877E+02  0.43400729737E+02  0.00000000000E+00 0.  1.
         11    1    3    3    0    0  0.13544534799E+01 -0.13357098969E+01 -0.34201157754E+01  0.39135479218E+01  0.51100000000E-03 0.  1.
        -11    1    3    3    0    0  0.13458945877E+02  0.48429936637E+01 -0.20218483698E+02  0.24766608469E+02  0.51100000000E-03 0. -1.
        -12    1    3    3    0    0  0.19717889877E+01  0.14759021976E+02 -0.11973517404E+02  0.19107113872E+02  0.00000000000E+00 0.  1.
</event>
<event>
 7    1  0.4675811E-010  0.4778727E+02  0.7816164E-02  0.1312668E+00
        -11   -1    0    0    0    0  0.00000000000E+00  0.00000000000E+00  0.45593999997E+02  0.45594000000E+02  0.51100000000E-03 0.  1.
         11   -1    0    0    0    0 -0.00000000000E+00 -0.00000000000E+00 -0.45593999997E+02  0.45594000000E+02  0.51100000000E-03 0. -1.
    9900012    2    1    2    0    0  0.30952498495E+01  0.39065449063E+02 -0.18652971907E+02  0.47787271399E+02  0.20000001617E+02 0.  0.
        -12    1    1    2    0    0 -0.30952498495E+01 -0.39065449063E+02  0.18652971907E+02  0.43400728601E+02  0.00000000000E+00 0.  1.
         11    1    3    3    0    0  0.87849067578E+01  0.19044626775E+02 -0.15341178544E+02  0.25985075623E+02  0.51100000000E-03 0. -1.
        -11    1    3    3    0    0 -0.48872778693E+00  0.15280166384E+01  0.12781898401E+01  0.20512092105E+01  0.51100000000E-03 0.  1.
         12    1    3    3    0    0 -0.52009291213E+01  0.18492805649E+02 -0.45899832031E+01  0.19750986566E+02  0.00000000000E+00 0. -1.
</event>
<event>
 7    1  0.4675811E-010  0.4778728E+02  0.7816164E-02  0.1312668E+00
        -11   -1    0    0    0    0  0.00000000000E+00  0.00000000000E+00  0.45593999997E+02  0.45594000000E+02  0.51100000000E-03 0.  1.
         11   -1    0    0    0    0 -0.00000000000E+00 -0.00000000000E+00 -0.45593999997E+02  0.45594000000E+02  0.51100000000E-03 0. -1.
    9900012    2    1    2    0    0 -0.43333677102E+02 -0.11989177637E+01 -0.20923498271E+01  0.47787275320E+02  0.20000019494E+02 0.  0.
        -12    1    1    2    0    0  0.43333677102E+02  0.11989177637E+01  0.20923498271E+01  0.43400724680E+02  0.00000000000E+00 0.  1.
         11    1    3    3    0    0 -0.37738878354E+02  0.43363040297E+01 -0.55901803799E+01  0.38396309575E+02  0.51100000000E-03 0. -1.
        -11    1    3    3    0    0 -0.81142129564E+00  0.39373852778E-01  0.16152423255E+01  0.18080273368E+01  0.51100000000E-03 0.  1.
         12    1    3    3    0    0 -0.47833774521E+01 -0.55745956461E+01  0.18825882273E+01  0.75829384081E+01  0.00000000000E+00 0. -1.
</event>
<event>
 7    1  0.4675811E-010  0.4778727E+02  0.7816164E-02  0.1312668E+00
        -11   -1    0    0    0    0  0.00000000000E+00  0.00000000000E+00  0.45593999997E+02  0.45594000000E+02  0.51100000000E-03 0. -1.
         11   -1    0    0    0    0 -0.00000000000E+00 -0.00000000000E+00 -0.45593999997E+02  0.45594000000E+02  0.51100000000E-03 0.  1.
    9900012    2    1    2    0    0 -0.18443278822E+02 -0.26708657258E+02  0.28811744840E+02  0.47787267898E+02  0.19999985656E+02 0.  0.
        -12    1    1    2    0    0  0.18443278822E+02  0.26708657258E+02 -0.28811744840E+02  0.43400732102E+02  0.00000000000E+00 0.  1.
         11    1    3    3    0    0 -0.48165543693E+01  0.90375709806E+00  0.63610299343E+01  0.80298614541E+01  0.51100000000E-03 0. -1.
        -11    1    3    3    0    0  0.55126097148E+00 -0.96461711218E+00 -0.10301621324E+01  0.15151267643E+01  0.51100000000E-03 0.  1.
        -12    1    3    3    0    0 -0.14177985424E+02 -0.26647797244E+02  0.23480877038E+02  0.38242279680E+02  0.00000000000E+00 0.  1.
</event>
<event>
 7    1  0.4675811E-010  0.4778727E+02  0.7816164E-02  0.1312668E+00
        -11   -1    0    0    0    0  0.00000000000E+00  0.00000000000E+00  0.45593999997E+02  0.45594000000E+02  0.51100000000E-03 0.  1.
         11   -1    0    0    0    0 -0.00000000000E+00 -0.00000000000E+00 -0.45593999997E+02  0.45594000000E+02  0.51100000000E-03 0. -1.
    9900012    2    1    2    0    0 -0.88072014677E+01 -0.42445419895E+02 -0.21078067178E+01  0.47787270548E+02  0.19999997739E+02 0.  0.
        -12    1    1    2    0    0  0.88072014677E+01  0.42445419895E+02  0.21078067178E+01  0.43400729452E+02  0.00000000000E+00 0.  1.
         11    1    3    3    0    0 -0.46041068173E+01 -0.13824297962E+02  0.73603185819E+01  0.16324316329E+02  0.51100000000E-03 0. -1.
        -11    1    3    3    0    0  0.10432918523E+01 -0.44151153194E+01  0.87796768194E+00  0.46208796440E+01  0.51100000000E-03 0.  1.
         12    1    3    3    0    0 -0.52463865027E+01 -0.24206006614E+02 -0.10346092982E+02  0.26842074575E+02  0.00000000000E+00 0. -1.
</event>
<event>
 7    1  0.4675811E-010  0.4778728E+02  0.7816164E-02  0.1312668E+00
        -11   -1    0    0    0    0  0.00000000000E+00  0.00000000000E+00  0.45593999997E+02  0.45594000000E+02  0.51100000000E-03 0.  1.
         11   -1    0    0    0    0 -0.00000000000E+00 -0.00000000000E+00 -0.45593999997E+02  0.45594000000E+02  0.51100000000E-03 0. -1.
    9900012    2    1    2    0    0 -0.15618725624E+02 -0.38910088147E+02 -0.11210842366E+02  0.47787279542E+02  0.20000038743E+02 0.  0.
        -12    1    1    2    0    0  0.15618725624E+02  0.38910088147E+02  0.11210842366E+02  0.43400720458E+02  0.00000000000E+00 0.  1.
         11    1    3    3    0    0 -0.80540933741E+01 -0.94280853010E+01  0.75845942778E+00  0.12423062162E+02  0.51100000000E-03 0. -1.
        -11    1    3    3    0    0  0.17434798056E+01 -0.15603961577E+01  0.17202208575E+01  0.29040864417E+01  0.51100000000E-03 0.  1.
        -12    1    3    3    0    0 -0.93081120557E+01 -0.27921606688E+02 -0.13689522651E+02  0.32460130938E+02  0.00000000000E+00 0.  1.
</event>
<event>
 7    1  0.4675811E-010  0.4778727E+02  0.7816164E-02  0.1312668E+00
        -11   -1    0    0    0    0  0.00000000000E+00  0.00000000000E+00  0.45593999997E+02  0.45594000000E+02  0.51100000000E-03 0.  1.
         11   -1    0    0    0    0 -0.00000000000E+00 -0.00000000000E+00 -0.45593999997E+02  0.45594000000E+02  0.51100000000E-03 0. -1.
    9900012    2    1    2    0    0 -0.13047647747E+02 -0.31363993523E+02 -0.27012628373E+02  0.47787270823E+02  0.19999998992E+02 0.  0.
        -12    1    1    2    0    0  0.13047647747E+02  0.31363993523E+02  0.27012628373E+02  0.43400729177E+02  0.00000000000E+00 0.  1.
         11    1    3    3    0    0 -0.22530432654E+01 -0.69781316688E+01 -0.23017352508E+01  0.76856041382E+01  0.51100000000E-03 0. -1.
        -11    1    3    3    0    0 -0.52401870665E+01 -0.13127546827E+02 -0.21696461835E+01  0.14300329053E+02  0.51100000000E-03 0.  1.
         12    1    3    3    0    0 -0.55544174147E+01 -0.11258315027E+02 -0.22541246939E+02  0.25801337633E+02  0.00000000000E+00 0. -1.
</event>
<event>
 7    1  0.4675811E-010  0.4778727E+02  0.7816164E-02  0.1312668E+00
        -11   -1    0    0    0    0  0.00000000000E+00  0.00000000000E+00  0.45593999997E+02  0.45594000000E+02  0.51100000000E-03 0.  1.
         11   -1    0    0    0    0 -0.00000000000E+00 -0.00000000000E+00 -0.45593999997E+02  0.45594000000E+02  0.51100000000E-03 0. -1.
    9900012    2    1    2    0    0 -0.39714951047E+02 -0.16530854116E+02  0.57512510127E+01  0.47787270021E+02  0.19999995334E+02 0.  0.
        -12    1    1    2    0    0  0.39714951047E+02  0.16530854116E+02 -0.57512510127E+01  0.43400729979E+02  0.00000000000E+00 0.  1.
         11    1    3    3    0    0 -0.75618332546E+01 -0.12582243842E+01  0.54050480914E+01  0.93797119307E+01  0.51100000000E-03 0. -1.
        -11    1    3    3    0    0 -0.21234073104E+02 -0.12584029700E+02  0.65870442099E+01  0.25546679153E+02  0.51100000000E-03 0.  1.
        -12    1    3    3    0    0 -0.10919044689E+02 -0.26886000317E+01 -0.62408412886E+01  0.12860878937E+02  0.00000000000E+00 0.  1.
</event>
<event>
 7    1  0.4675811E-010  0.4778727E+02  0.7816164E-02  0.1312668E+00
        -11   -1    0    0    0    0  0.00000000000E+00  0.00000000000E+00  0.45593999997E+02  0.45594000000E+02  0.51100000000E-03 0. -1.
         11   -1    0    0    0    0 -0.00000000000E+00 -0.00000000000E+00 -0.45593999997E+02  0.45594000000E+02  0.51100000000E-03 0.  1.
    9900012    2    1    2    0    0  0.87788333542E+01 -0.41377129672E+02 -0.97205145754E+01  0.47787272143E+02  0.20000005008E+02 0.  0.
        -12    1    1    2    0    0 -0.87788333542E+01  0.41377129672E+02  0.97205145754E+01  0.43400727857E+02  0.00000000000E+00 0.  1.
         11    1    3    3    0    0  0.72301677096E-02 -0.15212686044E+02 -0.81520134742E+01  0.17259235003E+02  0.51100000000E-03 0. -1.
        -11    1    3    3    0    0  0.11634775663E+02 -0.22057752033E+02 -0.34585879622E+01  0.25176859622E+02  0.51100000000E-03 0.  1.
         12    1    3    3    0    0 -0.28631724764E+01 -0.41066915949E+01  0.18900868611E+01  0.53511775179E+01  0.00000000000E+00 0. -1.
</event>
<event>
 7    1  0.4675811E-010  0.4778727E+02  0.7816164E-02  0.1312668E+00
        -11   -1    0    0    0    0  0.00000000000E+00  0.00000000000E+00  0.45593999997E+02  0.45594000000E+02  0.51100000000E-03 0.  1.
         11   -1    0    0    0    0 -0.00000000000E+00 -0.00000000000E+00 -0.45593999997E+02  0.45594000000E+02  0.51100000000E-03 0. -1.
    9900012    2    1    2    0    0  0.14304362507E+02  0.28858882317E+02 -0.29089065378E+02  0.47787267289E+02  0.19999982877E+02 0.  0.
        -12    1    1    2    0    0 -0.14304362507E+02 -0.28858882317E+02  0.29089065378E+02  0.43400732711E+02  0.00000000000E+00 0.  1.
         11    1    3    3    0    0  0.17692211005E+01  0.14634460348E+01 -0.23399249689E+00  0.23079363833E+01  0.51100000000E-03 0.  1.
        -11    1    3    3    0    0  0.13562499864E+02  0.19746593318E+02 -0.11682724555E+02  0.26652493382E+02  0.51100000000E-03 0. -1.
         12    1    3    3    0    0 -0.10273584574E+01  0.76488429644E+01 -0.17172348326E+02  0.18826837523E+02  0.00000000000E+00 0. -1.
</event>
<event>
 7    1  0.4675811E-010  0.4778727E+02  0.7816164E-02  0.1312668E+00
        -11   -1    0    0    0    0  0.00000000000E+00  0.00000000000E+00  0.45593999997E+02  0.45594000000E+02  0.51100000000E-03 0.  1.
         11   -1    0    0    0    0 -0.00000000000E+00 -0.00000000000E+00 -0.45593999997E+02  0.45594000000E+02  0.51100000000E-03 0. -1.
    9900012    2    1    2    0    0  0.18431118373E+02 -0.35144028619E+02  0.17573117807E+02  0.47787270265E+02  0.19999996445E+02 0.  0.
        -12    1    1    2    0    0 -0.18431118373E+02  0.35144028619E+02 -0.17573117807E+02  0.43400729735E+02  0.00000000000E+00 0.  1.
         11    1    3    3    0    0  0.17010390760E+02 -0.35244543144E+02  0.13867178948E+02  0.41519030185E+02  0.51100000000E-03 0. -1.
        -11    1    3    3    0    0  0.20330723864E+01 -0.18079002282E+01  0.32017291241E+01  0.42015421227E+01  0.51100000000E-03 0.  1.
        -12    1    3    3    0    0 -0.61234477346E+00  0.19084147528E+01  0.50420973473E+00  0.20666979573E+01  0.00000000000E+00 0.  1.
</event>
<event>
 7    1  0.4675811E-010  0.4778727E+02  0.7816164E-02  0.1312668E+00
        -11   -1    0    0    0    0  0.00000000000E+00  0.00000000000E+00  0.45593999997E+02  0.45594000000E+02  0.51100000000E-03 0.  1.
         11   -1    0    0    0    0 -0.00000000000E+00 -0.00000000000E+00 -0.45593999997E+02  0.45594000000E+02  0.51100000000E-03 0. -1.
    9900012    2    1    2    0    0 -0.37420137580E+02  0.17720706162E+02 -0.13012813366E+02  0.47787269187E+02  0.19999991533E+02 0.  0.
        -12    1    1    2    0    0  0.37420137580E+02 -0.17720706162E+02  0.13012813366E+02  0.43400730813E+02  0.00000000000E+00 0.  1.
         11    1    3    3    0    0 -0.54898610308E+01 -0.13384018408E-01 -0.53397395966E+01  0.76584314640E+01  0.51100000000E-03 0. -1.
        -11    1    3    3    0    0 -0.18248851107E+02  0.27403163944E+01 -0.72506368192E+01  0.19826790845E+02  0.51100000000E-03 0.  1.
        -12    1    3    3    0    0 -0.13681425442E+02  0.14993773786E+02 -0.42243695050E+00  0.20302046878E+02  0.00000000000E+00 0.  1.
</event>
<event>
 7    1  0.4675811E-010  0.4778728E+02  0.7816164E-02  0.1312668E+00
        -11   -1    0    0    0    0  0.00000000000E+00  0.00000000000E+00  0.45593999997E+02  0.45594000000E+02  0.51100000000E-03 0.  1.
         11   -1    0    0    0    0 -0.00000000000E+00 -0.00000000000E+00 -0.45593999997E+02  0.45594000000E+02  0.51100000000E-03 0. -1.
    9900012    2    1    2    0    0  0.27143942776E+02 -0.15458274900E+01 -0.33829564161E+02  0.47787278538E+02  0.20000034168E+02 0.  0.
        -12    1    1    2    0    0 -0.27143942776E+02  0.15458274900E+01  0.33829564161E+02  0.43400721462E+02  0.00000000000E+00 0.  1.
         11    1    3    3    0    0  0.52792757552E+01 -0.41571015042E+01 -0.20517713097E+01  0.70258103579E+01  0.51100000000E-03 0. -1.
        -11    1    3    3    0    0 -0.13595519954E+01 -0.11837428636E+01 -0.11538406910E+01  0.21403217974E+01  0.51100000000E-03 0.  1.
         12    1    3    3    0    0  0.23224219016E+02  0.37950168779E+01 -0.30623952160E+02  0.38621146383E+02  0.00000000000E+00 0. -1.
</event>
<event>
 7    1  0.4675811E-010  0.4778728E+02  0.7816164E-02  0.1312668E+00
        -11   -1    0    0    0    0  0.00000000000E+00  0.00000000000E+00  0.45593999997E+02  0.45594000000E+02  0.51100000000E-03 0. -1.
         11   -1    0    0    0    0 -0.00000000000E+00 -0.00000000000E+00 -0.45593999997E+02  0.45594000000E+02  0.51100000000E-03 0.  1.
    9900012    2    1    2    0    0 -0.20561612464E+02 -0.24912328142E+02  0.28986528779E+02  0.47787275914E+02  0.20000022201E+02 0.  0.
        -12    1    1    2    0    0  0.20561612464E+02  0.24912328142E+02 -0.28986528779E+02  0.43400724086E+02  0.00000000000E+00 0.  1.
         11    1    3    3    0    0 -0.37100524697E+01 -0.21467344159E+01  0.66376616665E+01  0.79013613156E+01  0.51100000000E-03 0. -1.
        -11    1    3    3    0    0  0.23824563933E+01  0.85827921274E+00  0.12108503893E+01  0.28069379400E+01  0.51100000000E-03 0.  1.
         12    1    3    3    0    0 -0.19234016387E+02 -0.23623872939E+02  0.21138016723E+02  0.37078976658E+02  0.00000000000E+00 0. -1.
</event>
<event>
 7    1  0.4675811E-010  0.4778727E+02  0.7816164E-02  0.1312668E+00
        -11   -1    0    0    0    0  0.00000000000E+00  0.00000000000E+00  0.45593999997E+02  0.45594000000E+02  0.51100000000E-03 0.  1.
         11   -1    0    0    0    0 -0.00000000000E+00 -0.00000000000E+00 -0.45593999997E+02  0.45594000000E+02  0.51100000000E-03 0. -1.
    9900012    2    1    2    0    0 -0.30852614746E+02  0.25537365325E+02 -0.16720717342E+02  0.47787271287E+02  0.20000001105E+02 0.  0.
        -12    1    1    2    0    0  0.30852614746E+02 -0.25537365325E+02  0.16720717342E+02  0.43400728713E+02  0.00000000000E+00 0.  1.
         11    1    3    3    0    0 -0.23690688504E+01  0.14913309287E+01 -0.15276357665E+01  0.31890792485E+01  0.51100000000E-03 0. -1.
        -11    1    3    3    0    0 -0.12379553819E+02  0.15115641913E+02 -0.17257635239E+02  0.26068409186E+02  0.51100000000E-03 0.  1.
        -12    1    3    3    0    0 -0.16103992077E+02  0.89303924829E+01  0.20645536636E+01  0.18529782852E+02  0.00000000000E+00 0.  1.
</event>
<event>
 7    1  0.4675811E-010  0.4778727E+02  0.7816164E-02  0.1312668E+00
        -11   -1    0    0    0    0  0.00000000000E+00  0.00000000000E+00  0.45593999997E+02  0.45594000000E+02  0.51100000000E-03 0.  1.
         11   -1    0    0    0    0 -0.00000000000E+00 -0.00000000000E+00 -0.45593999997E+02  0.45594000000E+02  0.51100000000E-03 0. -1.
    9900012    2    1    2    0    0 -0.20145364184E+02  0.74702734748E+01 -0.37709183542E+02  0.47787271811E+02  0.20000003495E+02 0.  0.
        -12    1    1    2    0    0  0.20145364184E+02 -0.74702734748E+01  0.37709183542E+02  0.43400728189E+02  0.00000000000E+00 0.  1.
         11    1    3    3    0    0 -0.11232177004E+02 -0.16803284531E+00 -0.11097428511E+02  0.15790597047E+02  0.51100000000E-03 0. -1.
        -11    1    3    3    0    0 -0.96618183510E+01  0.41407717826E+01 -0.84526328895E+01  0.13488651817E+02  0.51100000000E-03 0.  1.
        -12    1    3    3    0    0  0.74863117047E+00  0.34975345375E+01 -0.18159122141E+02  0.18508022947E+02  0.00000000000E+00 0.  1.
</event>
<event>
 7    1  0.4675811E-010  0.4778728E+02  0.7816164E-02  0.1312668E+00
        -11   -1    0    0    0    0  0.00000000000E+00  0.00000000000E+00  0.45593999997E+02  0.45594000000E+02  0.51100000000E-03 0.  1.
         11   -1    0    0    0    0 -0.00000000000E+00 -0.00000000000E+00 -0.45593999997E+02  0.45594000000E+02  0.51100000000E-03 0. -1.
    9900012    2    1    2    0    0 -0.18860578939E+02  0.73677074821E+01 -0.38387736911E+02  0.47787275391E+02  0.20000019816E+02 0.  0.
        -12    1    1    2    0    0  0.18860578939E+02 -0.73677074821E+01  0.38387736911E+02  0.43400724609E+02  0.00000000000E+00 0.  1.
         11    1    3    3    0    0 -0.63697996376E+01 -0.37988521346E+01 -0.90817149462E+01  0.11725321812E+02  0.51100000000E-03 0. -1.
        -11    1    3    3    0    0 -0.94262047141E+01  0.45363124010E+01 -0.69910854437E+01  0.12582000694E+02  0.51100000000E-03 0.  1.
         12    1    3    3    0    0 -0.30645745873E+01  0.66302472156E+01 -0.22314936521E+02  0.23479952885E+02  0.00000000000E+00 0. -1.
</event>
<event>
 7    1  0.4675811E-010  0.4778727E+02  0.7816164E-02  0.1312668E+00
        -11   -1    0    0    0    0  0.00000000000E+00  0.00000000000E+00  0.45593999997E+02  0.45594000000E+02  0.51100000000E-03 0.  1.
         11   -1    0    0    0    0 -0.00000000000E+00 -0.00000000000E+00 -0.45593999997E+02  0.45594000000E+02  0.51100000000E-03 0. -1.
    9900012    2    1    2    0    0  0.75051805565E+01  0.19938633918E+02 -0.37811985870E+02  0.47787272666E+02  0.20000007392E+02 0.  0.
        -12    1    1    2    0    0 -0.75051805565E+01 -0.19938633918E+02  0.37811985870E+02  0.43400727334E+02  0.00000000000E+00 0.  1.
         11    1    3    3    0    0  0.11852969065E+01  0.14244465377E+02 -0.20599922632E+02  0.25073223473E+02  0.51100000000E-03 0. -1.
        -11    1    3    3    0    0 -0.17360255730E+01  0.64116571625E+01 -0.65210942777E+01  0.93084801767E+01  0.51100000000E-03 0.  1.
        -12    1    3    3    0    0  0.80559092229E+01 -0.71748862085E+00 -0.10690968960E+02  0.13405569016E+02  0.00000000000E+00 0.  1.
</event>
<event>
 7    1  0.4675811E-010  0.4778728E+02  0.7816164E-02  0.1312668E+00
        -11   -1    0    0    0    0  0.00000000000E+00  0.00000000000E+00  0.45593999997E+02  0.45594000000E+02  0.51100000000E-03 0. -1.
         11   -1    0    0    0    0 -0.00000000000E+00 -0.00000000000E+00 -0.45593999997E+02  0.45594000000E+02  0.51100000000E-03 0.  1.
    9900012    2    1    2    0    0 -0.33479869024E+02  0.27583210949E+02  0.13738948762E+01  0.47787277158E+02  0.20000027873E+02 0.  0.
        -12    1    1    2    0    0  0.33479869024E+02 -0.27583210949E+02 -0.13738948762E+01  0.43400722842E+02  0.00000000000E+00 0.  1.
         11    1    3    3    0    0 -0.30994111682E+01  0.64780994955E+01  0.54546445280E+00  0.72020590385E+01  0.51100000000E-03 0. -1.
        -11    1    3    3    0    0 -0.10878130219E+02  0.10717921538E+02 -0.74472619888E+01  0.16990269879E+02  0.51100000000E-03 0.  1.
         12    1    3    3    0    0 -0.19502327636E+02  0.10387189916E+02  0.82756924123E+01  0.23594948240E+02  0.00000000000E+00 0. -1.
</event>
<event>
 7    1  0.4675811E-010  0.4778727E+02  0.7816164E-02  0.1312668E+00
        -11   -1    0    0    0    0  0.00000000000E+00  0.00000000000E+00  0.45593999997E+02  0.45594000000E+02  0.51100000000E-03 0. -1.
         11   -1    0    0    0    0 -0.00000000000E+00 -0.00000000000E+00 -0.45593999997E+02  0.45594000000E+02  0.51100000000E-03 0.  1.
    9900012    2    1    2    0    0  0.13260216436E+02 -0.26799223679E+02  0.31457782232E+02  0.47787265067E+02  0.19999972748E+02 0.  0.
        -12    1    1    2    0    0 -0.13260216436E+02  0.26799223679E+02 -0.31457782232E+02  0.43400734933E+02  0.00000000000E+00 0.  1.
         11    1    3    3    0    0  0.53281029742E+01 -0.12699641512E+02  0.74685045164E+01  0.15666784475E+02  0.51100000000E-03 0. -1.
        -11    1    3    3    0    0  0.82776298931E+01 -0.93152896802E+01  0.66400235214E+01  0.14120329001E+02  0.51100000000E-03 0.  1.
        -12    1    3    3    0    0 -0.34551643107E+00 -0.47842924876E+01  0.17349254194E+02  0.18000151591E+02  0.00000000000E+00 0.  1.
</event>
<event>
 7    1  0.4675811E-010  0.4778727E+02  0.7816164E-02  0.1312668E+00
        -11   -1    0    0    0    0  0.00000000000E+00  0.00000000000E+00  0.45593999997E+02  0.45594000000E+02  0.51100000000E-03 0. -1.
         11   -1    0    0    0    0 -0.00000000000E+00 -0.00000000000E+00 -0.45593999997E+02  0.45594000000E+02  0.51100000000E-03 0.  1.
    9900012    2    1    2    0    0 -0.22725331313E+02 -0.35937332994E+01  0.36800378311E+02  0.47787269059E+02  0.19999990948E+02 0.  0.
        -12    1    1    2    0    0  0.22725331313E+02  0.35937332994E+01 -0.36800378311E+02  0.43400730941E+02  0.00000000000E+00 0.  1.
         11    1    3    3    0    0 -0.69188734213E+00 -0.32778703700E+01  0.52485469275E+01  0.62265871365E+01  0.51100000000E-03 0. -1.
        -11    1    3    3    0    0 -0.12670539721E+02 -0.63401894359E+01  0.10126052868E+02  0.17414865083E+02  0.51100000000E-03 0.  1.
         12    1    3    3    0    0 -0.93629042505E+01  0.60243265066E+01  0.21425778516E+02  0.24145816840E+02  0.00000000000E+00 0. -1.
</event>
<event>
 7    1  0.4675811E-010  0.4778727E+02  0.7816164E-02  0.1312668E+00
        -11   -1    0    0    0    0  0.00000000000E+00  0.00000000000E+00  0.45593999997E+02  0.45594000000E+02  0.51100000000E-03 0.  1.
         11   -1    0    0    0    0 -0.00000000000E+00 -0.00000000000E+00 -0.45593999997E+02  0.45594000000E+02  0.51100000000E-03 0. -1.
    9900012    2    1    2    0    0 -0.18694530943E+02  0.33355865326E+02 -0.20531050172E+02  0.47787271204E+02  0.20000000727E+02 0.  0.
        -12    1    1    2    0    0  0.18694530943E+02 -0.33355865326E+02  0.20531050172E+02  0.43400728796E+02  0.00000000000E+00 0.  1.
         11    1    3    3    0    0 -0.54457007385E+00  0.10472490273E+01  0.15522507908E+01  0.19500691960E+01  0.51100000000E-03 0. -1.
        -11    1    3    3    0    0 -0.32699158501E+01  0.24824615341E+01  0.21431273502E+01  0.46311942343E+01  0.51100000000E-03 0.  1.
         12    1    3    3    0    0 -0.14880045019E+02  0.29826154765E+02 -0.24226428313E+02  0.41206007774E+02  0.00000000000E+00 0. -1.
</event>
<event>
 7    1  0.4675811E-010  0.4778727E+02  0.7816164E-02  0.1312668E+00
        -11   -1    0    0    0    0  0.00000000000E+00  0.00000000000E+00  0.45593999997E+02  0.45594000000E+02  0.51100000000E-03 0.  1.
         11   -1    0    0    0    0 -0.00000000000E+00 -0.00000000000E+00 -0.45593999997E+02  0.45594000000E+02  0.51100000000E-03 0. -1.
    9900012    2    1    2    0    0  0.20173094551E+02 -0.21066069922E+02 -0.32138609551E+02  0.47787271094E+02  0.20000000226E+02 0.  0.
        -12    1    1    2    0    0 -0.20173094551E+02  0.21066069922E+02  0.32138609551E+02  0.43400728906E+02  0.00000000000E+00 0.  1.
         11    1    3    3    0    0 -0.72510139426E+00  0.12558988488E+00  0.17947968883E+00  0.75746819799E+00  0.51100000000E-03 0. -1.
        -11    1    3    3    0    0  0.19204770198E+01 -0.11725536857E+02 -0.62521412946E+01  0.13426306924E+02  0.51100000000E-03 0.  1.
         12    1    3    3    0    0  0.18977718925E+02 -0.94661229491E+01 -0.26065947945E+02  0.33603495972E+02  0.00000000000E+00 0. -1.
</event>
<event>
 7    1  0.4675811E-010  0.4778727E+02  0.7816164E-02  0.1312668E+00
        -11   -1    0    0    0    0  0.00000000000E+00  0.00000000000E+00  0.45593999997E+02  0.45594000000E+02  0.51100000000E-03 0.  1.
         11   -1    0    0    0    0 -0.00000000000E+00 -0.00000000000E+00 -0.45593999997E+02  0.45594000000E+02  0.51100000000E-03 0. -1.
    9900012    2    1    2    0    0  0.31269143946E+02  0.11966116706E+02 -0.27616591418E+02  0.47787269203E+02  0.19999991605E+02 0.  0.
        -12    1    1    2    0    0 -0.31269143946E+02 -0.11966116706E+02  0.27616591418E+02  0.43400730797E+02  0.00000000000E+00 0.  1.
         11    1    3    3    0    0  0.19445425326E+02 -0.20616727307E+01 -0.86074344217E+01  0.21364994457E+02  0.51100000000E-03 0. -1.
        -11    1    3    3    0    0  0.19422842966E+01  0.25723583420E+01 -0.33698166268E+01  0.46631706046E+01  0.51100000000E-03 0.  1.
         12    1    3    3    0    0  0.98814343238E+01  0.11455431094E+02 -0.15639340370E+02  0.21759104142E+02  0.00000000000E+00 0. -1.
</event>
<event>
 7    1  0.4675811E-010  0.4778727E+02  0.7816164E-02  0.1312668E+00
        -11   -1    0    0    0    0  0.00000000000E+00  0.00000000000E+00  0.45593999997E+02  0.45594000000E+02  0.51100000000E-03 0.  1.
         11   -1    0    0    0    0 -0.00000000000E+00 -0.00000000000E+00 -0.45593999997E+02  0.45594000000E+02  0.51100000000E-03 0. -1.
    9900012    2    1    2    0    0 -0.28874664727E+02  0.31025339051E+02 -0.93437287774E+01  0.47787271967E+02  0.20000004207E+02 0.  0.
        -12    1    1    2    0    0  0.28874664727E+02 -0.31025339051E+02  0.93437287774E+01  0.43400728033E+02  0.00000000000E+00 0.  1.
         11    1    3    3    0    0 -0.10354581440E+02  0.33354117358E+00 -0.50418902911E+01  0.11521686703E+02  0.51100000000E-03 0. -1.
        -11    1    3    3    0    0 -0.29172562775E+01  0.33541854096E+01 -0.13740653318E+01  0.46528485628E+01  0.51100000000E-03 0.  1.
        -12    1    3    3    0    0 -0.15602827010E+02  0.27337612468E+02 -0.29277731545E+01  0.31612736702E+02  0.00000000000E+00 0.  1.
</event>
<event>
 7    1  0.4675811E-010  0.4778726E+02  0.7816164E-02  0.1312668E+00
        -11   -1    0    0    0    0  0.00000000000E+00  0.00000000000E+00  0.45593999997E+02  0.45594000000E+02  0.51100000000E-03 0. -1.
         11   -1    0    0    0    0 -0.00000000000E+00 -0.00000000000E+00 -0.45593999997E+02  0.45594000000E+02  0.51100000000E-03 0.  1.
    9900012    2    1    2    0    0  0.19143970613E+02 -0.89827290573E+01  0.37900433991E+02  0.47787263499E+02  0.19999965597E+02 0.  0.
        -12    1    1    2    0    0 -0.19143970613E+02  0.89827290573E+01 -0.37900433991E+02  0.43400736501E+02  0.00000000000E+00 0.  1.
         11    1    3    3    0    0  0.85894905007E+01 -0.94805687089E+01  0.16691577855E+02  0.21030199753E+02  0.51100000000E-03 0. -1.
        -11    1    3    3    0    0  0.10692575775E+01 -0.51290527493E+01  0.59195499254E+01  0.79051606849E+01  0.51100000000E-03 0.  1.
        -12    1    3    3    0    0  0.94852225352E+01  0.56268924009E+01  0.15289306210E+02  0.18851903061E+02  0.00000000000E+00 0.  1.
</event>
<event>
 7    1  0.4675811E-010  0.4778727E+02  0.7816164E-02  0.1312668E+00
        -11   -1    0    0    0    0  0.00000000000E+00  0.00000000000E+00  0.45593999997E+02  0.45594000000E+02  0.51100000000E-03 0. -1.
         11   -1    0    0    0    0 -0.00000000000E+00 -0.00000000000E+00 -0.45593999997E+02  0.45594000000E+02  0.51100000000E-03 0.  1.
    9900012    2    1    2    0    0  0.23838840607E+02  0.33647876496E+02 -0.13533428128E+02  0.47787267390E+02  0.19999983340E+02 0.  0.
        -12    1    1    2    0    0 -0.23838840607E+02 -0.33647876496E+02  0.13533428128E+02  0.43400732610E+02  0.00000000000E+00 0.  1.
         11    1    3    3    0    0  0.84221205144E+01  0.14815963257E+02  0.81736715263E-01  0.17042639536E+02  0.51100000000E-03 0. -1.
        -11    1    3    3    0    0  0.65395689005E+01  0.14815426316E+02 -0.32473119757E+01  0.16516896006E+02  0.51100000000E-03 0.  1.
        -12    1    3    3    0    0  0.88771511918E+01  0.40164869224E+01 -0.10367852868E+02  0.14227731849E+02  0.00000000000E+00 0.  1.
</event>
<event>
 7    1  0.4675811E-010  0.4778727E+02  0.7816164E-02  0.1312668E+00
        -11   -1    0    0    0    0  0.00000000000E+00  0.00000000000E+00  0.45593999997E+02  0.45594000000E+02  0.51100000000E-03 0.  1.
         11   -1    0    0    0    0 -0.00000000000E+00 -0.00000000000E+00 -0.45593999997E+02  0.45594000000E+02  0.51100000000E-03 0. -1.
    9900012    2    1    2    0    0  0.13704333109E+02  0.21453721020E+02 -0.35150428659E+02  0.47787268134E+02  0.19999986731E+02 0.  0.
        -12    1    1    2    0    0 -0.13704333109E+02 -0.21453721020E+02  0.35150428659E+02  0.43400731866E+02  0.00000000000E+00 0.  1.
         11    1    3    3    0    0  0.39176217838E+01  0.16206321812E+02 -0.20050213088E+02  0.26076880033E+02  0.51100000000E-03 0. -1.
        -11    1    3    3    0    0 -0.28815035957E+00 -0.26628206856E+01 -0.36660968310E+01  0.45402544939E+01  0.51100000000E-03 0.  1.
         12    1    3    3    0    0  0.10074861685E+02  0.79102198941E+01 -0.11434118740E+02  0.17170133608E+02  0.00000000000E+00 0. -1.
</event>
<event>
 7    1  0.4675811E-010  0.4778727E+02  0.7816164E-02  0.1312668E+00
        -11   -1    0    0    0    0  0.00000000000E+00  0.00000000000E+00  0.45593999997E+02  0.45594000000E+02  0.51100000000E-03 0. -1.
         11   -1    0    0    0    0 -0.00000000000E+00 -0.00000000000E+00 -0.45593999997E+02  0.45594000000E+02  0.51100000000E-03 0.  1.
    9900012    2    1    2    0    0  0.45826497614E+01 -0.40785358757E+02 -0.14113014789E+02  0.47787270119E+02  0.19999995781E+02 0.  0.
        -12    1    1    2    0    0 -0.45826497614E+01  0.40785358757E+02  0.14113014789E+02  0.43400729881E+02  0.00000000000E+00 0.  1.
         11    1    3    3    0    0 -0.20056144352E+01 -0.23942439207E+02 -0.93200744887E+01  0.25770655272E+02  0.51100000000E-03 0. -1.
        -11    1    3    3    0    0  0.49178063438E+01 -0.17871480846E+02 -0.20562904972E+01  0.18649476607E+02  0.51100000000E-03 0.  1.
        -12    1    3    3    0    0  0.16704578528E+01  0.10285612959E+01 -0.27366498033E+01  0.33671382394E+01  0.00000000000E+00 0.  1.
</event>
<event>
 7    1  0.4675811E-010  0.4778726E+02  0.7816164E-02  0.1312668E+00
        -11   -1    0    0    0    0  0.00000000000E+00  0.00000000000E+00  0.45593999997E+02  0.45594000000E+02  0.51100000000E-03 0.  1.
         11   -1    0    0    0    0 -0.00000000000E+00 -0.00000000000E+00 -0.45593999997E+02  0.45594000000E+02  0.51100000000E-03 0. -1.
    9900012    2    1    2    0    0 -0.14913488950E+02  0.23918125671E+02 -0.33002047728E+02  0.47787262189E+02  0.19999959625E+02 0.  0.
        -12    1    1    2    0    0  0.14913488950E+02 -0.23918125671E+02  0.33002047728E+02  0.43400737811E+02  0.00000000000E+00 0.  1.
         11    1    3    3    0    0 -0.26761383335E+01  0.69768476017E+01 -0.21781356135E+02  0.23027496481E+02  0.51100000000E-03 0. -1.
        -11    1    3    3    0    0  0.27571120799E+00 -0.51333438554E+00 -0.17013009460E+00  0.60702007528E+00  0.51100000000E-03 0.  1.
        -12    1    3    3    0    0 -0.12513061825E+02  0.17454612455E+02 -0.11050561498E+02  0.24152745633E+02  0.00000000000E+00 0.  1.
</event>
<event>
 7    1  0.4675811E-010  0.4778733E+02  0.7816164E-02  0.1312667E+00
        -11   -1    0    0    0    0  0.00000000000E+00  0.00000000000E+00  0.45593999997E+02  0.45594000000E+02  0.51100000000E-03 0.  1.
         11   -1    0    0    0    0 -0.00000000000E+00 -0.00000000000E+00 -0.45593999997E+02  0.45594000000E+02  0.51100000000E-03 0. -1.
    9900012    2    1    2    0    0 -0.63752490855E+01 -0.42595702894E+02 -0.53460303700E+01  0.47787334721E+02  0.20000290325E+02 0.  0.
        -12    1    1    2    0    0  0.63752490855E+01  0.42595702894E+02  0.53460303700E+01  0.43400665279E+02  0.00000000000E+00 0.  1.
         11    1    3    3    0    0 -0.65174348156E-01 -0.22128936049E+02 -0.10281124392E+01  0.22152902153E+02  0.51100000000E-03 0. -1.
        -11    1    3    3    0    0 -0.59801960298E+00 -0.39205497249E+01  0.45301407543E+01  0.60208399003E+01  0.51100000000E-03 0.  1.
         12    1    3    3    0    0 -0.57120551344E+01 -0.16546217120E+02 -0.88480586851E+01  0.19613592668E+02  0.00000000000E+00 0. -1.
</event>
<event>
 7    1  0.4675811E-010  0.4778727E+02  0.7816164E-02  0.1312668E+00
        -11   -1    0    0    0    0  0.00000000000E+00  0.00000000000E+00  0.45593999997E+02  0.45594000000E+02  0.51100000000E-03 0. -1.
         11   -1    0    0    0    0 -0.00000000000E+00 -0.00000000000E+00 -0.45593999997E+02  0.45594000000E+02  0.51100000000E-03 0.  1.
    9900012    2    1    2    0    0  0.11754049076E+02  0.38040145828E+02  0.17274644162E+02  0.47787266191E+02  0.19999977870E+02 0.  0.
        -12    1    1    2    0    0 -0.11754049076E+02 -0.38040145828E+02 -0.17274644162E+02  0.43400733809E+02  0.00000000000E+00 0.  1.
         11    1    3    3    0    0  0.46061271391E+01  0.18975576479E+02  0.14152751130E+01  0.19577842420E+02  0.51100000000E-03 0. -1.
        -11    1    3    3    0    0  0.36619284850E+01  0.46418460584E+01 -0.72437920002E+00  0.59566081410E+01  0.51100000000E-03 0.  1.
        -12    1    3    3    0    0  0.34859934514E+01  0.14422723291E+02  0.16583748249E+02  0.22252815629E+02  0.00000000000E+00 0.  1.
</event>
<event>
 7    1  0.5553526E-010  0.4778729E+02  0.7816164E-02  0.1312668E+00
        -11   -1    0    0    0    0  0.00000000000E+00  0.00000000000E+00  0.45593999997E+02  0.45594000000E+02  0.51100000000E-03 0.  1.
         11   -1    0    0    0    0 -0.00000000000E+00 -0.00000000000E+00 -0.45593999997E+02  0.45594000000E+02  0.51100000000E-03 0. -1.
    9900012    2    1    2    0    0  0.42517554301E+02 -0.64741381062E+01  0.58279417927E+01  0.47787288099E+02  0.20000077757E+02 0.  0.
        -12    1    1    2    0    0 -0.42517554301E+02  0.64741381062E+01 -0.58279417927E+01  0.43400711901E+02  0.00000000000E+00 0.  1.
         11    1    3    3    0    0  0.98939235717E+01 -0.77488483775E+01  0.20287409966E+01  0.12729892581E+02  0.51100000000E-03 0. -1.
        -11    1    3    3    0    0  0.18757553970E+01  0.18186282590E+01 -0.25559005687E+01  0.36549275003E+01  0.51100000000E-03 0.  1.
         12    1    3    3    0    0  0.30747875333E+02 -0.54391798765E+00  0.63551013649E+01  0.31402468018E+02  0.00000000000E+00 0. -1.
</event>
<event>
 7    1  0.4675811E-010  0.4778727E+02  0.7816164E-02  0.1312668E+00
        -11   -1    0    0    0    0  0.00000000000E+00  0.00000000000E+00  0.45593999997E+02  0.45594000000E+02  0.51100000000E-03 0.  1.
         11   -1    0    0    0    0 -0.00000000000E+00 -0.00000000000E+00 -0.45593999997E+02  0.45594000000E+02  0.51100000000E-03 0. -1.
    9900012    2    1    2    0    0 -0.19249098496E+02 -0.70255660637E+00 -0.38892184586E+02  0.47787269584E+02  0.19999993343E+02 0.  0.
        -12    1    1    2    0    0  0.19249098496E+02  0.70255660637E+00  0.38892184586E+02  0.43400730416E+02  0.00000000000E+00 0.  1.
         11    1    3    3    0    0 -0.70865575714E+01  0.40120253856E+01 -0.90571497330E+01  0.12179803260E+02  0.51100000000E-03 0. -1.
        -11    1    3    3    0    0  0.74922997945E-01  0.30250286222E+01 -0.13249839184E+02  0.13590976797E+02  0.51100000000E-03 0.  1.
        -12    1    3    3    0    0 -0.12237463923E+02 -0.77396106142E+01 -0.16585195669E+02  0.22016489527E+02  0.00000000000E+00 0.  1.
</event>
<event>
 7    1  0.4675811E-010  0.4778727E+02  0.7816164E-02  0.1312668E+00
        -11   -1    0    0    0    0  0.00000000000E+00  0.00000000000E+00  0.45593999997E+02  0.45594000000E+02  0.51100000000E-03 0.  1.
         11   -1    0    0    0    0 -0.00000000000E+00 -0.00000000000E+00 -0.45593999997E+02  0.45594000000E+02  0.51100000000E-03 0. -1.
    9900012    2    1    2    0    0  0.20644518380E+01 -0.18529927776E+02 -0.39191875625E+02  0.47787270746E+02  0.19999998639E+02 0.  0.
        -12    1    1    2    0    0 -0.20644518380E+01  0.18529927776E+02  0.39191875625E+02  0.43400729254E+02  0.00000000000E+00 0.  1.
         11    1    3    3    0    0 -0.65400219480E+00  0.16256761049E+01 -0.89517802514E+00  0.19677107579E+01  0.51100000000E-03 0.  1.
        -11    1    3    3    0    0 -0.56431007241E+01 -0.12365741172E+02 -0.23148568537E+02  0.26844224073E+02  0.51100000000E-03 0. -1.
         12    1    3    3    0    0  0.83615547569E+01 -0.77898627090E+01 -0.15148129063E+02  0.18975335915E+02  0.00000000000E+00 0. -1.
</event>
<event>
 7    1  0.4675811E-010  0.4778726E+02  0.7816164E-02  0.1312668E+00
        -11   -1    0    0    0    0  0.00000000000E+00  0.00000000000E+00  0.45593999997E+02  0.45594000000E+02  0.51100000000E-03 0.  1.
         11   -1    0    0    0    0 -0.00000000000E+00 -0.00000000000E+00 -0.45593999997E+02  0.45594000000E+02  0.51100000000E-03 0. -1.
    9900012    2    1    2    0    0  0.23228094577E+02  0.32318334535E+02 -0.17309093773E+02  0.47787264384E+02  0.19999969632E+02 0.  0.
        -12    1    1    2    0    0 -0.23228094577E+02 -0.32318334535E+02  0.17309093773E+02  0.43400735616E+02  0.00000000000E+00 0.  1.
         11    1    3    3    0    0  0.18534466334E+02  0.14454450622E+02 -0.36953723582E+01  0.23793136872E+02  0.51100000000E-03 0. -1.
        -11    1    3    3    0    0  0.15213113765E+01  0.11586397945E+01 -0.40658097955E+01  0.44930662171E+01  0.51100000000E-03 0.  1.
         12    1    3    3    0    0  0.31723168663E+01  0.16705244118E+02 -0.95479116197E+01  0.19501061295E+02  0.00000000000E+00 0. -1.
</event>
<event>
 7    1  0.4675811E-010  0.4778727E+02  0.7816164E-02  0.1312668E+00
        -11   -1    0    0    0    0  0.00000000000E+00  0.00000000000E+00  0.45593999997E+02  0.45594000000E+02  0.51100000000E-03 0.  1.
         11   -1    0    0    0    0 -0.00000000000E+00 -0.00000000000E+00 -0.45593999997E+02  0.45594000000E+02  0.51100000000E-03 0. -1.
    9900012    2    1    2    0    0  0.27938542431E+02  0.14660960691E+01 -0.33179989503E+02  0.47787270810E+02  0.19999998930E+02 0.  0.
        -12    1    1    2    0    0 -0.27938542431E+02 -0.14660960691E+01  0.33179989503E+02  0.43400729190E+02  0.00000000000E+00 0.  1.
         11    1    3    3    0    0  0.12759997552E+01 -0.22324757596E+01 -0.28374867301E+00  0.25870131354E+01  0.51100000000E-03 0. -1.
        -11    1    3    3    0    0  0.99396824023E+01 -0.13931422008E+00 -0.24275440186E+01  0.10232774059E+02  0.51100000000E-03 0.  1.
         12    1    3    3    0    0  0.16722860273E+02  0.38378860488E+01 -0.30468696811E+02  0.34967483616E+02  0.00000000000E+00 0. -1.
</event>
<event>
 7    1  0.4675811E-010  0.4778727E+02  0.7816164E-02  0.1312668E+00
        -11   -1    0    0    0    0  0.00000000000E+00  0.00000000000E+00  0.45593999997E+02  0.45594000000E+02  0.51100000000E-03 0. -1.
         11   -1    0    0    0    0 -0.00000000000E+00 -0.00000000000E+00 -0.45593999997E+02  0.45594000000E+02  0.51100000000E-03 0.  1.
    9900012    2    1    2    0    0 -0.33933787646E+02  0.26732969541E+02  0.41797052745E+01  0.47787267971E+02  0.19999985985E+02 0.  0.
        -12    1    1    2    0    0  0.33933787646E+02 -0.26732969541E+02 -0.41797052745E+01  0.43400732029E+02  0.00000000000E+00 0.  1.
         11    1    3    3    0    0 -0.27009490338E+02  0.24809950798E+02  0.37285346923E+01  0.36863914579E+02  0.51100000000E-03 0. -1.
        -11    1    3    3    0    0  0.18300072940E-01  0.37261589763E+01  0.42508675848E+00  0.37503725979E+01  0.51100000000E-03 0.  1.
         12    1    3    3    0    0 -0.69425973814E+01 -0.18031402328E+01  0.26083823661E-01  0.71729807936E+01  0.00000000000E+00 0. -1.
</event>
<event>
 7    1  0.4675811E-010  0.4778727E+02  0.7816164E-02  0.1312668E+00
        -11   -1    0    0    0    0  0.00000000000E+00  0.00000000000E+00  0.45593999997E+02  0.45594000000E+02  0.51100000000E-03 0. -1.
         11   -1    0    0    0    0 -0.00000000000E+00 -0.00000000000E+00 -0.45593999997E+02  0.45594000000E+02  0.51100000000E-03 0.  1.
    9900012    2    1    2    0    0  0.26014778811E+02 -0.25063121057E+02  0.24056070325E+02  0.47787271052E+02  0.20000000033E+02 0.  0.
        -12    1    1    2    0    0 -0.26014778811E+02  0.25063121057E+02 -0.24056070325E+02  0.43400728948E+02  0.00000000000E+00 0.  1.
         11    1    3    3    0    0  0.38301721877E+01 -0.10467834878E+02  0.62019848278E+01  0.12755798763E+02  0.51100000000E-03 0. -1.
        -11    1    3    3    0    0  0.36592957892E+01 -0.80855196111E+01  0.11218975421E+02  0.14304946096E+02  0.51100000000E-03 0.  1.
        -12    1    3    3    0    0  0.18525310835E+02 -0.65097665685E+01  0.66351100767E+01  0.20726526193E+02  0.00000000000E+00 0.  1.
</event>
<event>
 7    1  0.4675811E-010  0.4778727E+02  0.7816164E-02  0.1312668E+00
        -11   -1    0    0    0    0  0.00000000000E+00  0.00000000000E+00  0.45593999997E+02  0.45594000000E+02  0.51100000000E-03 0.  1.
         11   -1    0    0    0    0 -0.00000000000E+00 -0.00000000000E+00 -0.45593999997E+02  0.45594000000E+02  0.51100000000E-03 0. -1.
    9900012    2    1    2    0    0  0.10411833359E+02  0.63194798265E+01 -0.41656706548E+02  0.47787270748E+02  0.19999998648E+02 0.  0.
        -12    1    1    2    0    0 -0.10411833359E+02 -0.63194798265E+01  0.41656706548E+02  0.43400729252E+02  0.00000000000E+00 0.  1.
         11    1    3    3    0    0  0.63560985633E+01  0.29307990078E+01 -0.25317711408E+02  0.26267395816E+02  0.51100000000E-03 0. -1.
        -11    1    3    3    0    0  0.86240362889E+01  0.78970014582E+00 -0.11318105116E+02  0.14251215103E+02  0.51100000000E-03 0.  1.
        -12    1    3    3    0    0 -0.45683014932E+01  0.25989806728E+01 -0.50208900247E+01  0.72686598290E+01  0.00000000000E+00 0.  1.
</event>
<event>
 7    1  0.4675811E-010  0.4778721E+02  0.7816164E-02  0.1312668E+00
        -11   -1    0    0    0    0  0.00000000000E+00  0.00000000000E+00  0.45593999997E+02  0.45594000000E+02  0.51100000000E-03 0. -1.
         11   -1    0    0    0    0 -0.00000000000E+00 -0.00000000000E+00 -0.45593999997E+02  0.45594000000E+02  0.51100000000E-03 0.  1.
    9900012    2    1    2    0    0  0.41045208692E+02  0.13567408309E+02 -0.38528812952E+01  0.47787211769E+02  0.19999729737E+02 0.  0.
        -12    1    1    2    0    0 -0.41045208692E+02 -0.13567408309E+02  0.38528812952E+01  0.43400788231E+02  0.00000000000E+00 0.  1.
         11    1    3    3    0    0  0.24485645918E+02  0.41116236085E+01 -0.26866503993E+01  0.24973393749E+02  0.51100000000E-03 0. -1.
        -11    1    3    3    0    0  0.13768630313E+02  0.15621787426E+01 -0.31478863960E+01  0.14210023651E+02  0.51100000000E-03 0.  1.
        -12    1    3    3    0    0  0.27909324610E+01  0.78936059583E+01  0.19816555001E+01  0.86037943692E+01  0.00000000000E+00 0.  1.
</event>
<event>
 7    1  0.4675811E-010  0.4778727E+02  0.7816164E-02  0.1312668E+00
        -11   -1    0    0    0    0  0.00000000000E+00  0.00000000000E+00  0.45593999997E+02  0.45594000000E+02  0.51100000000E-03 0.  1.
         11   -1    0    0    0    0 -0.00000000000E+00 -0.00000000000E+00 -0.45593999997E+02  0.45594000000E+02  0.51100000000E-03 0. -1.
    9900012    2    1    2    0    0 -0.22485071449E+02 -0.64735245222E+01 -0.36553222433E+02  0.47787273876E+02  0.20000012911E+02 0.  0.
        -12    1    1    2    0    0  0.22485071449E+02  0.64735245222E+01  0.36553222433E+02  0.43400726124E+02  0.00000000000E+00 0.  1.
         11    1    3    3    0    0 -0.18000969357E+02 -0.29258282644E+00 -0.29780322688E+02  0.34799254621E+02  0.51100000000E-03 0. -1.
        -11    1    3    3    0    0 -0.97082612913E+00  0.19695341853E+01 -0.11163665831E+01  0.24632991879E+01  0.51100000000E-03 0.  1.
        -12    1    3    3    0    0 -0.35132759633E+01 -0.81504758811E+01 -0.56565331620E+01  0.10524720067E+02  0.00000000000E+00 0.  1.
</event>
<event>
 7    1  0.4675811E-010  0.4778727E+02  0.7816164E-02  0.1312668E+00
        -11   -1    0    0    0    0  0.00000000000E+00  0.00000000000E+00  0.45593999997E+02  0.45594000000E+02  0.51100000000E-03 0. -1.
         11   -1    0    0    0    0 -0.00000000000E+00 -0.00000000000E+00 -0.45593999997E+02  0.45594000000E+02  0.51100000000E-03 0.  1.
    9900012    2    1    2    0    0 -0.39102766201E+02 -0.49038941206E+01  0.18181004580E+02  0.47787269250E+02  0.19999991819E+02 0.  0.
        -12    1    1    2    0    0  0.39102766201E+02  0.49038941206E+01 -0.18181004580E+02  0.43400730750E+02  0.00000000000E+00 0.  1.
         11    1    3    3    0    0 -0.24343822428E+02  0.15776255816E+01  0.88433132318E+01  0.25948309811E+02  0.51100000000E-03 0. -1.
        -11    1    3    3    0    0 -0.10374807409E+01  0.21183919278E+01 -0.10689047477E+01  0.25896926977E+01  0.51100000000E-03 0.  1.
        -12    1    3    3    0    0 -0.13721463032E+02 -0.85999116300E+01  0.10406596096E+02  0.19249266741E+02  0.00000000000E+00 0.  1.
</event>
<event>
 7    1  0.4675811E-010  0.4778727E+02  0.7816164E-02  0.1312668E+00
        -11   -1    0    0    0    0  0.00000000000E+00  0.00000000000E+00  0.45593999997E+02  0.45594000000E+02  0.51100000000E-03 0. -1.
         11   -1    0    0    0    0 -0.00000000000E+00 -0.00000000000E+00 -0.45593999997E+02  0.45594000000E+02  0.51100000000E-03 0.  1.
    9900012    2    1    2    0    0 -0.23330681326E+02 -0.36044112047E+02 -0.63344003978E+01  0.47787270366E+02  0.19999996905E+02 0.  0.
        -12    1    1    2    0    0  0.23330681326E+02  0.36044112047E+02  0.63344003978E+01  0.43400729634E+02  0.00000000000E+00 0.  1.
         11    1    3    3    0    0 -0.68373974615E+00 -0.39396862156E+01 -0.56611732286E+01  0.69309097602E+01  0.51100000000E-03 0. -1.
        -11    1    3    3    0    0  0.91260906640E+00 -0.32558199433E+01 -0.12514766816E+01  0.36054698663E+01  0.51100000000E-03 0.  1.
         12    1    3    3    0    0 -0.23559550647E+02 -0.28848605888E+02  0.57824951241E+00  0.37250890739E+02  0.00000000000E+00 0. -1.
</event>
<event>
 7    1  0.4675811E-010  0.4778727E+02  0.7816164E-02  0.1312668E+00
        -11   -1    0    0    0    0  0.00000000000E+00  0.00000000000E+00  0.45593999997E+02  0.45594000000E+02  0.51100000000E-03 0.  1.
         11   -1    0    0    0    0 -0.00000000000E+00 -0.00000000000E+00 -0.45593999997E+02  0.45594000000E+02  0.51100000000E-03 0. -1.
    9900012    2    1    2    0    0 -0.40652596258E+02  0.18705026261E+01 -0.15082807911E+02  0.47787268934E+02  0.19999990377E+02 0.  0.
        -12    1    1    2    0    0  0.40652596258E+02 -0.18705026261E+01  0.15082807911E+02  0.43400731066E+02  0.00000000000E+00 0.  1.
         11    1    3    3    0    0 -0.27432437239E+02  0.92998163893E+01 -0.12464409028E+02  0.31533897483E+02  0.51100000000E-03 0. -1.
        -11    1    3    3    0    0 -0.32236517611E+01 -0.34250867623E+01 -0.28175757231E+01  0.54828718044E+01  0.51100000000E-03 0.  1.
        -12    1    3    3    0    0 -0.99965072577E+01 -0.40042270008E+01  0.19917684036E+00  0.10770499647E+02  0.00000000000E+00 0.  1.
</event>
<event>
 7    1  0.4675811E-010  0.4778730E+02  0.7816164E-02  0.1312668E+00
        -11   -1    0    0    0    0  0.00000000000E+00  0.00000000000E+00  0.45593999997E+02  0.45594000000E+02  0.51100000000E-03 0.  1.
         11   -1    0    0    0    0 -0.00000000000E+00 -0.00000000000E+00 -0.45593999997E+02  0.45594000000E+02  0.51100000000E-03 0. -1.
    9900012    2    1    2    0    0  0.36690501486E+02  0.22894056977E+02  0.36455893395E+01  0.47787296482E+02  0.20000115982E+02 0.  0.
        -12    1    1    2    0    0 -0.36690501486E+02 -0.22894056977E+02 -0.36455893395E+01  0.43400703518E+02  0.00000000000E+00 0.  1.
         11    1    3    3    0    0  0.20975861624E+02  0.35287285687E+01 -0.55030537270E+00  0.21277723855E+02  0.51100000000E-03 0.  1.
        -11    1    3    3    0    0  0.73922817683E+01  0.60172619098E+01 -0.17543217973E+01  0.96917963177E+01  0.51100000000E-03 0. -1.
        -12    1    3    3    0    0  0.83223580938E+01  0.13348066498E+02  0.59502165095E+01  0.16817776310E+02  0.00000000000E+00 0.  1.
</event>
<event>
 7    1  0.4675811E-010  0.4778727E+02  0.7816164E-02  0.1312668E+00
        -11   -1    0    0    0    0  0.00000000000E+00  0.00000000000E+00  0.45593999997E+02  0.45594000000E+02  0.51100000000E-03 0.  1.
         11   -1    0    0    0    0 -0.00000000000E+00 -0.00000000000E+00 -0.45593999997E+02  0.45594000000E+02  0.51100000000E-03 0. -1.
    9900012    2    1    2    0    0 -0.25727005372E+02 -0.11706814606E+02 -0.32934708370E+02  0.47787270409E+02  0.19999997105E+02 0.  0.
        -12    1    1    2    0    0  0.25727005372E+02  0.11706814606E+02  0.32934708370E+02  0.43400729591E+02  0.00000000000E+00 0.  1.
         11    1    3    3    0    0 -0.41916242065E+01 -0.73492743858E+01 -0.14275503527E+02  0.16594322785E+02  0.51100000000E-03 0. -1.
        -11    1    3    3    0    0 -0.25713547771E+01 -0.51289129665E+01 -0.64153276573E+01  0.86066278425E+01  0.51100000000E-03 0.  1.
        -12    1    3    3    0    0 -0.18964026388E+02  0.77137274647E+00 -0.12243877185E+02  0.22586319782E+02  0.00000000000E+00 0.  1.
</event>
<event>
 7    1  0.4675811E-010  0.4778727E+02  0.7816164E-02  0.1312668E+00
        -11   -1    0    0    0    0  0.00000000000E+00  0.00000000000E+00  0.45593999997E+02  0.45594000000E+02  0.51100000000E-03 0.  1.
         11   -1    0    0    0    0 -0.00000000000E+00 -0.00000000000E+00 -0.45593999997E+02  0.45594000000E+02  0.51100000000E-03 0. -1.
    9900012    2    1    2    0    0 -0.30420026687E+01  0.17321770331E+02 -0.39677775395E+02  0.47787269961E+02  0.19999995061E+02 0.  0.
        -12    1    1    2    0    0  0.30420026687E+01 -0.17321770331E+02  0.39677775395E+02  0.43400730039E+02  0.00000000000E+00 0.  1.
         11    1    3    3    0    0  0.66670747004E+01  0.10722027687E+02 -0.21967743273E+02  0.25337590800E+02  0.51100000000E-03 0. -1.
        -11    1    3    3    0    0 -0.66772042021E+00 -0.12114824987E+01 -0.44441535602E+00  0.14529437959E+01  0.51100000000E-03 0.  1.
         12    1    3    3    0    0 -0.90413569488E+01  0.78112251421E+01 -0.17265616765E+02  0.20996735365E+02  0.00000000000E+00 0. -1.
</event>
<event>
 7    1  0.4675811E-010  0.4778726E+02  0.7816164E-02  0.1312668E+00
        -11   -1    0    0    0    0  0.00000000000E+00  0.00000000000E+00  0.45593999997E+02  0.45594000000E+02  0.51100000000E-03 0. -1.
         11   -1    0    0    0    0 -0.00000000000E+00 -0.00000000000E+00 -0.45593999997E+02  0.45594000000E+02  0.51100000000E-03 0.  1.
    9900012    2    1    2    0    0 -0.25664527985E+02 -0.32076480907E+01  0.34852076127E+02  0.47787260222E+02  0.19999950656E+02 0.  0.
        -12    1    1    2    0    0  0.25664527985E+02  0.32076480907E+01 -0.34852076127E+02  0.43400739778E+02  0.00000000000E+00 0.  1.
         11    1    3    3    0    0 -0.11404810050E+02 -0.21742566494E+01  0.91976882744E+01  0.14811973336E+02  0.51100000000E-03 0. -1.
        -11    1    3    3    0    0 -0.58917063923E+01 -0.53631208516E+01  0.31302908477E+01  0.85600228115E+01  0.51100000000E-03 0.  1.
         12    1    3    3    0    0 -0.83680115421E+01  0.43297294103E+01  0.22524097005E+02  0.24415264074E+02  0.00000000000E+00 0. -1.
</event>
<event>
 7    1  0.4675811E-010  0.4778727E+02  0.7816164E-02  0.1312668E+00
        -11   -1    0    0    0    0  0.00000000000E+00  0.00000000000E+00  0.45593999997E+02  0.45594000000E+02  0.51100000000E-03 0. -1.
         11   -1    0    0    0    0 -0.00000000000E+00 -0.00000000000E+00 -0.45593999997E+02  0.45594000000E+02  0.51100000000E-03 0.  1.
    9900012    2    1    2    0    0  0.33135270622E+02  0.15386511633E+02  0.23429314149E+02  0.47787266585E+02  0.19999979668E+02 0.  0.
        -12    1    1    2    0    0 -0.33135270622E+02 -0.15386511633E+02 -0.23429314149E+02  0.43400733415E+02  0.00000000000E+00 0.  1.
         11    1    3    3    0    0  0.20227894186E+02  0.23305689933E+01  0.95388969242E+01  0.22485324321E+02  0.51100000000E-03 0. -1.
        -11    1    3    3    0    0  0.26239875942E+01 -0.16826395769E+00 -0.10732641008E+01  0.28399858706E+01  0.51100000000E-03 0.  1.
        -12    1    3    3    0    0  0.10283388842E+02  0.13224206597E+02  0.14963681326E+02  0.22461956394E+02  0.00000000000E+00 0.  1.
</event>
<event>
 7    1  0.4675811E-010  0.4778727E+02  0.7816164E-02  0.1312668E+00
        -11   -1    0    0    0    0  0.00000000000E+00  0.00000000000E+00  0.45593999997E+02  0.45594000000E+02  0.51100000000E-03 0.  1.
         11   -1    0    0    0    0 -0.00000000000E+00 -0.00000000000E+00 -0.45593999997E+02  0.45594000000E+02  0.51100000000E-03 0. -1.
    9900012    2    1    2    0    0  0.76638234343E+01 -0.10232130512E+02 -0.41475204869E+02  0.47787270704E+02  0.19999998449E+02 0.  0.
        -12    1    1    2    0    0 -0.76638234343E+01  0.10232130512E+02  0.41475204869E+02  0.43400729296E+02  0.00000000000E+00 0.  1.
         11    1    3    3    0    0  0.66002885053E+01 -0.29869665691E+01 -0.38929187803E+02  0.39597568624E+02  0.51100000000E-03 0. -1.
        -11    1    3    3    0    0  0.38306881127E+00  0.10866876390E+00 -0.11071798857E+00  0.41329087641E+00  0.51100000000E-03 0.  1.
         12    1    3    3    0    0  0.68046611772E+00 -0.73538327067E+01 -0.24352990777E+01  0.77764112040E+01  0.00000000000E+00 0. -1.
</event>
<event>
 7    1  0.4675811E-010  0.4778727E+02  0.7816164E-02  0.1312668E+00
        -11   -1    0    0    0    0  0.00000000000E+00  0.00000000000E+00  0.45593999997E+02  0.45594000000E+02  0.51100000000E-03 0.  1.
         11   -1    0    0    0    0 -0.00000000000E+00 -0.00000000000E+00 -0.45593999997E+02  0.45594000000E+02  0.51100000000E-03 0. -1.
    9900012    2    1    2    0    0  0.48602387142E+01  0.20063241059E+02 -0.38176793507E+02  0.47787272764E+02  0.20000007840E+02 0.  0.
        -12    1    1    2    0    0 -0.48602387142E+01 -0.20063241059E+02  0.38176793507E+02  0.43400727236E+02  0.00000000000E+00 0.  1.
         11    1    3    3    0    0  0.18282465670E+01  0.13215578735E+02 -0.11978606760E+02  0.17929891996E+02  0.51100000000E-03 0. -1.
        -11    1    3    3    0    0  0.61374474679E+01  0.82466845249E+01 -0.15247245390E+02  0.18388979290E+02  0.51100000000E-03 0.  1.
         12    1    3    3    0    0 -0.31054553207E+01 -0.13990222006E+01 -0.10950941357E+02  0.11468401479E+02  0.00000000000E+00 0. -1.
</event>
<event>
 7    1  0.4675811E-010  0.4778727E+02  0.7816164E-02  0.1312668E+00
        -11   -1    0    0    0    0  0.00000000000E+00  0.00000000000E+00  0.45593999997E+02  0.45594000000E+02  0.51100000000E-03 0.  1.
         11   -1    0    0    0    0 -0.00000000000E+00 -0.00000000000E+00 -0.45593999997E+02  0.45594000000E+02  0.51100000000E-03 0. -1.
    9900012    2    1    2    0    0  0.74964199628E+01 -0.12533456466E+02 -0.40869786378E+02  0.47787270953E+02  0.19999999583E+02 0.  0.
        -12    1    1    2    0    0 -0.74964199628E+01  0.12533456466E+02  0.40869786378E+02  0.43400729047E+02  0.00000000000E+00 0.  1.
         11    1    3    3    0    0 -0.14872269077E+01 -0.16179694212E+01 -0.14982698650E+01  0.26597897985E+01  0.51100000000E-03 0. -1.
        -11    1    3    3    0    0  0.89895978106E+01 -0.15065541623E+02 -0.34672041602E+02  0.38857867701E+02  0.51100000000E-03 0.  1.
        -12    1    3    3    0    0 -0.59509400986E-02  0.41500545779E+01 -0.46994749108E+01  0.62696134531E+01  0.00000000000E+00 0.  1.
</event>
<event>
 7    1  0.4675811E-010  0.4778727E+02  0.7816164E-02  0.1312668E+00
        -11   -1    0    0    0    0  0.00000000000E+00  0.00000000000E+00  0.45593999997E+02  0.45594000000E+02  0.51100000000E-03 0.  1.
         11   -1    0    0    0    0 -0.00000000000E+00 -0.00000000000E+00 -0.45593999997E+02  0.45594000000E+02  0.51100000000E-03 0. -1.
    9900012    2    1    2    0    0  0.46365493480E+01  0.82660246593E+01 -0.42353262233E+02  0.47787267572E+02  0.19999984169E+02 0.  0.
        -12    1    1    2    0    0 -0.46365493480E+01 -0.82660246593E+01  0.42353262233E+02  0.43400732428E+02  0.00000000000E+00 0.  1.
         11    1    3    3    0    0  0.74580095870E+00  0.31419069994E+01 -0.11520788009E+02  0.11964796499E+02  0.51100000000E-03 0. -1.
        -11    1    3    3    0    0  0.80924083130E+01  0.22246053610E+01 -0.29320897595E+02  0.30498376634E+02  0.51100000000E-03 0.  1.
         12    1    3    3    0    0 -0.42016599237E+01  0.28995122988E+01 -0.15115766289E+01  0.53240944385E+01  0.00000000000E+00 0. -1.
</event>
<event>
 7    1  0.4675811E-010  0.4778727E+02  0.7816164E-02  0.1312668E+00
        -11   -1    0    0    0    0  0.00000000000E+00  0.00000000000E+00  0.45593999997E+02  0.45594000000E+02  0.51100000000E-03 0.  1.
         11   -1    0    0    0    0 -0.00000000000E+00 -0.00000000000E+00 -0.45593999997E+02  0.45594000000E+02  0.51100000000E-03 0. -1.
    9900012    2    1    2    0    0  0.29749561842E+02 -0.26116471412E+02 -0.17790927323E+02  0.47787267244E+02  0.19999982670E+02 0.  0.
        -12    1    1    2    0    0 -0.29749561842E+02  0.26116471412E+02  0.17790927323E+02  0.43400732756E+02  0.00000000000E+00 0.  1.
         11    1    3    3    0    0  0.75279902274E+01 -0.10827945125E+01 -0.64709968349E+01  0.99858340222E+01  0.51100000000E-03 0. -1.
        -11    1    3    3    0    0  0.57213614170E+01 -0.26819115875E+00 -0.44674162509E+01  0.72638633785E+01  0.51100000000E-03 0.  1.
         12    1    3    3    0    0  0.16500210198E+02 -0.24765485741E+02 -0.68525142367E+01  0.30537569843E+02  0.00000000000E+00 0. -1.
</event>
<event>
 7    1  0.4675811E-010  0.4778727E+02  0.7816164E-02  0.1312668E+00
        -11   -1    0    0    0    0  0.00000000000E+00  0.00000000000E+00  0.45593999997E+02  0.45594000000E+02  0.51100000000E-03 0.  1.
         11   -1    0    0    0    0 -0.00000000000E+00 -0.00000000000E+00 -0.45593999997E+02  0.45594000000E+02  0.51100000000E-03 0. -1.
    9900012    2    1    2    0    0  0.12917795957E+02  0.19652011378E+02 -0.36476736932E+02  0.47787270273E+02  0.19999996483E+02 0.  0.
        -12    1    1    2    0    0 -0.12917795957E+02 -0.19652011378E+02  0.36476736932E+02  0.43400729727E+02  0.00000000000E+00 0.  1.
         11    1    3    3    0    0  0.13036660257E+02  0.10173889475E+02 -0.15824253067E+02  0.22888196152E+02  0.51100000000E-03 0.  1.
        -11    1    3    3    0    0  0.43957954805E+01  0.56141348933E+01 -0.15389551807E+02  0.16961127132E+02  0.51100000000E-03 0. -1.
        -12    1    3    3    0    0 -0.45146597805E+01  0.38639870098E+01 -0.52629320581E+01  0.79379469886E+01  0.00000000000E+00 0.  1.
</event>
<event>
 7    1  0.4675811E-010  0.4778726E+02  0.7816164E-02  0.1312668E+00
        -11   -1    0    0    0    0  0.00000000000E+00  0.00000000000E+00  0.45593999997E+02  0.45594000000E+02  0.51100000000E-03 0. -1.
         11   -1    0    0    0    0 -0.00000000000E+00 -0.00000000000E+00 -0.45593999997E+02  0.45594000000E+02  0.51100000000E-03 0.  1.
    9900012    2    1    2    0    0 -0.24055383449E+02  0.33144665505E+02  0.14366419769E+02  0.47787258748E+02  0.19999943933E+02 0.  0.
        -12    1    1    2    0    0  0.24055383449E+02 -0.33144665505E+02 -0.14366419769E+02  0.43400741252E+02  0.00000000000E+00 0.  1.
         11    1    3    3    0    0 -0.41785564209E+01  0.78050288395E+01  0.10803786933E+02  0.13967842399E+02  0.51100000000E-03 0. -1.
        -11    1    3    3    0    0 -0.43901297324E+00  0.23780876196E+01 -0.21048429344E+01  0.32059939420E+01  0.51100000000E-03 0.  1.
         12    1    3    3    0    0 -0.19437814055E+02  0.22961549046E+02  0.56674757703E+01  0.30613422406E+02  0.00000000000E+00 0. -1.
</event>
<event>
 7    1  0.4675811E-010  0.4778727E+02  0.7816164E-02  0.1312668E+00
        -11   -1    0    0    0    0  0.00000000000E+00  0.00000000000E+00  0.45593999997E+02  0.45594000000E+02  0.51100000000E-03 0. -1.
         11   -1    0    0    0    0 -0.00000000000E+00 -0.00000000000E+00 -0.45593999997E+02  0.45594000000E+02  0.51100000000E-03 0.  1.
    9900012    2    1    2    0    0 -0.26344415770E+02  0.32489696489E+02 -0.11576478281E+02  0.47787268790E+02  0.19999989721E+02 0.  0.
        -12    1    1    2    0    0  0.26344415770E+02 -0.32489696489E+02  0.11576478281E+02  0.43400731210E+02  0.00000000000E+00 0.  1.
         11    1    3    3    0    0 -0.16665185986E+02  0.15249220095E+02 -0.10876697094E+02  0.25071291897E+02  0.51100000000E-03 0. -1.
        -11    1    3    3    0    0 -0.44172293788E+01  0.82755954858E+01 -0.59110896978E+01  0.11087758011E+02  0.51100000000E-03 0.  1.
        -12    1    3    3    0    0 -0.52620004047E+01  0.89648809083E+01  0.52113085116E+01  0.11628218882E+02  0.00000000000E+00 0.  1.
</event>
<event>
 7    1  0.4675811E-010  0.4778727E+02  0.7816164E-02  0.1312668E+00
        -11   -1    0    0    0    0  0.00000000000E+00  0.00000000000E+00  0.45593999997E+02  0.45594000000E+02  0.51100000000E-03 0. -1.
         11   -1    0    0    0    0 -0.00000000000E+00 -0.00000000000E+00 -0.45593999997E+02  0.45594000000E+02  0.51100000000E-03 0.  1.
    9900012    2    1    2    0    0  0.61853785181E+01 -0.25927892525E+02  0.34250675559E+02  0.47787270808E+02  0.19999998920E+02 0.  0.
        -12    1    1    2    0    0 -0.61853785181E+01  0.25927892525E+02 -0.34250675559E+02  0.43400729192E+02  0.00000000000E+00 0.  1.
         11    1    3    3    0    0  0.55664987082E+01 -0.89942759500E+01  0.25286108479E+02  0.27409308456E+02  0.51100000000E-03 0. -1.
        -11    1    3    3    0    0  0.28462897525E+01 -0.34316691937E+01  0.10906236682E+01  0.45898996783E+01  0.51100000000E-03 0.  1.
         12    1    3    3    0    0 -0.22274099426E+01 -0.13501947381E+02  0.78739434112E+01  0.15788062674E+02  0.00000000000E+00 0. -1.
</event>
<event>
 7    1  0.4675811E-010  0.4778727E+02  0.7816164E-02  0.1312668E+00
        -11   -1    0    0    0    0  0.00000000000E+00  0.00000000000E+00  0.45593999997E+02  0.45594000000E+02  0.51100000000E-03 0.  1.
         11   -1    0    0    0    0 -0.00000000000E+00 -0.00000000000E+00 -0.45593999997E+02  0.45594000000E+02  0.51100000000E-03 0. -1.
    9900012    2    1    2    0    0  0.88503449812E+01  0.42334420123E+02  0.36182289427E+01  0.47787270580E+02  0.19999997885E+02 0.  0.
        -12    1    1    2    0    0 -0.88503449812E+01 -0.42334420123E+02 -0.36182289427E+01  0.43400729420E+02  0.00000000000E+00 0.  1.
         11    1    3    3    0    0  0.54716919153E+01  0.23234700370E+02 -0.35038949400E+01  0.24126085338E+02  0.51100000000E-03 0. -1.
        -11    1    3    3    0    0  0.47001316100E+01  0.17450866150E+02  0.20773409114E+01  0.18191737466E+02  0.51100000000E-03 0.  1.
        -12    1    3    3    0    0 -0.13214785442E+01  0.16488536033E+01  0.50447829714E+01  0.54694477762E+01  0.00000000000E+00 0.  1.
</event>
<event>
 7    1  0.4675811E-010  0.4778725E+02  0.7816164E-02  0.1312668E+00
        -11   -1    0    0    0    0  0.00000000000E+00  0.00000000000E+00  0.45593999997E+02  0.45594000000E+02  0.51100000000E-03 0.  1.
         11   -1    0    0    0    0 -0.00000000000E+00 -0.00000000000E+00 -0.45593999997E+02  0.45594000000E+02  0.51100000000E-03 0. -1.
    9900012    2    1    2    0    0  0.24059742656E+01  0.43266507908E+02  0.24178169531E+01  0.47787248191E+02  0.19999895803E+02 0.  0.
        -12    1    1    2    0    0 -0.24059742656E+01 -0.43266507908E+02 -0.24178169531E+01  0.43400751809E+02  0.00000000000E+00 0.  1.
         11    1    3    3    0    0 -0.19906195037E+01  0.13217678646E+02 -0.54168248009E+01  0.14422606768E+02  0.51100000000E-03 0.  1.
        -11    1    3    3    0    0 -0.16818723165E+01  0.13628029900E+01 -0.14516425137E+01  0.26063754003E+01  0.51100000000E-03 0. -1.
        -12    1    3    3    0    0  0.60784660858E+01  0.28686026272E+02  0.92862842676E+01  0.30758266023E+02  0.00000000000E+00 0.  1.
</event>
<event>
 7    1  0.4675811E-010  0.4778727E+02  0.7816164E-02  0.1312668E+00
        -11   -1    0    0    0    0  0.00000000000E+00  0.00000000000E+00  0.45593999997E+02  0.45594000000E+02  0.51100000000E-03 0.  1.
         11   -1    0    0    0    0 -0.00000000000E+00 -0.00000000000E+00 -0.45593999997E+02  0.45594000000E+02  0.51100000000E-03 0. -1.
    9900012    2    1    2    0    0  0.77066660652E+01  0.14567911818E+01 -0.42686161867E+02  0.47787270083E+02  0.19999995615E+02 0.  0.
        -12    1    1    2    0    0 -0.77066660652E+01 -0.14567911818E+01  0.42686161867E+02  0.43400729917E+02  0.00000000000E+00 0.  1.
         11    1    3    3    0    0  0.33591611223E+00  0.39629122348E+01 -0.36644508349E+01  0.54079305837E+01  0.51100000000E-03 0.  1.
        -11    1    3    3    0    0 -0.17622544797E+01 -0.57902670995E+01 -0.91514882490E+01  0.10971894612E+02  0.51100000000E-03 0. -1.
         12    1    3    3    0    0  0.91330044327E+01  0.32841460465E+01 -0.29870222783E+02  0.31407444887E+02  0.00000000000E+00 0. -1.
</event>
<event>
 7    1  0.4675811E-010  0.4778727E+02  0.7816164E-02  0.1312668E+00
        -11   -1    0    0    0    0  0.00000000000E+00  0.00000000000E+00  0.45593999997E+02  0.45594000000E+02  0.51100000000E-03 0. -1.
         11   -1    0    0    0    0 -0.00000000000E+00 -0.00000000000E+00 -0.45593999997E+02  0.45594000000E+02  0.51100000000E-03 0.  1.
    9900012    2    1    2    0    0 -0.22520543333E+02 -0.96695824710E+01  0.35818255545E+02  0.47787272731E+02  0.20000007691E+02 0.  0.
        -12    1    1    2    0    0  0.22520543333E+02  0.96695824710E+01 -0.35818255545E+02  0.43400727269E+02  0.00000000000E+00 0.  1.
         11    1    3    3    0    0 -0.65814125648E+01 -0.46545559119E+01  0.17374625625E+02  0.19153524426E+02  0.51100000000E-03 0. -1.
        -11    1    3    3    0    0 -0.18061666817E+02 -0.55432713495E+01  0.18504567897E+02  0.26445617762E+02  0.51100000000E-03 0.  1.
        -12    1    3    3    0    0  0.21225360487E+01  0.52824479042E+00 -0.60937977414E-01  0.21881305431E+01  0.00000000000E+00 0.  1.
</event>
<event>
 7    1  0.4675811E-010  0.4778727E+02  0.7816164E-02  0.1312668E+00
        -11   -1    0    0    0    0  0.00000000000E+00  0.00000000000E+00  0.45593999997E+02  0.45594000000E+02  0.51100000000E-03 0. -1.
         11   -1    0    0    0    0 -0.00000000000E+00 -0.00000000000E+00 -0.45593999997E+02  0.45594000000E+02  0.51100000000E-03 0.  1.
    9900012    2    1    2    0    0  0.12680600733E+01 -0.43063622531E+02  0.52478777787E+01  0.47787265178E+02  0.19999973254E+02 0.  0.
        -12    1    1    2    0    0 -0.12680600733E+01  0.43063622531E+02 -0.52478777787E+01  0.43400734822E+02  0.00000000000E+00 0.  1.
         11    1    3    3    0    0  0.23450918651E+01 -0.18172963849E+02 -0.14548221899E-01  0.18323653643E+02  0.51100000000E-03 0. -1.
        -11    1    3    3    0    0  0.64232222528E+01 -0.83200845566E+01  0.39452095718E+01  0.11227032999E+02  0.51100000000E-03 0.  1.
        -12    1    3    3    0    0 -0.75002540445E+01 -0.16570574125E+02  0.13172164288E+01  0.18236578536E+02  0.00000000000E+00 0.  1.
</event>
<event>
 7    1  0.4675811E-010  0.4778727E+02  0.7816164E-02  0.1312668E+00
        -11   -1    0    0    0    0  0.00000000000E+00  0.00000000000E+00  0.45593999997E+02  0.45594000000E+02  0.51100000000E-03 0.  1.
         11   -1    0    0    0    0 -0.00000000000E+00 -0.00000000000E+00 -0.45593999997E+02  0.45594000000E+02  0.51100000000E-03 0. -1.
    9900012    2    1    2    0    0  0.31623067796E+01  0.18075542081E+02 -0.39330620772E+02  0.47787272633E+02  0.20000007243E+02 0.  0.
        -12    1    1    2    0    0 -0.31623067796E+01 -0.18075542081E+02  0.39330620772E+02  0.43400727367E+02  0.00000000000E+00 0.  1.
         11    1    3    3    0    0  0.21001641604E+01  0.10048966384E+02 -0.30308478164E+02  0.31999941621E+02  0.51100000000E-03 0. -1.
        -11    1    3    3    0    0 -0.20636180555E+01  0.49603580444E+01 -0.99534163176E+01  0.11310798737E+02  0.51100000000E-03 0.  1.
        -12    1    3    3    0    0  0.31257606747E+01  0.30662176526E+01  0.93127370960E+00  0.44765322752E+01  0.00000000000E+00 0.  1.
</event>
<event>
 7    1  0.4675811E-010  0.4778727E+02  0.7816164E-02  0.1312668E+00
        -11   -1    0    0    0    0  0.00000000000E+00  0.00000000000E+00  0.45593999997E+02  0.45594000000E+02  0.51100000000E-03 0.  1.
         11   -1    0    0    0    0 -0.00000000000E+00 -0.00000000000E+00 -0.45593999997E+02  0.45594000000E+02  0.51100000000E-03 0. -1.
    9900012    2    1    2    0    0 -0.14659291624E+02  0.25736192463E+02 -0.31723444162E+02  0.47787270249E+02  0.19999996374E+02 0.  0.
        -12    1    1    2    0    0  0.14659291624E+02 -0.25736192463E+02  0.31723444162E+02  0.43400729751E+02  0.00000000000E+00 0.  1.
         11    1    3    3    0    0 -0.58064187193E+01  0.97271100222E+01 -0.10423148821E+02  0.15393933848E+02  0.51100000000E-03 0. -1.
        -11    1    3    3    0    0 -0.94937122595E+01  0.11855640162E+01 -0.84638906454E+01  0.12773941429E+02  0.51100000000E-03 0.  1.
        -12    1    3    3    0    0  0.64083935480E+00  0.14823518424E+02 -0.12836404696E+02  0.19619394972E+02  0.00000000000E+00 0.  1.
</event>
<event>
 7    1  0.4675811E-010  0.4778727E+02  0.7816164E-02  0.1312668E+00
        -11   -1    0    0    0    0  0.00000000000E+00  0.00000000000E+00  0.45593999997E+02  0.45594000000E+02  0.51100000000E-03 0. -1.
         11   -1    0    0    0    0 -0.00000000000E+00 -0.00000000000E+00 -0.45593999997E+02  0.45594000000E+02  0.51100000000E-03 0.  1.
    9900012    2    1    2    0    0 -0.15085326207E+02 -0.11135005061E+02  0.39141638575E+02  0.47787271034E+02  0.19999999951E+02 0.  0.
        -12    1    1    2    0    0  0.15085326207E+02  0.11135005061E+02 -0.39141638575E+02  0.43400728966E+02  0.00000000000E+00 0.  1.
         11    1    3    3    0    0 -0.86657522012E+01  0.96660135053E+00  0.28163788100E+02  0.29482682031E+02  0.51100000000E-03 0. -1.
        -11    1    3    3    0    0 -0.37923451702E+01 -0.73848632226E+01  0.96789354684E+01  0.12751465750E+02  0.51100000000E-03 0.  1.
        -12    1    3    3    0    0 -0.26272288353E+01 -0.47167431888E+01  0.12989150068E+01  0.55531232525E+01  0.00000000000E+00 0.  1.
</event>
<event>
 7    1  0.4675811E-010  0.4778729E+02  0.7816164E-02  0.1312668E+00
        -11   -1    0    0    0    0  0.00000000000E+00  0.00000000000E+00  0.45593999997E+02  0.45594000000E+02  0.51100000000E-03 0.  1.
         11   -1    0    0    0    0 -0.00000000000E+00 -0.00000000000E+00 -0.45593999997E+02  0.45594000000E+02  0.51100000000E-03 0. -1.
    9900012    2    1    2    0    0  0.25344936361E+02 -0.24980993363E+02 -0.24843634911E+02  0.47787285442E+02  0.20000065642E+02 0.  0.
        -12    1    1    2    0    0 -0.25344936361E+02  0.24980993363E+02  0.24843634911E+02  0.43400714558E+02  0.00000000000E+00 0.  1.
         11    1    3    3    0    0  0.12560063511E+02 -0.12270776141E+02 -0.81385390381E+01  0.19353629128E+02  0.51100000000E-03 0. -1.
        -11    1    3    3    0    0  0.14517612116E+02 -0.68094403523E+01 -0.15216998444E+02  0.22106256612E+02  0.51100000000E-03 0.  1.
         12    1    3    3    0    0 -0.17327392654E+01 -0.59007768697E+01 -0.14880974289E+01  0.63273997018E+01  0.00000000000E+00 0. -1.
</event>
<event>
 7    1  0.4675811E-010  0.4778727E+02  0.7816164E-02  0.1312668E+00
        -11   -1    0    0    0    0  0.00000000000E+00  0.00000000000E+00  0.45593999997E+02  0.45594000000E+02  0.51100000000E-03 0. -1.
         11   -1    0    0    0    0 -0.00000000000E+00 -0.00000000000E+00 -0.45593999997E+02  0.45594000000E+02  0.51100000000E-03 0.  1.
    9900012    2    1    2    0    0  0.88670468857E+01 -0.71197682855E+01  0.41884456073E+02  0.47787270957E+02  0.19999999603E+02 0.  0.
        -12    1    1    2    0    0 -0.88670468857E+01  0.71197682855E+01 -0.41884456073E+02  0.43400729043E+02  0.00000000000E+00 0.  1.
         11    1    3    3    0    0  0.52549313347E+01 -0.47722885255E+01  0.27558264571E+02  0.28457810660E+02  0.51100000000E-03 0.  1.
        -11    1    3    3    0    0 -0.11618896882E+01 -0.13574400667E+01  0.14342981438E+02  0.14453848898E+02  0.51100000000E-03 0. -1.
        -12    1    3    3    0    0  0.47740052391E+01 -0.99003969336E+00 -0.16789936154E-01  0.48756113996E+01  0.00000000000E+00 0.  1.
</event>
<event>
 7    1  0.4675811E-010  0.4778727E+02  0.7816164E-02  0.1312668E+00
        -11   -1    0    0    0    0  0.00000000000E+00  0.00000000000E+00  0.45593999997E+02  0.45594000000E+02  0.51100000000E-03 0.  1.
         11   -1    0    0    0    0 -0.00000000000E+00 -0.00000000000E+00 -0.45593999997E+02  0.45594000000E+02  0.51100000000E-03 0. -1.
    9900012    2    1    2    0    0  0.30054439413E+02  0.26705686509E+01 -0.31196506578E+02  0.47787270881E+02  0.19999999257E+02 0.  0.
        -12    1    1    2    0    0 -0.30054439413E+02 -0.26705686509E+01  0.31196506578E+02  0.43400729119E+02  0.00000000000E+00 0.  1.
         11    1    3    3    0    0  0.68990561413E+01  0.23726944161E+00 -0.28522251043E+01  0.74691673388E+01  0.51100000000E-03 0. -1.
        -11    1    3    3    0    0  0.99302910699E+01  0.88529335993E+01 -0.91742906035E+01  0.16160220369E+02  0.51100000000E-03 0.  1.
         12    1    3    3    0    0  0.13225092202E+02 -0.64196343901E+01 -0.19169990870E+02  0.24157883173E+02  0.00000000000E+00 0. -1.
</event>
<event>
 7    1  0.4675811E-010  0.4778728E+02  0.7816164E-02  0.1312668E+00
        -11   -1    0    0    0    0  0.00000000000E+00  0.00000000000E+00  0.45593999997E+02  0.45594000000E+02  0.51100000000E-03 0. -1.
         11   -1    0    0    0    0 -0.00000000000E+00 -0.00000000000E+00 -0.45593999997E+02  0.45594000000E+02  0.51100000000E-03 0.  1.
    9900012    2    1    2    0    0 -0.21339687052E+02 -0.12811066431E+01  0.37770346454E+02  0.47787279396E+02  0.20000038079E+02 0.  0.
        -12    1    1    2    0    0  0.21339687052E+02  0.12811066431E+01 -0.37770346454E+02  0.43400720604E+02  0.00000000000E+00 0.  1.
         11    1    3    3    0    0 -0.36960573960E+01  0.34227803711E+01  0.13331208107E+02  0.14251223652E+02  0.51100000000E-03 0. -1.
        -11    1    3    3    0    0 -0.16560533463E+02  0.98273264186E+00  0.21142970110E+02  0.26874564505E+02  0.51100000000E-03 0.  1.
        -12    1    3    3    0    0 -0.10830961928E+01 -0.56866196561E+01  0.32961682371E+01  0.66614912387E+01  0.00000000000E+00 0.  1.
</event>
<event>
 7    1  0.4675811E-010  0.4778727E+02  0.7816164E-02  0.1312668E+00
        -11   -1    0    0    0    0  0.00000000000E+00  0.00000000000E+00  0.45593999997E+02  0.45594000000E+02  0.51100000000E-03 0. -1.
         11   -1    0    0    0    0 -0.00000000000E+00 -0.00000000000E+00 -0.45593999997E+02  0.45594000000E+02  0.51100000000E-03 0.  1.
    9900012    2    1    2    0    0 -0.43090248734E+02  0.25729144804E+01  0.44982458020E+01  0.47787266824E+02  0.19999980758E+02 0.  0.
        -12    1    1    2    0    0  0.43090248734E+02 -0.25729144804E+01 -0.44982458020E+01  0.43400733176E+02  0.00000000000E+00 0.  1.
         11    1    3    3    0    0 -0.11567391146E+02  0.58730416667E+01 -0.49544582519E+00  0.12982396666E+02  0.51100000000E-03 0. -1.
        -11    1    3    3    0    0 -0.14686733893E+02 -0.11447641794E+00 -0.43108043338E+01  0.15306740070E+02  0.51100000000E-03 0.  1.
        -12    1    3    3    0    0 -0.16836123695E+02 -0.31856507684E+01  0.93044959610E+01  0.19498130089E+02  0.00000000000E+00 0.  1.
</event>
<event>
 7    1  0.4675811E-010  0.4778727E+02  0.7816164E-02  0.1312668E+00
        -11   -1    0    0    0    0  0.00000000000E+00  0.00000000000E+00  0.45593999997E+02  0.45594000000E+02  0.51100000000E-03 0.  1.
         11   -1    0    0    0    0 -0.00000000000E+00 -0.00000000000E+00 -0.45593999997E+02  0.45594000000E+02  0.51100000000E-03 0. -1.
    9900012    2    1    2    0    0 -0.93955830213E+01  0.83146055360E+01 -0.41547726864E+02  0.47787271284E+02  0.20000001092E+02 0.  0.
        -12    1    1    2    0    0  0.93955830213E+01 -0.83146055360E+01  0.41547726864E+02  0.43400728716E+02  0.00000000000E+00 0.  1.
         11    1    3    3    0    0 -0.28751894031E+01  0.83964641877E+01 -0.57508605795E+01  0.10575430139E+02  0.51100000000E-03 0. -1.
        -11    1    3    3    0    0 -0.36870767138E+01 -0.12140751996E+01 -0.53362558167E+01  0.65987983516E+01  0.51100000000E-03 0.  1.
         12    1    3    3    0    0 -0.28333169044E+01  0.11322165478E+01 -0.30460610468E+02  0.30613042793E+02  0.00000000000E+00 0. -1.
</event>
<event>
 7    1  0.4675811E-010  0.4778726E+02  0.7816164E-02  0.1312668E+00
        -11   -1    0    0    0    0  0.00000000000E+00  0.00000000000E+00  0.45593999997E+02  0.45594000000E+02  0.51100000000E-03 0.  1.
         11   -1    0    0    0    0 -0.00000000000E+00 -0.00000000000E+00 -0.45593999997E+02  0.45594000000E+02  0.51100000000E-03 0. -1.
    9900012    2    1    2    0    0 -0.37320062184E+01  0.23478852442E+02 -0.36310328778E+02  0.47787258550E+02  0.19999943033E+02 0.  0.
        -12    1    1    2    0    0  0.37320062184E+01 -0.23478852442E+02  0.36310328778E+02  0.43400741450E+02  0.00000000000E+00 0.  1.
         11    1    3    3    0    0  0.16612361938E+01  0.73443067505E+01 -0.30680549844E+01  0.81308984120E+01  0.51100000000E-03 0. -1.
        -11    1    3    3    0    0 -0.16622498752E+01  0.14587962570E+02 -0.15066951560E+02  0.21037698452E+02  0.51100000000E-03 0.  1.
         12    1    3    3    0    0 -0.37309925369E+01  0.15465831218E+01 -0.18175322234E+02  0.18618661686E+02  0.00000000000E+00 0. -1.
</event>
<event>
 7    1  0.4675811E-010  0.4778727E+02  0.7816164E-02  0.1312668E+00
        -11   -1    0    0    0    0  0.00000000000E+00  0.00000000000E+00  0.45593999997E+02  0.45594000000E+02  0.51100000000E-03 0.  1.
         11   -1    0    0    0    0 -0.00000000000E+00 -0.00000000000E+00 -0.45593999997E+02  0.45594000000E+02  0.51100000000E-03 0. -1.
    9900012    2    1    2    0    0  0.34821056689E+02  0.77083773576E+01 -0.24732531352E+02  0.47787272154E+02  0.20000005061E+02 0.  0.
        -12    1    1    2    0    0 -0.34821056689E+02 -0.77083773576E+01  0.24732531352E+02  0.43400727846E+02  0.00000000000E+00 0.  1.
         11    1    3    3    0    0  0.79027855579E+01  0.67851904250E+00 -0.59455133144E+01  0.99127966033E+01  0.51100000000E-03 0. -1.
        -11    1    3    3    0    0  0.10191488045E+02  0.23959619955E+01  0.21404712991E+01  0.10685910354E+02  0.51100000000E-03 0.  1.
        -12    1    3    3    0    0  0.16726783086E+02  0.46338963197E+01 -0.20927489337E+02  0.27188565197E+02  0.00000000000E+00 0.  1.
</event>
<event>
 7    1  0.4675811E-010  0.4778727E+02  0.7816164E-02  0.1312668E+00
        -11   -1    0    0    0    0  0.00000000000E+00  0.00000000000E+00  0.45593999997E+02  0.45594000000E+02  0.51100000000E-03 0. -1.
         11   -1    0    0    0    0 -0.00000000000E+00 -0.00000000000E+00 -0.45593999997E+02  0.45594000000E+02  0.51100000000E-03 0.  1.
    9900012    2    1    2    0    0  0.15206209573E+02  0.17107433564E+02  0.36874519819E+02  0.47787270691E+02  0.19999998388E+02 0.  0.
        -12    1    1    2    0    0 -0.15206209573E+02 -0.17107433564E+02 -0.36874519819E+02  0.43400729309E+02  0.00000000000E+00 0.  1.
         11    1    3    3    0    0  0.44809061021E+01  0.32698005728E+01  0.11492937813E+02  0.12761572595E+02  0.51100000000E-03 0. -1.
        -11    1    3    3    0    0  0.60252120714E+01  0.17079919065E+02  0.21546247532E+02  0.28147248511E+02  0.51100000000E-03 0.  1.
        -12    1    3    3    0    0  0.47000913993E+01 -0.32422860748E+01  0.38353344744E+01  0.68784495843E+01  0.00000000000E+00 0.  1.
</event>
<event>
 7    1  0.4675811E-010  0.4778727E+02  0.7816164E-02  0.1312668E+00
        -11   -1    0    0    0    0  0.00000000000E+00  0.00000000000E+00  0.45593999997E+02  0.45594000000E+02  0.51100000000E-03 0.  1.
         11   -1    0    0    0    0 -0.00000000000E+00 -0.00000000000E+00 -0.45593999997E+02  0.45594000000E+02  0.51100000000E-03 0. -1.
    9900012    2    1    2    0    0 -0.24137037698E+02 -0.32664511063E+02  0.15298907368E+02  0.47787269149E+02  0.19999991356E+02 0.  0.
        -12    1    1    2    0    0  0.24137037698E+02  0.32664511063E+02 -0.15298907368E+02  0.43400730851E+02  0.00000000000E+00 0.  1.
         11    1    3    3    0    0 -0.65462822533E+01 -0.11416579438E+02  0.10891510062E+02  0.17082654627E+02  0.51100000000E-03 0. -1.
        -11    1    3    3    0    0 -0.57472356830E+00 -0.91743221875E+01  0.34499942589E+01  0.98183988220E+01  0.51100000000E-03 0.  1.
        -12    1    3    3    0    0 -0.17016031877E+02 -0.12073609437E+02  0.95740304662E+00  0.20886215700E+02  0.00000000000E+00 0.  1.
</event>
<event>
 7    1  0.4675811E-010  0.4778727E+02  0.7816164E-02  0.1312668E+00
        -11   -1    0    0    0    0  0.00000000000E+00  0.00000000000E+00  0.45593999997E+02  0.45594000000E+02  0.51100000000E-03 0.  1.
         11   -1    0    0    0    0 -0.00000000000E+00 -0.00000000000E+00 -0.45593999997E+02  0.45594000000E+02  0.51100000000E-03 0. -1.
    9900012    2    1    2    0    0  0.34118809283E+02  0.75979958503E+01 -0.25725485094E+02  0.47787271076E+02  0.20000000143E+02 0.  0.
        -12    1    1    2    0    0 -0.34118809283E+02 -0.75979958503E+01  0.25725485094E+02  0.43400728924E+02  0.00000000000E+00 0.  1.
         11    1    3    3    0    0  0.14053060629E+01  0.30834421089E+01 -0.25706016025E+00  0.33983202552E+01  0.51100000000E-03 0.  1.
        -11    1    3    3    0    0  0.51831511961E+01 -0.45242313558E+01 -0.80127259413E+01  0.10561131708E+02  0.51100000000E-03 0. -1.
         12    1    3    3    0    0  0.27530352024E+02  0.90387850971E+01 -0.17455698992E+02  0.33827819113E+02  0.00000000000E+00 0. -1.
</event>
<event>
 7    1  0.4675811E-010  0.4778727E+02  0.7816164E-02  0.1312668E+00
        -11   -1    0    0    0    0  0.00000000000E+00  0.00000000000E+00  0.45593999997E+02  0.45594000000E+02  0.51100000000E-03 0.  1.
         11   -1    0    0    0    0 -0.00000000000E+00 -0.00000000000E+00 -0.45593999997E+02  0.45594000000E+02  0.51100000000E-03 0. -1.
    9900012    2    1    2    0    0 -0.42044120810E+02 -0.52676241999E+01 -0.93897425571E+01  0.47787271611E+02  0.20000002582E+02 0.  0.
        -12    1    1    2    0    0  0.42044120810E+02  0.52676241999E+01  0.93897425571E+01  0.43400728389E+02  0.00000000000E+00 0.  1.
         11    1    3    3    0    0 -0.12774291386E+02 -0.43525822191E+01 -0.62684038732E+01  0.14880200932E+02  0.51100000000E-03 0. -1.
        -11    1    3    3    0    0 -0.13946721567E+02 -0.76140086919E+01  0.27405850252E-01  0.15889774138E+02  0.51100000000E-03 0.  1.
        -12    1    3    3    0    0 -0.15323107857E+02  0.66989667111E+01 -0.31487445341E+01  0.17017296540E+02  0.00000000000E+00 0.  1.
</event>
<event>
 7    1  0.4675811E-010  0.4778727E+02  0.7816164E-02  0.1312668E+00
        -11   -1    0    0    0    0  0.00000000000E+00  0.00000000000E+00  0.45593999997E+02  0.45594000000E+02  0.51100000000E-03 0.  1.
         11   -1    0    0    0    0 -0.00000000000E+00 -0.00000000000E+00 -0.45593999997E+02  0.45594000000E+02  0.51100000000E-03 0. -1.
    9900012    2    1    2    0    0  0.51737857441E+01  0.23679137772E+02 -0.36002133523E+02  0.47787271403E+02  0.20000001636E+02 0.  0.
        -12    1    1    2    0    0 -0.51737857441E+01 -0.23679137772E+02  0.36002133523E+02  0.43400728597E+02  0.00000000000E+00 0.  1.
         11    1    3    3    0    0  0.58102068902E+01  0.14405774758E+02 -0.21832023948E+02  0.26794068755E+02  0.51100000000E-03 0. -1.
        -11    1    3    3    0    0  0.83405680016E+00  0.12169998113E+02 -0.11801014847E+02  0.16972579547E+02  0.51100000000E-03 0.  1.
        -12    1    3    3    0    0 -0.14704779463E+01 -0.28966350998E+01 -0.23690947281E+01  0.40206231013E+01  0.00000000000E+00 0.  1.
</event>
<event>
 7    1  0.4675811E-010  0.4778727E+02  0.7816164E-02  0.1312668E+00
        -11   -1    0    0    0    0  0.00000000000E+00  0.00000000000E+00  0.45593999997E+02  0.45594000000E+02  0.51100000000E-03 0. -1.
         11   -1    0    0    0    0 -0.00000000000E+00 -0.00000000000E+00 -0.45593999997E+02  0.45594000000E+02  0.51100000000E-03 0.  1.
    9900012    2    1    2    0    0  0.19374912386E+02  0.38424573868E+02  0.56380968754E+01  0.47787271397E+02  0.20000001606E+02 0.  0.
        -12    1    1    2    0    0 -0.19374912386E+02 -0.38424573868E+02 -0.56380968754E+01  0.43400728603E+02  0.00000000000E+00 0.  1.
         11    1    3    3    0    0  0.15381611104E+02  0.20311198131E+02  0.32541187434E+01  0.25685171183E+02  0.51100000000E-03 0. -1.
        -11    1    3    3    0    0  0.14448328075E+01  0.17988387530E+02 -0.74865316114E+00  0.18061841257E+02  0.51100000000E-03 0.  1.
        -12    1    3    3    0    0  0.25484684744E+01  0.12498820790E+00  0.31326312932E+01  0.40402589566E+01  0.00000000000E+00 0.  1.
</event>
<event>
 7    1  0.4675811E-010  0.4778727E+02  0.7816164E-02  0.1312668E+00
        -11   -1    0    0    0    0  0.00000000000E+00  0.00000000000E+00  0.45593999997E+02  0.45594000000E+02  0.51100000000E-03 0.  1.
         11   -1    0    0    0    0 -0.00000000000E+00 -0.00000000000E+00 -0.45593999997E+02  0.45594000000E+02  0.51100000000E-03 0. -1.
    9900012    2    1    2    0    0 -0.41978557651E+02 -0.96269722231E+01  0.53614708968E+01  0.47787271126E+02  0.20000000371E+02 0.  0.
        -12    1    1    2    0    0  0.41978557651E+02  0.96269722231E+01 -0.53614708968E+01  0.43400728874E+02  0.00000000000E+00 0.  1.
         11    1    3    3    0    0 -0.78253998357E+01 -0.60201029519E+01  0.64370728653E+01  0.11786196565E+02  0.51100000000E-03 0. -1.
        -11    1    3    3    0    0 -0.28452182970E+02 -0.68599538024E+01  0.41375314328E+00  0.29270409527E+02  0.51100000000E-03 0.  1.
        -12    1    3    3    0    0 -0.57009748450E+01  0.32530845312E+01 -0.14893551118E+01  0.67306650340E+01  0.00000000000E+00 0.  1.
</event>
<event>
 7    1  0.4675811E-010  0.4778727E+02  0.7816164E-02  0.1312668E+00
        -11   -1    0    0    0    0  0.00000000000E+00  0.00000000000E+00  0.45593999997E+02  0.45594000000E+02  0.51100000000E-03 0.  1.
         11   -1    0    0    0    0 -0.00000000000E+00 -0.00000000000E+00 -0.45593999997E+02  0.45594000000E+02  0.51100000000E-03 0. -1.
    9900012    2    1    2    0    0 -0.11391184913E+02 -0.10660702310E+02 -0.40499550404E+02  0.47787271315E+02  0.20000001233E+02 0.  0.
        -12    1    1    2    0    0  0.11391184913E+02  0.10660702310E+02  0.40499550404E+02  0.43400728685E+02  0.00000000000E+00 0.  1.
         11    1    3    3    0    0 -0.88116819287E+01 -0.41893839768E+01 -0.66009553643E+01  0.11780037712E+02  0.51100000000E-03 0. -1.
        -11    1    3    3    0    0 -0.47530590940E+01  0.39151781817E+00 -0.16574031729E+02  0.17246547045E+02  0.51100000000E-03 0.  1.
        -12    1    3    3    0    0  0.21735561098E+01 -0.68628361517E+01 -0.17324563311E+02  0.18760686558E+02  0.00000000000E+00 0.  1.
</event>
<event>
 7    1  0.4675811E-010  0.4778727E+02  0.7816164E-02  0.1312668E+00
        -11   -1    0    0    0    0  0.00000000000E+00  0.00000000000E+00  0.45593999997E+02  0.45594000000E+02  0.51100000000E-03 0. -1.
         11   -1    0    0    0    0 -0.00000000000E+00 -0.00000000000E+00 -0.45593999997E+02  0.45594000000E+02  0.51100000000E-03 0.  1.
    9900012    2    1    2    0    0 -0.14985534508E+02  0.15683451530E+02  0.37591045936E+02  0.47787266931E+02  0.19999981245E+02 0.  0.
        -12    1    1    2    0    0  0.14985534508E+02 -0.15683451530E+02 -0.37591045936E+02  0.43400733069E+02  0.00000000000E+00 0.  1.
         11    1    3    3    0    0 -0.12727997599E+02  0.90469689761E+01  0.20037555553E+02  0.25403802930E+02  0.51100000000E-03 0. -1.
        -11    1    3    3    0    0 -0.23118726120E+01  0.79913052037E+00  0.16209655381E+02  0.16393178228E+02  0.51100000000E-03 0.  1.
        -12    1    3    3    0    0  0.54335702614E-01  0.58373520331E+01  0.13438350017E+01  0.59902857727E+01  0.00000000000E+00 0.  1.
</event>
<event>
 7    1  0.4675811E-010  0.4778727E+02  0.7816164E-02  0.1312668E+00
        -11   -1    0    0    0    0  0.00000000000E+00  0.00000000000E+00  0.45593999997E+02  0.45594000000E+02  0.51100000000E-03 0. -1.
         11   -1    0    0    0    0 -0.00000000000E+00 -0.00000000000E+00 -0.45593999997E+02  0.45594000000E+02  0.51100000000E-03 0.  1.
    9900012    2    1    2    0    0 -0.22472706112E+02 -0.23693835110E+02  0.28586763339E+02  0.47787269816E+02  0.19999994401E+02 0.  0.
        -12    1    1    2    0    0  0.22472706112E+02  0.23693835110E+02 -0.28586763339E+02  0.43400730184E+02  0.00000000000E+00 0.  1.
         11    1    3    3    0    0  0.24427802455E+00 -0.92708007601E+00 -0.77870684776E+00  0.12351250287E+01  0.51100000000E-03 0. -1.
        -11    1    3    3    0    0 -0.77068435448E+01  0.12425315848E+01  0.63109801558E+01  0.10038316241E+02  0.51100000000E-03 0.  1.
         12    1    3    3    0    0 -0.15010140592E+02 -0.24009286619E+02  0.23054490032E+02  0.36513828547E+02  0.00000000000E+00 0. -1.
</event>
<event>
 7    1  0.4675811E-010  0.4778727E+02  0.7816164E-02  0.1312668E+00
        -11   -1    0    0    0    0  0.00000000000E+00  0.00000000000E+00  0.45593999997E+02  0.45594000000E+02  0.51100000000E-03 0.  1.
         11   -1    0    0    0    0 -0.00000000000E+00 -0.00000000000E+00 -0.45593999997E+02  0.45594000000E+02  0.51100000000E-03 0. -1.
    9900012    2    1    2    0    0  0.22748365066E+02  0.20985424031E+02 -0.30426089788E+02  0.47787273338E+02  0.20000010459E+02 0.  0.
        -12    1    1    2    0    0 -0.22748365066E+02 -0.20985424031E+02  0.30426089788E+02  0.43400726662E+02  0.00000000000E+00 0.  1.
         11    1    3    3    0    0  0.10820114188E+02  0.18935560643E+02 -0.22565402987E+02  0.31381965206E+02  0.51100000000E-03 0. -1.
        -11    1    3    3    0    0  0.21406847058E+01 -0.27346731315E+00 -0.57295495715E+01  0.61225038942E+01  0.51100000000E-03 0.  1.
        -12    1    3    3    0    0  0.97875661721E+01  0.23233307005E+01 -0.21311372299E+01  0.10282804239E+02  0.00000000000E+00 0.  1.
</event>
<event>
 7    1  0.4675811E-010  0.4778727E+02  0.7816164E-02  0.1312668E+00
        -11   -1    0    0    0    0  0.00000000000E+00  0.00000000000E+00  0.45593999997E+02  0.45594000000E+02  0.51100000000E-03 0.  1.
         11   -1    0    0    0    0 -0.00000000000E+00 -0.00000000000E+00 -0.45593999997E+02  0.45594000000E+02  0.51100000000E-03 0. -1.
    9900012    2    1    2    0    0  0.18873906679E+02 -0.62643797606E+01 -0.38576630166E+02  0.47787271872E+02  0.20000003771E+02 0.  0.
        -12    1    1    2    0    0 -0.18873906679E+02  0.62643797606E+01  0.38576630166E+02  0.43400728128E+02  0.00000000000E+00 0.  1.
         11    1    3    3    0    0  0.20833023703E+01 -0.43752195167E+01 -0.49318590496E+00  0.48709267274E+01  0.51100000000E-03 0. -1.
        -11    1    3    3    0    0  0.19392433882E+01 -0.36424343354E+01 -0.42421129551E+01  0.59180668627E+01  0.51100000000E-03 0.  1.
         12    1    3    3    0    0  0.14851360920E+02  0.17532740916E+01 -0.33841331306E+02  0.36998278281E+02  0.00000000000E+00 0. -1.
</event>
<event>
 7    1  0.4675811E-010  0.4778727E+02  0.7816164E-02  0.1312668E+00
        -11   -1    0    0    0    0  0.00000000000E+00  0.00000000000E+00  0.45593999997E+02  0.45594000000E+02  0.51100000000E-03 0.  1.
         11   -1    0    0    0    0 -0.00000000000E+00 -0.00000000000E+00 -0.45593999997E+02  0.45594000000E+02  0.51100000000E-03 0. -1.
    9900012    2    1    2    0    0  0.16935909569E+02  0.11952689879E+02 -0.38130451562E+02  0.47787272304E+02  0.20000005741E+02 0.  0.
        -12    1    1    2    0    0 -0.16935909569E+02 -0.11952689879E+02  0.38130451562E+02  0.43400727696E+02  0.00000000000E+00 0.  1.
         11    1    3    3    0    0  0.10323315906E+02  0.75884222077E+01 -0.22535232927E+02  0.25922803209E+02  0.51100000000E-03 0. -1.
        -11    1    3    3    0    0  0.61931954457E+01  0.79449355190E+01 -0.62672549485E+01  0.11864069921E+02  0.51100000000E-03 0.  1.
         12    1    3    3    0    0  0.41939821637E+00 -0.35806678474E+01 -0.93279636865E+01  0.10000399174E+02  0.00000000000E+00 0. -1.
</event>
<event>
 7    1  0.4675811E-010  0.4778727E+02  0.7816164E-02  0.1312668E+00
        -11   -1    0    0    0    0  0.00000000000E+00  0.00000000000E+00  0.45593999997E+02  0.45594000000E+02  0.51100000000E-03 0. -1.
         11   -1    0    0    0    0 -0.00000000000E+00 -0.00000000000E+00 -0.45593999997E+02  0.45594000000E+02  0.51100000000E-03 0.  1.
    9900012    2    1    2    0    0  0.10270609170E+02 -0.33154208697E+02  0.26056399772E+02  0.47787274935E+02  0.20000017741E+02 0.  0.
        -12    1    1    2    0    0 -0.10270609170E+02  0.33154208697E+02 -0.26056399772E+02  0.43400725065E+02  0.00000000000E+00 0.  1.
         11    1    3    3    0    0 -0.41664508003E+01 -0.75586818566E+01  0.85303791009E+01  0.12135087620E+02  0.51100000000E-03 0. -1.
        -11    1    3    3    0    0  0.13542868750E+01 -0.52886486002E+01  0.80003759452E+01  0.96855517387E+01  0.51100000000E-03 0.  1.
        -12    1    3    3    0    0  0.13082773095E+02 -0.20306878240E+02  0.95256447257E+01  0.25966635577E+02  0.00000000000E+00 0.  1.
</event>
<event>
 7    1  0.4675811E-010  0.4778727E+02  0.7816164E-02  0.1312668E+00
        -11   -1    0    0    0    0  0.00000000000E+00  0.00000000000E+00  0.45593999997E+02  0.45594000000E+02  0.51100000000E-03 0.  1.
         11   -1    0    0    0    0 -0.00000000000E+00 -0.00000000000E+00 -0.45593999997E+02  0.45594000000E+02  0.51100000000E-03 0. -1.
    9900012    2    1    2    0    0 -0.17787467986E+02  0.73908576426E+01 -0.38892216243E+02  0.47787270993E+02  0.19999999767E+02 0.  0.
        -12    1    1    2    0    0  0.17787467986E+02 -0.73908576426E+01  0.38892216243E+02  0.43400729007E+02  0.00000000000E+00 0.  1.
         11    1    3    3    0    0 -0.95559535631E+01  0.57891547563E+01 -0.11263963079E+02  0.15865289969E+02  0.51100000000E-03 0. -1.
        -11    1    3    3    0    0 -0.23703120941E+01  0.59829529921E+01 -0.21288612879E+02  0.22240034724E+02  0.51100000000E-03 0.  1.
        -12    1    3    3    0    0 -0.58612023290E+01 -0.43812501058E+01 -0.63396402846E+01  0.96819463007E+01  0.00000000000E+00 0.  1.
</event>
<event>
 7    1  0.4675811E-010  0.4778727E+02  0.7816164E-02  0.1312668E+00
        -11   -1    0    0    0    0  0.00000000000E+00  0.00000000000E+00  0.45593999997E+02  0.45594000000E+02  0.51100000000E-03 0.  1.
         11   -1    0    0    0    0 -0.00000000000E+00 -0.00000000000E+00 -0.45593999997E+02  0.45594000000E+02  0.51100000000E-03 0. -1.
    9900012    2    1    2    0    0 -0.10015878259E+02  0.41681444075E+02 -0.67795931476E+01  0.47787268661E+02  0.19999989133E+02 0.  0.
        -12    1    1    2    0    0  0.10015878259E+02 -0.41681444075E+02  0.67795931476E+01  0.43400731339E+02  0.00000000000E+00 0.  1.
         11    1    3    3    0    0  0.56950197109E+00 -0.61104610101E+00 -0.33054477092E+00  0.89831505573E+00  0.51100000000E-03 0. -1.
        -11    1    3    3    0    0  0.17363108713E+01  0.18781115467E+02  0.21572343098E+01  0.18984170610E+02  0.51100000000E-03 0.  1.
         12    1    3    3    0    0 -0.12321691102E+02  0.23511374709E+02 -0.86062826865E+01  0.27904782995E+02  0.00000000000E+00 0. -1.
</event>
<event>
 7    1  0.4675811E-010  0.4778727E+02  0.7816164E-02  0.1312668E+00
        -11   -1    0    0    0    0  0.00000000000E+00  0.00000000000E+00  0.45593999997E+02  0.45594000000E+02  0.51100000000E-03 0. -1.
         11   -1    0    0    0    0 -0.00000000000E+00 -0.00000000000E+00 -0.45593999997E+02  0.45594000000E+02  0.51100000000E-03 0.  1.
    9900012    2    1    2    0    0  0.26328558924E+02  0.29103192471E+02 -0.18531985414E+02  0.47787270623E+02  0.19999998078E+02 0.  0.
        -12    1    1    2    0    0 -0.26328558924E+02 -0.29103192471E+02  0.18531985414E+02  0.43400729377E+02  0.00000000000E+00 0.  1.
         11    1    3    3    0    0  0.10207866860E+02  0.16667929339E+02 -0.56885650772E+01  0.20356330396E+02  0.51100000000E-03 0.  1.
        -11    1    3    3    0    0  0.15796647901E+02  0.14270607434E+02 -0.13766089271E+02  0.25351322165E+02  0.51100000000E-03 0. -1.
         12    1    3    3    0    0  0.32404416282E+00 -0.18353443008E+01  0.92266893406E+00  0.20796180620E+01  0.00000000000E+00 0. -1.
</event>
<event>
 7    1  0.4675811E-010  0.4778727E+02  0.7816164E-02  0.1312668E+00
        -11   -1    0    0    0    0  0.00000000000E+00  0.00000000000E+00  0.45593999997E+02  0.45594000000E+02  0.51100000000E-03 0.  1.
         11   -1    0    0    0    0 -0.00000000000E+00 -0.00000000000E+00 -0.45593999997E+02  0.45594000000E+02  0.51100000000E-03 0. -1.
    9900012    2    1    2    0    0 -0.34356635347E+02 -0.12811398241E+02 -0.23218801051E+02  0.47787273744E+02  0.20000012310E+02 0.  0.
        -12    1    1    2    0    0  0.34356635347E+02  0.12811398241E+02  0.23218801051E+02  0.43400726256E+02  0.00000000000E+00 0.  1.
         11    1    3    3    0    0 -0.13230609528E+02 -0.77518027418E+01 -0.16004984950E+02  0.22165266020E+02  0.51100000000E-03 0. -1.
        -11    1    3    3    0    0 -0.14875297442E+01 -0.44988438955E+01 -0.13881762000E+00  0.47404231593E+01  0.51100000000E-03 0.  1.
        -12    1    3    3    0    0 -0.19638496075E+02 -0.56075160388E+00 -0.70749984812E+01  0.20881584565E+02  0.00000000000E+00 0.  1.
</event>
<event>
 7    1  0.4675811E-010  0.4778727E+02  0.7816164E-02  0.1312668E+00
        -11   -1    0    0    0    0  0.00000000000E+00  0.00000000000E+00  0.45593999997E+02  0.45594000000E+02  0.51100000000E-03 0.  1.
         11   -1    0    0    0    0 -0.00000000000E+00 -0.00000000000E+00 -0.45593999997E+02  0.45594000000E+02  0.51100000000E-03 0. -1.
    9900012    2    1    2    0    0 -0.37893825750E+02  0.68856936279E+01 -0.20006705745E+02  0.47787273261E+02  0.20000010106E+02 0.  0.
        -12    1    1    2    0    0  0.37893825750E+02 -0.68856936279E+01  0.20006705745E+02  0.43400726739E+02  0.00000000000E+00 0.  1.
         11    1    3    3    0    0 -0.10855347927E+02  0.74087003473E+00 -0.11255953808E+02  0.15655157726E+02  0.51100000000E-03 0. -1.
        -11    1    3    3    0    0 -0.17450993463E+02  0.58556571243E+01 -0.12036324401E+02  0.21993157995E+02  0.51100000000E-03 0.  1.
        -12    1    3    3    0    0 -0.95874843598E+01  0.28916646880E+00  0.32855724647E+01  0.10138957541E+02  0.00000000000E+00 0.  1.
</event>
<event>
 7    1  0.4675811E-010  0.4778728E+02  0.7816164E-02  0.1312668E+00
        -11   -1    0    0    0    0  0.00000000000E+00  0.00000000000E+00  0.45593999997E+02  0.45594000000E+02  0.51100000000E-03 0.  1.
         11   -1    0    0    0    0 -0.00000000000E+00 -0.00000000000E+00 -0.45593999997E+02  0.45594000000E+02  0.51100000000E-03 0. -1.
    9900012    2    1    2    0    0 -0.27812439399E+02 -0.10909219452E+02 -0.31481416951E+02  0.47787280333E+02  0.20000042350E+02 0.  0.
        -12    1    1    2    0    0  0.27812439399E+02  0.10909219452E+02  0.31481416951E+02  0.43400719667E+02  0.00000000000E+00 0.  1.
         11    1    3    3    0    0 -0.63460534761E+01  0.44958753159E+00 -0.15775949069E+01  0.65546418378E+01  0.51100000000E-03 0. -1.
        -11    1    3    3    0    0 -0.76781017014E+01  0.32058763305E+01 -0.82359986904E+01  0.11707372185E+02  0.51100000000E-03 0.  1.
         12    1    3    3    0    0 -0.13788284221E+02 -0.14564683314E+02 -0.21667823354E+02  0.29525266310E+02  0.00000000000E+00 0. -1.
</event>
<event>
 7    1  0.4675811E-010  0.4778724E+02  0.7816164E-02  0.1312668E+00
        -11   -1    0    0    0    0  0.00000000000E+00  0.00000000000E+00  0.45593999997E+02  0.45594000000E+02  0.51100000000E-03 0. -1.
         11   -1    0    0    0    0 -0.00000000000E+00 -0.00000000000E+00 -0.45593999997E+02  0.45594000000E+02  0.51100000000E-03 0.  1.
    9900012    2    1    2    0    0  0.38262899287E+02 -0.80682381372E+01  0.18827649301E+02  0.47787236105E+02  0.19999840698E+02 0.  0.
        -12    1    1    2    0    0 -0.38262899287E+02  0.80682381372E+01 -0.18827649301E+02  0.43400763895E+02  0.00000000000E+00 0.  1.
         11    1    3    3    0    0  0.18576143585E+02 -0.26967426892E+01  0.23536575664E+01  0.18917854947E+02  0.51100000000E-03 0. -1.
        -11    1    3    3    0    0  0.19323971816E+01 -0.28447273620E+01 -0.12465005670E+01  0.36579224371E+01  0.51100000000E-03 0.  1.
         12    1    3    3    0    0  0.17754358520E+02 -0.25267680860E+01  0.17720492301E+02  0.25211458721E+02  0.00000000000E+00 0. -1.
</event>
<event>
 7    1  0.4675811E-010  0.4778729E+02  0.7816164E-02  0.1312668E+00
        -11   -1    0    0    0    0  0.00000000000E+00  0.00000000000E+00  0.45593999997E+02  0.45594000000E+02  0.51100000000E-03 0. -1.
         11   -1    0    0    0    0 -0.00000000000E+00 -0.00000000000E+00 -0.45593999997E+02  0.45594000000E+02  0.51100000000E-03 0.  1.
    9900012    2    1    2    0    0  0.40439479078E+02  0.84862860109E+01  0.13276019330E+02  0.47787294848E+02  0.20000108532E+02 0.  0.
        -12    1    1    2    0    0 -0.40439479078E+02 -0.84862860109E+01 -0.13276019330E+02  0.43400705152E+02  0.00000000000E+00 0.  1.
         11    1    3    3    0    0  0.23498598333E+02  0.26336417019E+01  0.60221497976E+01  0.24400542631E+02  0.51100000000E-03 0. -1.
        -11    1    3    3    0    0  0.15725526108E+02  0.70969922351E+01  0.14337586616E+01  0.17312282759E+02  0.51100000000E-03 0.  1.
         12    1    3    3    0    0  0.12153546371E+01 -0.12443479261E+01  0.58201108708E+01  0.60744694586E+01  0.00000000000E+00 0. -1.
</event>
<event>
 7    1  0.7108551E-010  0.4778727E+02  0.7816164E-02  0.1312668E+00
        -11   -1    0    0    0    0  0.00000000000E+00  0.00000000000E+00  0.45593999997E+02  0.45594000000E+02  0.51100000000E-03 0.  1.
         11   -1    0    0    0    0 -0.00000000000E+00 -0.00000000000E+00 -0.45593999997E+02  0.45594000000E+02  0.51100000000E-03 0. -1.
    9900012    2    1    2    0    0  0.41982383241E+02  0.10128493819E+02  0.43030441781E+01  0.47787273292E+02  0.20000010246E+02 0.  0.
        -12    1    1    2    0    0 -0.41982383241E+02 -0.10128493819E+02 -0.43030441781E+01  0.43400726708E+02  0.00000000000E+00 0.  1.
         11    1    3    3    0    0  0.20756143309E+02  0.23239296838E+01  0.85014480349E+01  0.22549783884E+02  0.51100000000E-03 0. -1.
        -11    1    3    3    0    0  0.17143778138E+01  0.41478384459E+01  0.12365244363E+01  0.46553891357E+01  0.51100000000E-03 0.  1.
         12    1    3    3    0    0  0.19511862117E+02  0.36567256897E+01 -0.54349282931E+01  0.20582100272E+02  0.00000000000E+00 0. -1.
</event>
<event>
 7    1  0.4675811E-010  0.4778727E+02  0.7816164E-02  0.1312668E+00
        -11   -1    0    0    0    0  0.00000000000E+00  0.00000000000E+00  0.45593999997E+02  0.45594000000E+02  0.51100000000E-03 0.  1.
         11   -1    0    0    0    0 -0.00000000000E+00 -0.00000000000E+00 -0.45593999997E+02  0.45594000000E+02  0.51100000000E-03 0. -1.
    9900012    2    1    2    0    0  0.20968255727E+02 -0.30608408316E+02 -0.22518461735E+02  0.47787268131E+02  0.19999986715E+02 0.  0.
        -12    1    1    2    0    0 -0.20968255727E+02  0.30608408316E+02  0.22518461735E+02  0.43400731869E+02  0.00000000000E+00 0.  1.
         11    1    3    3    0    0  0.12308412062E+02 -0.95607558756E+01 -0.75203856553E+01  0.17304949034E+02  0.51100000000E-03 0. -1.
        -11    1    3    3    0    0  0.33237059149E+01 -0.49163758860E+01  0.21786818716E+01  0.63217424671E+01  0.51100000000E-03 0.  1.
         12    1    3    3    0    0  0.53361377507E+01 -0.16131276555E+02 -0.17176757951E+02  0.24160576630E+02  0.00000000000E+00 0. -1.
</event>
<event>
 7    1  0.4675811E-010  0.4778727E+02  0.7816164E-02  0.1312668E+00
        -11   -1    0    0    0    0  0.00000000000E+00  0.00000000000E+00  0.45593999997E+02  0.45594000000E+02  0.51100000000E-03 0.  1.
         11   -1    0    0    0    0 -0.00000000000E+00 -0.00000000000E+00 -0.45593999997E+02  0.45594000000E+02  0.51100000000E-03 0. -1.
    9900012    2    1    2    0    0 -0.16155866579E+02  0.39722132413E+02 -0.66905480513E+01  0.47787271186E+02  0.20000000647E+02 0.  0.
        -12    1    1    2    0    0  0.16155866579E+02 -0.39722132413E+02  0.66905480513E+01  0.43400728814E+02  0.00000000000E+00 0.  1.
         11    1    3    3    0    0 -0.12160728435E+01  0.14549643110E+02 -0.28623988954E+01  0.14878315613E+02  0.51100000000E-03 0. -1.
        -11    1    3    3    0    0 -0.12052215946E+02  0.26637678161E+02 -0.45558382119E+01  0.29590158314E+02  0.51100000000E-03 0.  1.
         12    1    3    3    0    0 -0.28875777900E+01 -0.14651888580E+01  0.72768905607E+00  0.33187972589E+01  0.00000000000E+00 0. -1.
</event>
<event>
 7    1  0.4675811E-010  0.4778727E+02  0.7816164E-02  0.1312668E+00
        -11   -1    0    0    0    0  0.00000000000E+00  0.00000000000E+00  0.45593999997E+02  0.45594000000E+02  0.51100000000E-03 0. -1.
         11   -1    0    0    0    0 -0.00000000000E+00 -0.00000000000E+00 -0.45593999997E+02  0.45594000000E+02  0.51100000000E-03 0.  1.
    9900012    2    1    2    0    0 -0.96825802275E+01 -0.28364630243E+02  0.31389789834E+02  0.47787268272E+02  0.19999987361E+02 0.  0.
        -12    1    1    2    0    0  0.96825802275E+01  0.28364630243E+02 -0.31389789834E+02  0.43400731728E+02  0.00000000000E+00 0.  1.
         11    1    3    3    0    0 -0.97940484503E+01 -0.19656703265E+02  0.13667363706E+02  0.25867087181E+02  0.51100000000E-03 0.  1.
        -11    1    3    3    0    0 -0.23480843347E+01 -0.54914714952E+01  0.30634381823E+01  0.67122584116E+01  0.51100000000E-03 0. -1.
        -12    1    3    3    0    0  0.24595525575E+01 -0.32164554832E+01  0.14658987946E+02  0.15207922680E+02  0.00000000000E+00 0.  1.
</event>
<event>
 7    1  0.4675811E-010  0.4778727E+02  0.7816164E-02  0.1312668E+00
        -11   -1    0    0    0    0  0.00000000000E+00  0.00000000000E+00  0.45593999997E+02  0.45594000000E+02  0.51100000000E-03 0.  1.
         11   -1    0    0    0    0 -0.00000000000E+00 -0.00000000000E+00 -0.45593999997E+02  0.45594000000E+02  0.51100000000E-03 0. -1.
    9900012    2    1    2    0    0  0.13960173469E+02  0.16747866995E+02 -0.37526601253E+02  0.47787270815E+02  0.19999998955E+02 0.  0.
        -12    1    1    2    0    0 -0.13960173469E+02 -0.16747866995E+02  0.37526601253E+02  0.43400729185E+02  0.00000000000E+00 0.  1.
         11    1    3    3    0    0 -0.29978896867E+01  0.36629363245E+01 -0.15727363543E+02  0.16424201940E+02  0.51100000000E-03 0. -1.
        -11    1    3    3    0    0  0.15615279216E+01  0.19058456140E+00 -0.48014075629E+01  0.50525445838E+01  0.51100000000E-03 0.  1.
        -12    1    3    3    0    0  0.15396535234E+02  0.12894346109E+02 -0.16997830148E+02  0.26310524292E+02  0.00000000000E+00 0.  1.
</event>
<event>
 7    1  0.4675811E-010  0.4778727E+02  0.7816164E-02  0.1312668E+00
        -11   -1    0    0    0    0  0.00000000000E+00  0.00000000000E+00  0.45593999997E+02  0.45594000000E+02  0.51100000000E-03 0.  1.
         11   -1    0    0    0    0 -0.00000000000E+00 -0.00000000000E+00 -0.45593999997E+02  0.45594000000E+02  0.51100000000E-03 0. -1.
    9900012    2    1    2    0    0 -0.63037439241E+01  0.40986343256E+01 -0.42744439285E+02  0.47787273271E+02  0.20000010152E+02 0.  0.
        -12    1    1    2    0    0  0.63037439241E+01 -0.40986343256E+01  0.42744439285E+02  0.43400726729E+02  0.00000000000E+00 0.  1.
         11    1    3    3    0    0 -0.19283698667E+01  0.15069591187E+01 -0.27333380263E+02  0.27442726049E+02  0.51100000000E-03 0. -1.
        -11    1    3    3    0    0 -0.22474181385E+01 -0.40037306180E+01 -0.15471976199E+01  0.48450560252E+01  0.51100000000E-03 0.  1.
         12    1    3    3    0    0 -0.21279559189E+01  0.65954058250E+01 -0.13863861402E+02  0.15499491197E+02  0.00000000000E+00 0. -1.
</event>
<event>
 7    1  0.4675811E-010  0.4778727E+02  0.7816164E-02  0.1312668E+00
        -11   -1    0    0    0    0  0.00000000000E+00  0.00000000000E+00  0.45593999997E+02  0.45594000000E+02  0.51100000000E-03 0.  1.
         11   -1    0    0    0    0 -0.00000000000E+00 -0.00000000000E+00 -0.45593999997E+02  0.45594000000E+02  0.51100000000E-03 0. -1.
    9900012    2    1    2    0    0  0.22761820694E+02  0.38493818426E+01 -0.36751939561E+02  0.47787270935E+02  0.19999999501E+02 0.  0.
        -12    1    1    2    0    0 -0.22761820694E+02 -0.38493818426E+01  0.36751939561E+02  0.43400729065E+02  0.00000000000E+00 0.  1.
         11    1    3    3    0    0  0.18427310820E+01  0.53420311794E+01 -0.10393054801E+02  0.11829984925E+02  0.51100000000E-03 0. -1.
        -11    1    3    3    0    0  0.33127540338E+01  0.44098835358E+01 -0.88929260315E+01  0.10464489751E+02  0.51100000000E-03 0.  1.
        -12    1    3    3    0    0  0.17606335578E+02 -0.59025328725E+01 -0.17465958728E+02  0.25492796259E+02  0.00000000000E+00 0.  1.
</event>
<event>
 7    1  0.4675811E-010  0.4778727E+02  0.7816164E-02  0.1312668E+00
        -11   -1    0    0    0    0  0.00000000000E+00  0.00000000000E+00  0.45593999997E+02  0.45594000000E+02  0.51100000000E-03 0. -1.
         11   -1    0    0    0    0 -0.00000000000E+00 -0.00000000000E+00 -0.45593999997E+02  0.45594000000E+02  0.51100000000E-03 0.  1.
    9900012    2    1    2    0    0 -0.39960566248E+02 -0.46339833222E+01 -0.16288112231E+02  0.47787271247E+02  0.20000000922E+02 0.  0.
        -12    1    1    2    0    0  0.39960566248E+02  0.46339833222E+01  0.16288112231E+02  0.43400728753E+02  0.00000000000E+00 0.  1.
         11    1    3    3    0    0 -0.50054723708E+00 -0.31383125897E+00  0.49227860005E+00  0.76900980283E+00  0.51100000000E-03 0. -1.
        -11    1    3    3    0    0 -0.11286420189E+00  0.29346702790E+01 -0.41063570446E+01  0.50484845660E+01  0.51100000000E-03 0.  1.
         12    1    3    3    0    0 -0.39347154809E+02 -0.72548223423E+01 -0.12674033786E+02  0.41969776878E+02  0.00000000000E+00 0. -1.
</event>
<event>
 7    1  0.4675811E-010  0.4778727E+02  0.7816164E-02  0.1312668E+00
        -11   -1    0    0    0    0  0.00000000000E+00  0.00000000000E+00  0.45593999997E+02  0.45594000000E+02  0.51100000000E-03 0.  1.
         11   -1    0    0    0    0 -0.00000000000E+00 -0.00000000000E+00 -0.45593999997E+02  0.45594000000E+02  0.51100000000E-03 0. -1.
    9900012    2    1    2    0    0 -0.21213397233E+02 -0.92860708880E+01 -0.36706732746E+02  0.47787267707E+02  0.19999984782E+02 0.  0.
        -12    1    1    2    0    0  0.21213397233E+02  0.92860708880E+01  0.36706732746E+02  0.43400732293E+02  0.00000000000E+00 0.  1.
         11    1    3    3    0    0 -0.13727063743E+02 -0.83412095187E+01 -0.22386463419E+02  0.27552890953E+02  0.51100000000E-03 0. -1.
        -11    1    3    3    0    0 -0.37667157034E+01 -0.61089269910E+01 -0.43077607408E+01  0.83704204813E+01  0.51100000000E-03 0.  1.
         12    1    3    3    0    0 -0.37196177870E+01  0.51640656217E+01 -0.10012508587E+02  0.11863956272E+02  0.00000000000E+00 0. -1.
</event>
<event>
 7    1  0.5276662E-010  0.4778727E+02  0.7816164E-02  0.1312668E+00
        -11   -1    0    0    0    0  0.00000000000E+00  0.00000000000E+00  0.45593999997E+02  0.45594000000E+02  0.51100000000E-03 0. -1.
         11   -1    0    0    0    0 -0.00000000000E+00 -0.00000000000E+00 -0.45593999997E+02  0.45594000000E+02  0.51100000000E-03 0.  1.
    9900012    2    1    2    0    0  0.39762015353E+02  0.15675259212E+02  0.75426513645E+01  0.47787271828E+02  0.20000003572E+02 0.  0.
        -12    1    1    2    0    0 -0.39762015353E+02 -0.15675259212E+02 -0.75426513645E+01  0.43400728172E+02  0.00000000000E+00 0.  1.
         11    1    3    3    0    0  0.52873127989E+00 -0.90650933453E+00 -0.24858944375E+01  0.26983304756E+01  0.51100000000E-03 0. -1.
        -11    1    3    3    0    0  0.62038768014E+01  0.70063142010E+01  0.39903179421E+01  0.10173453867E+02  0.51100000000E-03 0.  1.
         12    1    3    3    0    0  0.33029407271E+02  0.95754543454E+01  0.60382278599E+01  0.34915487485E+02  0.00000000000E+00 0. -1.
</event>
<event>
 7    1  0.4675811E-010  0.4778729E+02  0.7816164E-02  0.1312668E+00
        -11   -1    0    0    0    0  0.00000000000E+00  0.00000000000E+00  0.45593999997E+02  0.45594000000E+02  0.51100000000E-03 0.  1.
         11   -1    0    0    0    0 -0.00000000000E+00 -0.00000000000E+00 -0.45593999997E+02  0.45594000000E+02  0.51100000000E-03 0. -1.
    9900012    2    1    2    0    0 -0.31055195371E+02  0.26965528010E+02 -0.13858469167E+02  0.47787285397E+02  0.20000065440E+02 0.  0.
        -12    1    1    2    0    0  0.31055195371E+02 -0.26965528010E+02  0.13858469167E+02  0.43400714603E+02  0.00000000000E+00 0.  1.
         11    1    3    3    0    0 -0.17979319944E+01  0.36715272080E+01 -0.16575274790E+01  0.44113568321E+01  0.51100000000E-03 0. -1.
        -11    1    3    3    0    0 -0.94967151900E+01 -0.16649117424E+01 -0.44090482252E+01  0.10601850641E+02  0.51100000000E-03 0.  1.
        -12    1    3    3    0    0 -0.19760548187E+02  0.24958912544E+02 -0.77918934628E+01  0.32774077924E+02  0.00000000000E+00 0.  1.
</event>
<event>
 7    1  0.4675811E-010  0.4778727E+02  0.7816164E-02  0.1312668E+00
        -11   -1    0    0    0    0  0.00000000000E+00  0.00000000000E+00  0.45593999997E+02  0.45594000000E+02  0.51100000000E-03 0.  1.
         11   -1    0    0    0    0 -0.00000000000E+00 -0.00000000000E+00 -0.45593999997E+02  0.45594000000E+02  0.51100000000E-03 0. -1.
    9900012    2    1    2    0    0  0.23258645993E+02 -0.34218516633E+02 -0.13105405211E+02  0.47787272590E+02  0.20000007048E+02 0.  0.
        -12    1    1    2    0    0 -0.23258645993E+02  0.34218516633E+02  0.13105405211E+02  0.43400727410E+02  0.00000000000E+00 0.  1.
         11    1    3    3    0    0  0.47153972052E+01 -0.13265867978E+02  0.10666772809E+01  0.14119349302E+02  0.51100000000E-03 0. -1.
        -11    1    3    3    0    0  0.28189453387E+01  0.82053735521E+00  0.62822298397E+00  0.30023988331E+01  0.51100000000E-03 0.  1.
        -12    1    3    3    0    0  0.15724303449E+02 -0.21773186009E+02 -0.14800305476E+02  0.30665524455E+02  0.00000000000E+00 0.  1.
</event>
<event>
 7    1  0.4675811E-010  0.4778727E+02  0.7816164E-02  0.1312668E+00
        -11   -1    0    0    0    0  0.00000000000E+00  0.00000000000E+00  0.45593999997E+02  0.45594000000E+02  0.51100000000E-03 0.  1.
         11   -1    0    0    0    0 -0.00000000000E+00 -0.00000000000E+00 -0.45593999997E+02  0.45594000000E+02  0.51100000000E-03 0. -1.
    9900012    2    1    2    0    0 -0.25725674255E+02 -0.34941412377E+02 -0.95420638135E+00  0.47787272765E+02  0.20000007843E+02 0.  0.
        -12    1    1    2    0    0  0.25725674255E+02  0.34941412377E+02  0.95420638135E+00  0.43400727235E+02  0.00000000000E+00 0.  1.
         11    1    3    3    0    0 -0.14924081484E+02 -0.89348271624E+01 -0.71350268432E+01  0.18800743413E+02  0.51100000000E-03 0.  1.
        -11    1    3    3    0    0 -0.33887608357E+01 -0.65366988421E+01  0.43659476198E+00  0.73758217848E+01  0.51100000000E-03 0. -1.
        -12    1    3    3    0    0 -0.74128319351E+01 -0.19469886372E+02  0.57442256999E+01  0.21610707567E+02  0.00000000000E+00 0.  1.
</event>
<event>
 7    1  0.4675811E-010  0.4778727E+02  0.7816164E-02  0.1312668E+00
        -11   -1    0    0    0    0  0.00000000000E+00  0.00000000000E+00  0.45593999997E+02  0.45594000000E+02  0.51100000000E-03 0.  1.
         11   -1    0    0    0    0 -0.00000000000E+00 -0.00000000000E+00 -0.45593999997E+02  0.45594000000E+02  0.51100000000E-03 0. -1.
    9900012    2    1    2    0    0  0.21446564659E+02 -0.28114199204E+02 -0.25164658650E+02  0.47787269850E+02  0.19999994555E+02 0.  0.
        -12    1    1    2    0    0 -0.21446564659E+02  0.28114199204E+02  0.25164658650E+02  0.43400730150E+02  0.00000000000E+00 0.  1.
         11    1    3    3    0    0  0.68440119784E+01 -0.12175995660E+02 -0.73197285461E+01  0.15769394298E+02  0.51100000000E-03 0. -1.
        -11    1    3    3    0    0  0.15918929862E+02 -0.16317907851E+02 -0.11512016584E+02  0.25538460617E+02  0.51100000000E-03 0.  1.
         12    1    3    3    0    0 -0.13163771818E+01  0.37970430731E+00 -0.63329135202E+01  0.64794149350E+01  0.00000000000E+00 0. -1.
</event>
<event>
 7    1  0.4675811E-010  0.4778727E+02  0.7816164E-02  0.1312668E+00
        -11   -1    0    0    0    0  0.00000000000E+00  0.00000000000E+00  0.45593999997E+02  0.45594000000E+02  0.51100000000E-03 0.  1.
         11   -1    0    0    0    0 -0.00000000000E+00 -0.00000000000E+00 -0.45593999997E+02  0.45594000000E+02  0.51100000000E-03 0. -1.
    9900012    2    1    2    0    0 -0.14199260144E+02 -0.11644309629E+01 -0.40995717513E+02  0.47787265645E+02  0.19999975384E+02 0.  0.
        -12    1    1    2    0    0  0.14199260144E+02  0.11644309629E+01  0.40995717513E+02  0.43400734355E+02  0.00000000000E+00 0.  1.
         11    1    3    3    0    0 -0.35860446251E+00  0.27155370259E+01 -0.83876894539E+01  0.88236088499E+01  0.51100000000E-03 0. -1.
        -11    1    3    3    0    0 -0.73792731343E+01  0.24510194028E+01 -0.35827295821E+01  0.85613736996E+01  0.51100000000E-03 0.  1.
         12    1    3    3    0    0 -0.64613825474E+01 -0.63309873916E+01 -0.29025298477E+02  0.30402283096E+02  0.00000000000E+00 0. -1.
</event>
<event>
 7    1  0.4675811E-010  0.4778727E+02  0.7816164E-02  0.1312668E+00
        -11   -1    0    0    0    0  0.00000000000E+00  0.00000000000E+00  0.45593999997E+02  0.45594000000E+02  0.51100000000E-03 0. -1.
         11   -1    0    0    0    0 -0.00000000000E+00 -0.00000000000E+00 -0.45593999997E+02  0.45594000000E+02  0.51100000000E-03 0.  1.
    9900012    2    1    2    0    0 -0.14450492882E+02 -0.26049242069E+02  0.31563328465E+02  0.47787268892E+02  0.19999990187E+02 0.  0.
        -12    1    1    2    0    0  0.14450492882E+02  0.26049242069E+02 -0.31563328465E+02  0.43400731108E+02  0.00000000000E+00 0.  1.
         11    1    3    3    0    0  0.56665643201E+00  0.42363781309E+00  0.20691325293E+01  0.21867506016E+01  0.51100000000E-03 0. -1.
        -11    1    3    3    0    0 -0.65887543370E+01 -0.10608540825E+01  0.14520174160E+01  0.68297474283E+01  0.51100000000E-03 0.  1.
         12    1    3    3    0    0 -0.84283949772E+01 -0.25412025799E+02  0.28042178520E+02  0.38770770862E+02  0.00000000000E+00 0. -1.
</event>
<event>
 7    1  0.4675811E-010  0.4778727E+02  0.7816164E-02  0.1312668E+00
        -11   -1    0    0    0    0  0.00000000000E+00  0.00000000000E+00  0.45593999997E+02  0.45594000000E+02  0.51100000000E-03 0.  1.
         11   -1    0    0    0    0 -0.00000000000E+00 -0.00000000000E+00 -0.45593999997E+02  0.45594000000E+02  0.51100000000E-03 0. -1.
    9900012    2    1    2    0    0 -0.37763326170E+02 -0.20206839810E+02  0.70169782120E+01  0.47787272336E+02  0.20000005890E+02 0.  0.
        -12    1    1    2    0    0  0.37763326170E+02  0.20206839810E+02 -0.70169782120E+01  0.43400727664E+02  0.00000000000E+00 0.  1.
         11    1    3    3    0    0 -0.82405165593E+01 -0.63222108775E+01 -0.23547159620E+01  0.10649936670E+02  0.51100000000E-03 0. -1.
        -11    1    3    3    0    0 -0.20607109101E+02 -0.74828299921E+01 -0.11217420142E+01  0.21952311851E+02  0.51100000000E-03 0.  1.
        -12    1    3    3    0    0 -0.89157005095E+01 -0.64017989399E+01  0.10493436188E+02  0.15185023816E+02  0.00000000000E+00 0.  1.
</event>
<event>
 7    1  0.4675811E-010  0.4778727E+02  0.7816164E-02  0.1312668E+00
        -11   -1    0    0    0    0  0.00000000000E+00  0.00000000000E+00  0.45593999997E+02  0.45594000000E+02  0.51100000000E-03 0.  1.
         11   -1    0    0    0    0 -0.00000000000E+00 -0.00000000000E+00 -0.45593999997E+02  0.45594000000E+02  0.51100000000E-03 0. -1.
    9900012    2    1    2    0    0 -0.30005946225E+02  0.43897144297E+01 -0.31048300836E+02  0.47787269748E+02  0.19999994088E+02 0.  0.
        -12    1    1    2    0    0  0.30005946225E+02 -0.43897144297E+01  0.31048300836E+02  0.43400730252E+02  0.00000000000E+00 0.  1.
         11    1    3    3    0    0 -0.11896150754E+02  0.96462056351E-01 -0.14055282413E+02  0.18414088945E+02  0.51100000000E-03 0. -1.
        -11    1    3    3    0    0  0.46423288622E-01 -0.38480874650E+01 -0.43039770346E+01  0.57735734893E+01  0.51100000000E-03 0.  1.
        -12    1    3    3    0    0 -0.18156218759E+02  0.81413398384E+01 -0.12689041388E+02  0.23599607314E+02  0.00000000000E+00 0.  1.
</event>
<event>
 7    1  0.4675811E-010  0.4778727E+02  0.7816164E-02  0.1312668E+00
        -11   -1    0    0    0    0  0.00000000000E+00  0.00000000000E+00  0.45593999997E+02  0.45594000000E+02  0.51100000000E-03 0. -1.
         11   -1    0    0    0    0 -0.00000000000E+00 -0.00000000000E+00 -0.45593999997E+02  0.45594000000E+02  0.51100000000E-03 0.  1.
    9900012    2    1    2    0    0 -0.30677334090E+02 -0.16841301530E+01  0.30654337959E+02  0.47787267783E+02  0.19999985130E+02 0.  0.
        -12    1    1    2    0    0  0.30677334090E+02  0.16841301530E+01 -0.30654337959E+02  0.43400732217E+02  0.00000000000E+00 0.  1.
         11    1    3    3    0    0 -0.16968826156E+02  0.41630914536E+01  0.99789402302E+01  0.20120925425E+02  0.51100000000E-03 0. -1.
        -11    1    3    3    0    0 -0.28189154487E+01 -0.48911726537E+01  0.19294945606E+01  0.59659704789E+01  0.51100000000E-03 0.  1.
         12    1    3    3    0    0 -0.10889592485E+02 -0.95604895290E+00  0.18745903168E+02  0.21700371879E+02  0.00000000000E+00 0. -1.
</event>
<event>
 7    1  0.4675811E-010  0.4778727E+02  0.7816164E-02  0.1312668E+00
        -11   -1    0    0    0    0  0.00000000000E+00  0.00000000000E+00  0.45593999997E+02  0.45594000000E+02  0.51100000000E-03 0.  1.
         11   -1    0    0    0    0 -0.00000000000E+00 -0.00000000000E+00 -0.45593999997E+02  0.45594000000E+02  0.51100000000E-03 0. -1.
    9900012    2    1    2    0    0  0.63717292491E+01 -0.32123171344E+02 -0.28480280392E+02  0.47787269107E+02  0.19999991168E+02 0.  0.
        -12    1    1    2    0    0 -0.63717292491E+01  0.32123171344E+02  0.28480280392E+02  0.43400730893E+02  0.00000000000E+00 0.  1.
         11    1    3    3    0    0 -0.49849246832E+00  0.28361432382E+00 -0.87055082266E+00  0.10424926003E+01  0.51100000000E-03 0. -1.
        -11    1    3    3    0    0  0.28527593417E+01 -0.51002467610E+01 -0.15573826945E+02  0.16634146773E+02  0.51100000000E-03 0.  1.
         12    1    3    3    0    0  0.40174623757E+01 -0.27306538907E+02 -0.12035902624E+02  0.30110629734E+02  0.00000000000E+00 0. -1.
</event>
<event>
 7    1  0.4675811E-010  0.4778726E+02  0.7816164E-02  0.1312668E+00
        -11   -1    0    0    0    0  0.00000000000E+00  0.00000000000E+00  0.45593999997E+02  0.45594000000E+02  0.51100000000E-03 0. -1.
         11   -1    0    0    0    0 -0.00000000000E+00 -0.00000000000E+00 -0.45593999997E+02  0.45594000000E+02  0.51100000000E-03 0.  1.
    9900012    2    1    2    0    0  0.49496220487E+01 -0.51065517366E+01  0.42814114370E+02  0.47787262468E+02  0.19999960894E+02 0.  0.
        -12    1    1    2    0    0 -0.49496220487E+01  0.51065517366E+01 -0.42814114370E+02  0.43400737532E+02  0.00000000000E+00 0.  1.
         11    1    3    3    0    0  0.36503982943E+01 -0.15841770755E+01  0.12232497174E+02  0.12863475895E+02  0.51100000000E-03 0. -1.
        -11    1    3    3    0    0  0.17320702924E+01 -0.56498879078E+01  0.19688648467E+01  0.62287823781E+01  0.51100000000E-03 0.  1.
         12    1    3    3    0    0 -0.43284653805E+00  0.21275132466E+01  0.28612752349E+02  0.28695004195E+02  0.00000000000E+00 0. -1.
</event>
<event>
 7    1  0.4675811E-010  0.4778727E+02  0.7816164E-02  0.1312668E+00
        -11   -1    0    0    0    0  0.00000000000E+00  0.00000000000E+00  0.45593999997E+02  0.45594000000E+02  0.51100000000E-03 0. -1.
         11   -1    0    0    0    0 -0.00000000000E+00 -0.00000000000E+00 -0.45593999997E+02  0.45594000000E+02  0.51100000000E-03 0.  1.
    9900012    2    1    2    0    0 -0.42143394751E+02  0.50594965364E+01  0.90531194988E+01  0.47787271907E+02  0.20000003934E+02 0.  0.
        -12    1    1    2    0    0  0.42143394751E+02 -0.50594965364E+01 -0.90531194988E+01  0.43400728093E+02  0.00000000000E+00 0.  1.
         11    1    3    3    0    0 -0.91228570609E+01  0.57919371344E+01 -0.68015624904E+00  0.10827542173E+02  0.51100000000E-03 0. -1.
        -11    1    3    3    0    0 -0.97304781727E+01 -0.23519020616E+01 -0.28896938799E+01  0.10419404002E+02  0.51100000000E-03 0.  1.
        -12    1    3    3    0    0 -0.23290059517E+02  0.16194614637E+01  0.12622969628E+02  0.26540325732E+02  0.00000000000E+00 0.  1.
</event>
<event>
 7    1  0.4675811E-010  0.4778727E+02  0.7816164E-02  0.1312668E+00
        -11   -1    0    0    0    0  0.00000000000E+00  0.00000000000E+00  0.45593999997E+02  0.45594000000E+02  0.51100000000E-03 0. -1.
         11   -1    0    0    0    0 -0.00000000000E+00 -0.00000000000E+00 -0.45593999997E+02  0.45594000000E+02  0.51100000000E-03 0.  1.
    9900012    2    1    2    0    0  0.58133442597E+00 -0.29244802156E+02  0.32062858055E+02  0.47787271095E+02  0.20000000229E+02 0.  0.
        -12    1    1    2    0    0 -0.58133442597E+00  0.29244802156E+02 -0.32062858055E+02  0.43400728905E+02  0.00000000000E+00 0.  1.
         11    1    3    3    0    0 -0.19607684278E+01  0.18596140430E+01  0.36712769034E+01  0.45586238690E+01  0.51100000000E-03 0. -1.
        -11    1    3    3    0    0  0.16437517955E+01 -0.17161708407E+01  0.54159616480E+01  0.59143725917E+01  0.51100000000E-03 0.  1.
        -12    1    3    3    0    0  0.89835105824E+00 -0.29388245359E+02  0.22975619503E+02  0.37314274634E+02  0.00000000000E+00 0.  1.
</event>
<event>
 7    1  0.4675811E-010  0.4778726E+02  0.7816164E-02  0.1312668E+00
        -11   -1    0    0    0    0  0.00000000000E+00  0.00000000000E+00  0.45593999997E+02  0.45594000000E+02  0.51100000000E-03 0.  1.
         11   -1    0    0    0    0 -0.00000000000E+00 -0.00000000000E+00 -0.45593999997E+02  0.45594000000E+02  0.51100000000E-03 0. -1.
    9900012    2    1    2    0    0 -0.77599074438E+00  0.13620358228E+02 -0.41200822359E+02  0.47787261723E+02  0.19999957501E+02 0.  0.
        -12    1    1    2    0    0  0.77599074438E+00 -0.13620358228E+02  0.41200822359E+02  0.43400738277E+02  0.00000000000E+00 0.  1.
         11    1    3    3    0    0  0.17736152363E+01  0.88939365356E+00 -0.12416529272E+02  0.12574057878E+02  0.51100000000E-03 0. -1.
        -11    1    3    3    0    0  0.25688050961E+01  0.76535872476E+01 -0.26419877272E+02  0.27625822570E+02  0.51100000000E-03 0.  1.
        -12    1    3    3    0    0 -0.51184110768E+01  0.50773773268E+01 -0.23644158151E+01  0.75873812753E+01  0.00000000000E+00 0.  1.
</event>
<event>
 7    1  0.4675811E-010  0.4778727E+02  0.7816164E-02  0.1312668E+00
        -11   -1    0    0    0    0  0.00000000000E+00  0.00000000000E+00  0.45593999997E+02  0.45594000000E+02  0.51100000000E-03 0.  1.
         11   -1    0    0    0    0 -0.00000000000E+00 -0.00000000000E+00 -0.45593999997E+02  0.45594000000E+02  0.51100000000E-03 0. -1.
    9900012    2    1    2    0    0 -0.39454887626E+02  0.15417016308E+02 -0.94472576598E+01  0.47787271588E+02  0.20000002479E+02 0.  0.
        -12    1    1    2    0    0  0.39454887626E+02 -0.15417016308E+02  0.94472576598E+01  0.43400728412E+02  0.00000000000E+00 0.  1.
         11    1    3    3    0    0 -0.23840148056E+01  0.29380324186E+01 -0.46016981303E+01  0.59574480299E+01  0.51100000000E-03 0. -1.
        -11    1    3    3    0    0 -0.17766386560E+02  0.13332386582E+02 -0.20827582673E+01  0.22309973233E+02  0.51100000000E-03 0.  1.
         12    1    3    3    0    0 -0.19304486260E+02 -0.85340269245E+00 -0.27628012623E+01  0.19519850326E+02  0.00000000000E+00 0. -1.
</event>
<event>
 7    1  0.4675811E-010  0.4778727E+02  0.7816164E-02  0.1312668E+00
        -11   -1    0    0    0    0  0.00000000000E+00  0.00000000000E+00  0.45593999997E+02  0.45594000000E+02  0.51100000000E-03 0.  1.
         11   -1    0    0    0    0 -0.00000000000E+00 -0.00000000000E+00 -0.45593999997E+02  0.45594000000E+02  0.51100000000E-03 0. -1.
    9900012    2    1    2    0    0  0.26657741756E+02 -0.26233802265E+02 -0.22017620300E+02  0.47787272120E+02  0.20000004906E+02 0.  0.
        -12    1    1    2    0    0 -0.26657741756E+02  0.26233802265E+02  0.22017620300E+02  0.43400727880E+02  0.00000000000E+00 0.  1.
         11    1    3    3    0    0  0.12012821516E+02 -0.37871291642E+01 -0.11739732216E+02  0.17218348958E+02  0.51100000000E-03 0. -1.
        -11    1    3    3    0    0  0.64077827175E+00  0.29328982396E+00 -0.27258227913E+01  0.28154441684E+01  0.51100000000E-03 0.  1.
         12    1    3    3    0    0  0.14004141969E+02 -0.22739962924E+02 -0.75520652928E+01  0.27753478994E+02  0.00000000000E+00 0. -1.
</event>
<event>
 7    1  0.4675811E-010  0.4778727E+02  0.7816164E-02  0.1312668E+00
        -11   -1    0    0    0    0  0.00000000000E+00  0.00000000000E+00  0.45593999997E+02  0.45594000000E+02  0.51100000000E-03 0.  1.
         11   -1    0    0    0    0 -0.00000000000E+00 -0.00000000000E+00 -0.45593999997E+02  0.45594000000E+02  0.51100000000E-03 0. -1.
    9900012    2    1    2    0    0  0.87928200398E+01  0.53684376402E+01 -0.42160283119E+02  0.47787270978E+02  0.19999999697E+02 0.  0.
        -12    1    1    2    0    0 -0.87928200398E+01 -0.53684376402E+01  0.42160283119E+02  0.43400729022E+02  0.00000000000E+00 0.  1.
         11    1    3    3    0    0  0.11231659929E+02 -0.31852493879E+01 -0.28278546668E+02  0.30593662748E+02  0.51100000000E-03 0. -1.
        -11    1    3    3    0    0  0.10638774625E+01  0.29647758018E+01 -0.24303043713E+01  0.39784557819E+01  0.51100000000E-03 0.  1.
         12    1    3    3    0    0 -0.35027173518E+01  0.55889112264E+01 -0.11451432080E+02  0.13215152448E+02  0.00000000000E+00 0. -1.
</event>
<event>
 7    1  0.4675811E-010  0.4778727E+02  0.7816164E-02  0.1312668E+00
        -11   -1    0    0    0    0  0.00000000000E+00  0.00000000000E+00  0.45593999997E+02  0.45594000000E+02  0.51100000000E-03 0.  1.
         11   -1    0    0    0    0 -0.00000000000E+00 -0.00000000000E+00 -0.45593999997E+02  0.45594000000E+02  0.51100000000E-03 0. -1.
    9900012    2    1    2    0    0 -0.76822895552E+01  0.37140193826E+02  0.21100052211E+02  0.47787265288E+02  0.19999973756E+02 0.  0.
        -12    1    1    2    0    0  0.76822895552E+01 -0.37140193826E+02 -0.21100052211E+02  0.43400734712E+02  0.00000000000E+00 0.  1.
         11    1    3    3    0    0  0.56953464960E+00  0.99566789785E+01  0.24090707605E+01  0.10259797668E+02  0.51100000000E-03 0. -1.
        -11    1    3    3    0    0 -0.34237885402E+01 -0.42290118929E-01 -0.10173789068E+01  0.35719989534E+01  0.51100000000E-03 0.  1.
         12    1    3    3    0    0 -0.48280356646E+01  0.27225804966E+02  0.19708360357E+02  0.33955468667E+02  0.00000000000E+00 0. -1.
</event>
<event>
 7    1  0.4675811E-010  0.4778727E+02  0.7816164E-02  0.1312668E+00
        -11   -1    0    0    0    0  0.00000000000E+00  0.00000000000E+00  0.45593999997E+02  0.45594000000E+02  0.51100000000E-03 0.  1.
         11   -1    0    0    0    0 -0.00000000000E+00 -0.00000000000E+00 -0.45593999997E+02  0.45594000000E+02  0.51100000000E-03 0. -1.
    9900012    2    1    2    0    0  0.21870507097E+01 -0.32566124122E+02 -0.28605722020E+02  0.47787274621E+02  0.20000016309E+02 0.  0.
        -12    1    1    2    0    0 -0.21870507097E+01  0.32566124122E+02  0.28605722020E+02  0.43400725379E+02  0.00000000000E+00 0.  1.
         11    1    3    3    0    0 -0.68646344926E+01 -0.16605698117E+02 -0.15423208298E+02  0.23680113411E+02  0.51100000000E-03 0. -1.
        -11    1    3    3    0    0  0.12411712334E+01 -0.43470800227E+01  0.48294427561E+00  0.45465202286E+01  0.51100000000E-03 0.  1.
        -12    1    3    3    0    0  0.78105139689E+01 -0.11613345982E+02 -0.13665457997E+02  0.19560640982E+02  0.00000000000E+00 0.  1.
</event>
<event>
 7    1  0.4675811E-010  0.4778727E+02  0.7816164E-02  0.1312668E+00
        -11   -1    0    0    0    0  0.00000000000E+00  0.00000000000E+00  0.45593999997E+02  0.45594000000E+02  0.51100000000E-03 0.  1.
         11   -1    0    0    0    0 -0.00000000000E+00 -0.00000000000E+00 -0.45593999997E+02  0.45594000000E+02  0.51100000000E-03 0. -1.
    9900012    2    1    2    0    0  0.14332579566E+02 -0.16697117824E+02 -0.37408646074E+02  0.47787269801E+02  0.19999994333E+02 0.  0.
        -12    1    1    2    0    0 -0.14332579566E+02  0.16697117824E+02  0.37408646074E+02  0.43400730199E+02  0.00000000000E+00 0.  1.
         11    1    3    3    0    0  0.76077795549E+00 -0.25100657228E+01 -0.16279537266E+02  0.16489467756E+02  0.51100000000E-03 0. -1.
        -11    1    3    3    0    0  0.11710050168E+02 -0.50343178486E+01 -0.16567075283E+02  0.20903052764E+02  0.51100000000E-03 0.  1.
         12    1    3    3    0    0  0.18617514427E+01 -0.91527342531E+01 -0.45620335249E+01  0.10394749281E+02  0.00000000000E+00 0. -1.
</event>
<event>
 7    1  0.4675811E-010  0.4778727E+02  0.7816164E-02  0.1312668E+00
        -11   -1    0    0    0    0  0.00000000000E+00  0.00000000000E+00  0.45593999997E+02  0.45594000000E+02  0.51100000000E-03 0. -1.
         11   -1    0    0    0    0 -0.00000000000E+00 -0.00000000000E+00 -0.45593999997E+02  0.45594000000E+02  0.51100000000E-03 0.  1.
    9900012    2    1    2    0    0 -0.79737738924E+01 -0.11187088729E+02  0.41169058860E+02  0.47787269226E+02  0.19999991709E+02 0.  0.
        -12    1    1    2    0    0  0.79737738924E+01  0.11187088729E+02 -0.41169058860E+02  0.43400730774E+02  0.00000000000E+00 0.  1.
         11    1    3    3    0    0 -0.66286013975E+00 -0.21435019551E+01 -0.56022077997E+00  0.23125379520E+01  0.51100000000E-03 0.  1.
        -11    1    3    3    0    0 -0.88523035754E+00 -0.91258469934E+01  0.12239029644E+02  0.15292434830E+02  0.51100000000E-03 0. -1.
         12    1    3    3    0    0 -0.64256833951E+01  0.82260219883E-01  0.29490249995E+02  0.30182296444E+02  0.00000000000E+00 0. -1.
</event>
<event>
 7    1  0.4675811E-010  0.4778727E+02  0.7816164E-02  0.1312668E+00
        -11   -1    0    0    0    0  0.00000000000E+00  0.00000000000E+00  0.45593999997E+02  0.45594000000E+02  0.51100000000E-03 0.  1.
         11   -1    0    0    0    0 -0.00000000000E+00 -0.00000000000E+00 -0.45593999997E+02  0.45594000000E+02  0.51100000000E-03 0. -1.
    9900012    2    1    2    0    0  0.16813287005E+02  0.14078690077E+02 -0.37452999609E+02  0.47787270584E+02  0.19999997899E+02 0.  0.
        -12    1    1    2    0    0 -0.16813287005E+02 -0.14078690077E+02  0.37452999609E+02  0.43400729416E+02  0.00000000000E+00 0.  1.
         11    1    3    3    0    0  0.15234774736E+02  0.16927923776E+02 -0.27345224951E+02  0.35586715113E+02  0.51100000000E-03 0. -1.
        -11    1    3    3    0    0  0.12324988240E+01  0.17432548298E+01 -0.41828851604E+01  0.46962239384E+01  0.51100000000E-03 0.  1.
         12    1    3    3    0    0  0.34601344505E+00 -0.45924885295E+01 -0.59248894971E+01  0.75043315325E+01  0.00000000000E+00 0. -1.
</event>
<event>
 7    1  0.4675811E-010  0.4778727E+02  0.7816164E-02  0.1312668E+00
        -11   -1    0    0    0    0  0.00000000000E+00  0.00000000000E+00  0.45593999997E+02  0.45594000000E+02  0.51100000000E-03 0.  1.
         11   -1    0    0    0    0 -0.00000000000E+00 -0.00000000000E+00 -0.45593999997E+02  0.45594000000E+02  0.51100000000E-03 0. -1.
    9900012    2    1    2    0    0 -0.19554033039E+02 -0.15628194934E+02 -0.35454513749E+02  0.47787271548E+02  0.20000002294E+02 0.  0.
        -12    1    1    2    0    0  0.19554033039E+02  0.15628194934E+02  0.35454513749E+02  0.43400728452E+02  0.00000000000E+00 0.  1.
         11    1    3    3    0    0 -0.34922291091E+01 -0.58790853461E+01  0.23203496424E+00  0.68420135299E+01  0.51100000000E-03 0. -1.
        -11    1    3    3    0    0  0.21384545360E+00 -0.86095988377E+00 -0.50962801144E+01  0.51729153351E+01  0.51100000000E-03 0.  1.
         12    1    3    3    0    0 -0.16275649384E+02 -0.88881497041E+01 -0.30590268599E+02  0.35772342683E+02  0.00000000000E+00 0. -1.
</event>
<event>
 7    1  0.4675811E-010  0.4778727E+02  0.7816164E-02  0.1312668E+00
        -11   -1    0    0    0    0  0.00000000000E+00  0.00000000000E+00  0.45593999997E+02  0.45594000000E+02  0.51100000000E-03 0.  1.
         11   -1    0    0    0    0 -0.00000000000E+00 -0.00000000000E+00 -0.45593999997E+02  0.45594000000E+02  0.51100000000E-03 0. -1.
    9900012    2    1    2    0    0  0.32563092378E+02  0.53606200078E+01 -0.28187441836E+02  0.47787272940E+02  0.20000008644E+02 0.  0.
        -12    1    1    2    0    0 -0.32563092378E+02 -0.53606200078E+01  0.28187441836E+02  0.43400727060E+02  0.00000000000E+00 0.  1.
         11    1    3    3    0    0  0.67568054897E+01 -0.14289442179E+01 -0.11923390439E+01  0.70084216954E+01  0.51100000000E-03 0. -1.
        -11    1    3    3    0    0  0.19452394522E+01 -0.45162856820E+00  0.17993919576E+01  0.26880730214E+01  0.51100000000E-03 0.  1.
        -12    1    3    3    0    0  0.23861047436E+02  0.72411927939E+01 -0.28794494749E+02  0.38090778224E+02  0.00000000000E+00 0.  1.
</event>
<event>
 7    1  0.4675811E-010  0.4778726E+02  0.7816164E-02  0.1312668E+00
        -11   -1    0    0    0    0  0.00000000000E+00  0.00000000000E+00  0.45593999997E+02  0.45594000000E+02  0.51100000000E-03 0. -1.
         11   -1    0    0    0    0 -0.00000000000E+00 -0.00000000000E+00 -0.45593999997E+02  0.45594000000E+02  0.51100000000E-03 0.  1.
    9900012    2    1    2    0    0  0.17703358998E+01 -0.26198539330E+02  0.34556139382E+02  0.47787258978E+02  0.19999944986E+02 0.  0.
        -12    1    1    2    0    0 -0.17703358998E+01  0.26198539330E+02 -0.34556139382E+02  0.43400741022E+02  0.00000000000E+00 0.  1.
         11    1    3    3    0    0  0.22113247039E+00 -0.21805463398E+02  0.16550513923E+02  0.27376023177E+02  0.51100000000E-03 0.  1.
        -11    1    3    3    0    0 -0.62245142127E+00 -0.64493383879E+01  0.13857135288E+02  0.15297111168E+02  0.51100000000E-03 0. -1.
        -12    1    3    3    0    0  0.21716548507E+01  0.20562624560E+01  0.41484901705E+01  0.51141246341E+01  0.00000000000E+00 0.  1.
</event>
<event>
 7    1  0.4675811E-010  0.4778727E+02  0.7816164E-02  0.1312668E+00
        -11   -1    0    0    0    0  0.00000000000E+00  0.00000000000E+00  0.45593999997E+02  0.45594000000E+02  0.51100000000E-03 0.  1.
         11   -1    0    0    0    0 -0.00000000000E+00 -0.00000000000E+00 -0.45593999997E+02  0.45594000000E+02  0.51100000000E-03 0. -1.
    9900012    2    1    2    0    0  0.22334334034E+02  0.19330360076E+02 -0.31798402710E+02  0.47787265993E+02  0.19999976969E+02 0.  0.
        -12    1    1    2    0    0 -0.22334334034E+02 -0.19330360076E+02  0.31798402710E+02  0.43400734007E+02  0.00000000000E+00 0.  1.
         11    1    3    3    0    0  0.36011829572E+01  0.11631017380E+02 -0.67960661428E+01  0.13944016611E+02  0.51100000000E-03 0. -1.
        -11    1    3    3    0    0  0.92908120423E+01  0.39160055908E+01 -0.46764202282E+01  0.11114098911E+02  0.51100000000E-03 0.  1.
        -12    1    3    3    0    0  0.94423390344E+01  0.37833371058E+01 -0.20325916339E+02  0.22729150471E+02  0.00000000000E+00 0.  1.
</event>
<event>
 7    1  0.4675811E-010  0.4778727E+02  0.7816164E-02  0.1312668E+00
        -11   -1    0    0    0    0  0.00000000000E+00  0.00000000000E+00  0.45593999997E+02  0.45594000000E+02  0.51100000000E-03 0.  1.
         11   -1    0    0    0    0 -0.00000000000E+00 -0.00000000000E+00 -0.45593999997E+02  0.45594000000E+02  0.51100000000E-03 0. -1.
    9900012    2    1    2    0    0 -0.99536606636E+01  0.31930547728E+02 -0.27658417862E+02  0.47787270542E+02  0.19999997710E+02 0.  0.
        -12    1    1    2    0    0  0.99536606636E+01 -0.31930547728E+02  0.27658417862E+02  0.43400729458E+02  0.00000000000E+00 0.  1.
         11    1    3    3    0    0 -0.27905900554E+01  0.59125214802E+01 -0.87448042821E+01  0.10918649427E+02  0.51100000000E-03 0. -1.
        -11    1    3    3    0    0  0.45024146261E+01  0.14555903033E+02 -0.80187444852E+01  0.17217616384E+02  0.51100000000E-03 0.  1.
        -12    1    3    3    0    0 -0.11665485234E+02  0.11462123215E+02 -0.10894869095E+02  0.19651004731E+02  0.00000000000E+00 0.  1.
</event>
<event>
 7    1  0.4675811E-010  0.4778727E+02  0.7816164E-02  0.1312668E+00
        -11   -1    0    0    0    0  0.00000000000E+00  0.00000000000E+00  0.45593999997E+02  0.45594000000E+02  0.51100000000E-03 0. -1.
         11   -1    0    0    0    0 -0.00000000000E+00 -0.00000000000E+00 -0.45593999997E+02  0.45594000000E+02  0.51100000000E-03 0.  1.
    9900012    2    1    2    0    0  0.54138732648E+01 -0.42063955921E+02  0.92161470089E+01  0.47787265247E+02  0.19999973567E+02 0.  0.
        -12    1    1    2    0    0 -0.54138732648E+01  0.42063955921E+02 -0.92161470089E+01  0.43400734753E+02  0.00000000000E+00 0.  1.
         11    1    3    3    0    0 -0.22856762796E+01 -0.18300822282E+02  0.54419868574E+01  0.19229135016E+02  0.51100000000E-03 0. -1.
        -11    1    3    3    0    0 -0.16192631668E+01 -0.63630739961E+00  0.31712254508E+01  0.36171219817E+01  0.51100000000E-03 0.  1.
        -12    1    3    3    0    0  0.93188127112E+01 -0.23126826239E+02  0.60293470080E+00  0.24941008250E+02  0.00000000000E+00 0.  1.
</event>
<event>
 7    1  0.4675811E-010  0.4778727E+02  0.7816164E-02  0.1312668E+00
        -11   -1    0    0    0    0  0.00000000000E+00  0.00000000000E+00  0.45593999997E+02  0.45594000000E+02  0.51100000000E-03 0.  1.
         11   -1    0    0    0    0 -0.00000000000E+00 -0.00000000000E+00 -0.45593999997E+02  0.45594000000E+02  0.51100000000E-03 0. -1.
    9900012    2    1    2    0    0  0.25205337679E+01 -0.95201588859E+01 -0.42268628238E+02  0.47787269029E+02  0.19999990812E+02 0.  0.
        -12    1    1    2    0    0 -0.25205337679E+01  0.95201588859E+01  0.42268628238E+02  0.43400730971E+02  0.00000000000E+00 0.  1.
         11    1    3    3    0    0  0.21763585109E+01 -0.73272025555E+01 -0.14902595088E+02  0.16748485731E+02  0.51100000000E-03 0. -1.
        -11    1    3    3    0    0  0.25787312761E+01 -0.71337674322E+01 -0.84245482833E+01  0.11336379793E+02  0.51100000000E-03 0.  1.
        -12    1    3    3    0    0 -0.22345560192E+01  0.49408111017E+01 -0.18941484866E+02  0.19702403505E+02  0.00000000000E+00 0.  1.
</event>
<event>
 7    1  0.4675811E-010  0.4778727E+02  0.7816164E-02  0.1312668E+00
        -11   -1    0    0    0    0  0.00000000000E+00  0.00000000000E+00  0.45593999997E+02  0.45594000000E+02  0.51100000000E-03 0. -1.
         11   -1    0    0    0    0 -0.00000000000E+00 -0.00000000000E+00 -0.45593999997E+02  0.45594000000E+02  0.51100000000E-03 0.  1.
    9900012    2    1    2    0    0 -0.32934793557E+02  0.23022204747E+02  0.16398199011E+02  0.47787268798E+02  0.19999989758E+02 0.  0.
        -12    1    1    2    0    0  0.32934793557E+02 -0.23022204747E+02 -0.16398199011E+02  0.43400731202E+02  0.00000000000E+00 0.  1.
         11    1    3    3    0    0 -0.13456489723E+02  0.70042392833E+01  0.15844984127E+02  0.21936271467E+02  0.51100000000E-03 0. -1.
        -11    1    3    3    0    0 -0.15160573589E+01 -0.18772702190E+00 -0.57537501426E+00  0.16323994665E+01  0.51100000000E-03 0.  1.
         12    1    3    3    0    0 -0.17962246476E+02  0.16205692485E+02  0.11285898974E+01  0.24218597865E+02  0.00000000000E+00 0. -1.
</event>
<event>
 7    1  0.4675811E-010  0.4778726E+02  0.7816164E-02  0.1312668E+00
        -11   -1    0    0    0    0  0.00000000000E+00  0.00000000000E+00  0.45593999997E+02  0.45594000000E+02  0.51100000000E-03 0.  1.
         11   -1    0    0    0    0 -0.00000000000E+00 -0.00000000000E+00 -0.45593999997E+02  0.45594000000E+02  0.51100000000E-03 0. -1.
    9900012    2    1    2    0    0  0.13555672576E+02 -0.32719738133E+02 -0.25085581508E+02  0.47787263577E+02  0.19999965953E+02 0.  0.
        -12    1    1    2    0    0 -0.13555672576E+02  0.32719738133E+02  0.25085581508E+02  0.43400736423E+02  0.00000000000E+00 0.  1.
         11    1    3    3    0    0  0.67595275564E+01 -0.16782653047E+02 -0.57379839007E+01  0.18980861824E+02  0.51100000000E-03 0. -1.
        -11    1    3    3    0    0  0.34536176722E+01 -0.45849020926E+01  0.43266041451E+00  0.57563875408E+01  0.51100000000E-03 0.  1.
         12    1    3    3    0    0  0.33425273473E+01 -0.11352182994E+02 -0.19780258022E+02  0.23050014212E+02  0.00000000000E+00 0. -1.
</event>
<event>
 7    1  0.4675811E-010  0.4778726E+02  0.7816164E-02  0.1312668E+00
        -11   -1    0    0    0    0  0.00000000000E+00  0.00000000000E+00  0.45593999997E+02  0.45594000000E+02  0.51100000000E-03 0.  1.
         11   -1    0    0    0    0 -0.00000000000E+00 -0.00000000000E+00 -0.45593999997E+02  0.45594000000E+02  0.51100000000E-03 0. -1.
    9900012    2    1    2    0    0 -0.19314801469E+00  0.15446577654E+02 -0.40558473500E+02  0.47787264521E+02  0.19999970259E+02 0.  0.
        -12    1    1    2    0    0  0.19314801469E+00 -0.15446577654E+02  0.40558473500E+02  0.43400735479E+02  0.00000000000E+00 0.  1.
         11    1    3    3    0    0 -0.58458801882E+01  0.58188532856E+01 -0.92120693343E+01  0.12365095649E+02  0.51100000000E-03 0. -1.
        -11    1    3    3    0    0 -0.19037857771E-01  0.31478849238E+01 -0.25276294652E+00  0.31580739861E+01  0.51100000000E-03 0.  1.
        -12    1    3    3    0    0  0.56717700313E+01  0.64798394449E+01 -0.31093641220E+02  0.32264094886E+02  0.00000000000E+00 0.  1.
</event>
<event>
 7    1  0.4675811E-010  0.4778727E+02  0.7816164E-02  0.1312668E+00
        -11   -1    0    0    0    0  0.00000000000E+00  0.00000000000E+00  0.45593999997E+02  0.45594000000E+02  0.51100000000E-03 0.  1.
         11   -1    0    0    0    0 -0.00000000000E+00 -0.00000000000E+00 -0.45593999997E+02  0.45594000000E+02  0.51100000000E-03 0. -1.
    9900012    2    1    2    0    0 -0.75744918227E+01 -0.13378555250E+02 -0.40586511738E+02  0.47787267264E+02  0.19999982765E+02 0.  0.
        -12    1    1    2    0    0  0.75744918227E+01  0.13378555250E+02  0.40586511738E+02  0.43400732736E+02  0.00000000000E+00 0.  1.
         11    1    3    3    0    0 -0.69295422045E+01 -0.73970888633E+01 -0.12650362253E+02  0.16210093899E+02  0.51100000000E-03 0. -1.
        -11    1    3    3    0    0 -0.50958772891E+01  0.20819006662E+01 -0.10040248007E+02  0.11450277553E+02  0.51100000000E-03 0.  1.
        -12    1    3    3    0    0  0.44509276708E+01 -0.80633670529E+01 -0.17895901478E+02  0.20126895813E+02  0.00000000000E+00 0.  1.
</event>
<event>
 7    1  0.4675811E-010  0.4778727E+02  0.7816164E-02  0.1312668E+00
        -11   -1    0    0    0    0  0.00000000000E+00  0.00000000000E+00  0.45593999997E+02  0.45594000000E+02  0.51100000000E-03 0.  1.
         11   -1    0    0    0    0 -0.00000000000E+00 -0.00000000000E+00 -0.45593999997E+02  0.45594000000E+02  0.51100000000E-03 0. -1.
    9900012    2    1    2    0    0 -0.65552659737E+01 -0.16691511853E+02 -0.39522713264E+02  0.47787274849E+02  0.20000017345E+02 0.  0.
        -12    1    1    2    0    0  0.65552659737E+01  0.16691511853E+02  0.39522713264E+02  0.43400725151E+02  0.00000000000E+00 0.  1.
         11    1    3    3    0    0  0.43272404052E+00 -0.11939042487E+02 -0.20926128252E+02  0.24096282483E+02  0.51100000000E-03 0.  1.
        -11    1    3    3    0    0 -0.77784913035E+01 -0.62344908222E+01 -0.19413404814E+02  0.21823246539E+02  0.51100000000E-03 0. -1.
        -12    1    3    3    0    0  0.79050128930E+00  0.14820214561E+01  0.81681980212E+00  0.18677458269E+01  0.00000000000E+00 0.  1.
</event>
<event>
 7    1  0.4675811E-010  0.4778727E+02  0.7816164E-02  0.1312668E+00
        -11   -1    0    0    0    0  0.00000000000E+00  0.00000000000E+00  0.45593999997E+02  0.45594000000E+02  0.51100000000E-03 0.  1.
         11   -1    0    0    0    0 -0.00000000000E+00 -0.00000000000E+00 -0.45593999997E+02  0.45594000000E+02  0.51100000000E-03 0. -1.
    9900012    2    1    2    0    0  0.26975428272E+02  0.18976213928E+02 -0.28210867574E+02  0.47787268730E+02  0.19999989446E+02 0.  0.
        -12    1    1    2    0    0 -0.26975428272E+02 -0.18976213928E+02  0.28210867574E+02  0.43400731270E+02  0.00000000000E+00 0.  1.
         11    1    3    3    0    0  0.19202173788E+02  0.16452748080E+02 -0.99253106076E+01  0.27164833673E+02  0.51100000000E-03 0. -1.
        -11    1    3    3    0    0  0.90447548211E+00  0.14563003080E+01 -0.81753310801E+01  0.83531386326E+01  0.51100000000E-03 0.  1.
        -12    1    3    3    0    0  0.68687790021E+01  0.10671655403E+01 -0.10110225886E+02  0.12269296424E+02  0.00000000000E+00 0.  1.
</event>
<event>
 7    1  0.4675811E-010  0.4778727E+02  0.7816164E-02  0.1312668E+00
        -11   -1    0    0    0    0  0.00000000000E+00  0.00000000000E+00  0.45593999997E+02  0.45594000000E+02  0.51100000000E-03 0.  1.
         11   -1    0    0    0    0 -0.00000000000E+00 -0.00000000000E+00 -0.45593999997E+02  0.45594000000E+02  0.51100000000E-03 0. -1.
    9900012    2    1    2    0    0 -0.36165386042E+02  0.23063393564E+02  0.66157336943E+01  0.47787271866E+02  0.20000003745E+02 0.  0.
        -12    1    1    2    0    0  0.36165386042E+02 -0.23063393564E+02 -0.66157336943E+01  0.43400728134E+02  0.00000000000E+00 0.  1.
         11    1    3    3    0    0 -0.15446273458E+02  0.13906249300E+02  0.82943188593E+01  0.22377820692E+02  0.51100000000E-03 0. -1.
        -11    1    3    3    0    0 -0.80367368554E+00  0.25352498404E+01  0.28931113684E+01  0.39298189268E+01  0.51100000000E-03 0.  1.
        -12    1    3    3    0    0 -0.19915438898E+02  0.66218944239E+01 -0.45716965334E+01  0.21479632247E+02  0.00000000000E+00 0.  1.
</event>
<event>
 7    1  0.4675811E-010  0.4778727E+02  0.7816164E-02  0.1312668E+00
        -11   -1    0    0    0    0  0.00000000000E+00  0.00000000000E+00  0.45593999997E+02  0.45594000000E+02  0.51100000000E-03 0. -1.
         11   -1    0    0    0    0 -0.00000000000E+00 -0.00000000000E+00 -0.45593999997E+02  0.45594000000E+02  0.51100000000E-03 0.  1.
    9900012    2    1    2    0    0 -0.22356036399E+02 -0.17136857373E+02  0.33017558768E+02  0.47787269233E+02  0.19999991743E+02 0.  0.
        -12    1    1    2    0    0  0.22356036399E+02  0.17136857373E+02 -0.33017558768E+02  0.43400730767E+02  0.00000000000E+00 0.  1.
         11    1    3    3    0    0 -0.11237402263E+02 -0.64865546161E+01  0.71468323529E+01  0.14813231024E+02  0.51100000000E-03 0. -1.
        -11    1    3    3    0    0  0.28964231161E+01 -0.29818488054E+01  0.32303356498E+01  0.52645757509E+01  0.51100000000E-03 0.  1.
         12    1    3    3    0    0 -0.14015057252E+02 -0.76684539516E+01  0.22640390765E+02  0.27709462459E+02  0.00000000000E+00 0. -1.
</event>
<event>
 7    1  0.4675811E-010  0.4778727E+02  0.7816164E-02  0.1312668E+00
        -11   -1    0    0    0    0  0.00000000000E+00  0.00000000000E+00  0.45593999997E+02  0.45594000000E+02  0.51100000000E-03 0.  1.
         11   -1    0    0    0    0 -0.00000000000E+00 -0.00000000000E+00 -0.45593999997E+02  0.45594000000E+02  0.51100000000E-03 0. -1.
    9900012    2    1    2    0    0  0.67633420950E+01  0.23672352788E+02 -0.35742130994E+02  0.47787274075E+02  0.20000013817E+02 0.  0.
        -12    1    1    2    0    0 -0.67633420950E+01 -0.23672352788E+02  0.35742130994E+02  0.43400725925E+02  0.00000000000E+00 0.  1.
         11    1    3    3    0    0  0.67329090152E+01  0.14820323777E+02 -0.28737445544E+02  0.33027486089E+02  0.51100000000E-03 0. -1.
        -11    1    3    3    0    0  0.32071923085E+01 -0.30964028916E+00 -0.24432695546E+01  0.40437020155E+01  0.51100000000E-03 0.  1.
        -12    1    3    3    0    0 -0.31767592287E+01  0.91616692999E+01 -0.45614158953E+01  0.10716085971E+02  0.00000000000E+00 0.  1.
</event>
<event>
 7    1  0.4675811E-010  0.4778727E+02  0.7816164E-02  0.1312668E+00
        -11   -1    0    0    0    0  0.00000000000E+00  0.00000000000E+00  0.45593999997E+02  0.45594000000E+02  0.51100000000E-03 0.  1.
         11   -1    0    0    0    0 -0.00000000000E+00 -0.00000000000E+00 -0.45593999997E+02  0.45594000000E+02  0.51100000000E-03 0. -1.
    9900012    2    1    2    0    0  0.11329260613E+01 -0.15244003835E+02 -0.40619699926E+02  0.47787271937E+02  0.20000004068E+02 0.  0.
        -12    1    1    2    0    0 -0.11329260613E+01  0.15244003835E+02  0.40619699926E+02  0.43400728063E+02  0.00000000000E+00 0.  1.
         11    1    3    3    0    0  0.22270964054E+01 -0.24284251302E+01 -0.11759777369E+00  0.32971254919E+01  0.51100000000E-03 0. -1.
        -11    1    3    3    0    0  0.11094737062E+01 -0.80916864595E+01 -0.75310536198E+01  0.11109594527E+02  0.51100000000E-03 0.  1.
        -12    1    3    3    0    0 -0.22036440503E+01 -0.47238922453E+01 -0.32971048532E+02  0.33380551918E+02  0.00000000000E+00 0.  1.
</event>
<event>
 7    1  0.4675811E-010  0.4778727E+02  0.7816164E-02  0.1312668E+00
        -11   -1    0    0    0    0  0.00000000000E+00  0.00000000000E+00  0.45593999997E+02  0.45594000000E+02  0.51100000000E-03 0. -1.
         11   -1    0    0    0    0 -0.00000000000E+00 -0.00000000000E+00 -0.45593999997E+02  0.45594000000E+02  0.51100000000E-03 0.  1.
    9900012    2    1    2    0    0  0.79782772623E+01  0.18531844151E+02  0.38425785223E+02  0.47787272751E+02  0.20000007783E+02 0.  0.
        -12    1    1    2    0    0 -0.79782772623E+01 -0.18531844151E+02 -0.38425785223E+02  0.43400727249E+02  0.00000000000E+00 0.  1.
         11    1    3    3    0    0  0.32018174710E+01  0.10104375304E+02  0.65212085351E+01  0.12444926533E+02  0.51100000000E-03 0. -1.
        -11    1    3    3    0    0  0.11742575228E+01  0.48298128967E+01  0.26204332921E+01  0.56189540171E+01  0.51100000000E-03 0.  1.
        -12    1    3    3    0    0  0.36022022686E+01  0.35976559506E+01  0.29284143396E+02  0.29723392201E+02  0.00000000000E+00 0.  1.
</event>
<event>
 7    1  0.4675811E-010  0.4778727E+02  0.7816164E-02  0.1312668E+00
        -11   -1    0    0    0    0  0.00000000000E+00  0.00000000000E+00  0.45593999997E+02  0.45594000000E+02  0.51100000000E-03 0.  1.
         11   -1    0    0    0    0 -0.00000000000E+00 -0.00000000000E+00 -0.45593999997E+02  0.45594000000E+02  0.51100000000E-03 0. -1.
    9900012    2    1    2    0    0  0.27357844833E+02 -0.13104845875E+02 -0.31039243288E+02  0.47787270937E+02  0.19999999510E+02 0.  0.
        -12    1    1    2    0    0 -0.27357844833E+02  0.13104845875E+02  0.31039243288E+02  0.43400729063E+02  0.00000000000E+00 0.  1.
         11    1    3    3    0    0  0.30476527323E+01  0.19423085290E+01 -0.75285526396E+01  0.83510391394E+01  0.51100000000E-03 0. -1.
        -11    1    3    3    0    0  0.62142226442E+01 -0.31523118806E+01  0.64133272504E+00  0.69974953512E+01  0.51100000000E-03 0.  1.
         12    1    3    3    0    0  0.18095969457E+02 -0.11894842523E+02 -0.24152023373E+02  0.32438736447E+02  0.00000000000E+00 0. -1.
</event>
<event>
 7    1  0.4675811E-010  0.4778727E+02  0.7816164E-02  0.1312668E+00
        -11   -1    0    0    0    0  0.00000000000E+00  0.00000000000E+00  0.45593999997E+02  0.45594000000E+02  0.51100000000E-03 0.  1.
         11   -1    0    0    0    0 -0.00000000000E+00 -0.00000000000E+00 -0.45593999997E+02  0.45594000000E+02  0.51100000000E-03 0. -1.
    9900012    2    1    2    0    0 -0.49701496723E+01 -0.87207658818E+01 -0.42224036520E+02  0.47787269529E+02  0.19999993092E+02 0.  0.
        -12    1    1    2    0    0  0.49701496723E+01  0.87207658818E+01  0.42224036520E+02  0.43400730471E+02  0.00000000000E+00 0.  1.
         11    1    3    3    0    0 -0.17662197418E+01  0.87953078911E+00 -0.43383980529E+01  0.47660050894E+01  0.51100000000E-03 0. -1.
        -11    1    3    3    0    0 -0.82734238504E+01 -0.76795922480E+00 -0.26372380950E+02  0.27650348656E+02  0.51100000000E-03 0.  1.
         12    1    3    3    0    0  0.50694939200E+01 -0.88323374461E+01 -0.11513257517E+02  0.15370915784E+02  0.00000000000E+00 0. -1.
</event>
<event>
 7    1  0.4675811E-010  0.4778727E+02  0.7816164E-02  0.1312668E+00
        -11   -1    0    0    0    0  0.00000000000E+00  0.00000000000E+00  0.45593999997E+02  0.45594000000E+02  0.51100000000E-03 0.  1.
         11   -1    0    0    0    0 -0.00000000000E+00 -0.00000000000E+00 -0.45593999997E+02  0.45594000000E+02  0.51100000000E-03 0. -1.
    9900012    2    1    2    0    0  0.30853550502E+02 -0.95361446658E+01  0.28995585610E+02  0.47787267074E+02  0.19999981896E+02 0.  0.
        -12    1    1    2    0    0 -0.30853550502E+02  0.95361446658E+01 -0.28995585610E+02  0.43400732926E+02  0.00000000000E+00 0.  1.
         11    1    3    3    0    0  0.96703884395E+01  0.13625988210E+01  0.81332767662E+01  0.12709180907E+02  0.51100000000E-03 0. -1.
        -11    1    3    3    0    0  0.12547947170E+02  0.67582886197E+00  0.47307961958E+01  0.13427142501E+02  0.51100000000E-03 0.  1.
         12    1    3    3    0    0  0.86352148925E+01 -0.11574572349E+02  0.16131512648E+02  0.21650943666E+02  0.00000000000E+00 0. -1.
</event>
<event>
 7    1  0.4675811E-010  0.4778726E+02  0.7816164E-02  0.1312668E+00
        -11   -1    0    0    0    0  0.00000000000E+00  0.00000000000E+00  0.45593999997E+02  0.45594000000E+02  0.51100000000E-03 0.  1.
         11   -1    0    0    0    0 -0.00000000000E+00 -0.00000000000E+00 -0.45593999997E+02  0.45594000000E+02  0.51100000000E-03 0. -1.
    9900012    2    1    2    0    0  0.25234316011E+01 -0.38072085196E+02 -0.20682663891E+02  0.47787263096E+02  0.19999963759E+02 0.  0.
        -12    1    1    2    0    0 -0.25234316011E+01  0.38072085196E+02  0.20682663891E+02  0.43400736904E+02  0.00000000000E+00 0.  1.
         11    1    3    3    0    0 -0.82137162102E+00 -0.28178791822E+02 -0.10409974380E+02  0.30051398083E+02  0.51100000000E-03 0. -1.
        -11    1    3    3    0    0  0.55208331611E+01 -0.10188000207E+02 -0.10352334141E+02  0.15538525331E+02  0.51100000000E-03 0.  1.
        -12    1    3    3    0    0 -0.21760299390E+01  0.29470683320E+00  0.79644630493E-01  0.21973396824E+01  0.00000000000E+00 0.  1.
</event>
<event>
 7    1  0.4675811E-010  0.4778728E+02  0.7816164E-02  0.1312668E+00
        -11   -1    0    0    0    0  0.00000000000E+00  0.00000000000E+00  0.45593999997E+02  0.45594000000E+02  0.51100000000E-03 0. -1.
         11   -1    0    0    0    0 -0.00000000000E+00 -0.00000000000E+00 -0.45593999997E+02  0.45594000000E+02  0.51100000000E-03 0.  1.
    9900012    2    1    2    0    0 -0.80476303438E+01  0.32022475771E+02  0.28167704262E+02  0.47787275673E+02  0.20000021105E+02 0.  0.
        -12    1    1    2    0    0  0.80476303438E+01 -0.32022475771E+02 -0.28167704262E+02  0.43400724327E+02  0.00000000000E+00 0.  1.
         11    1    3    3    0    0 -0.66883258704E+01  0.16661953496E+02  0.18138468043E+02  0.25521724481E+02  0.51100000000E-03 0. -1.
        -11    1    3    3    0    0 -0.67822737012E+01  0.60086545367E+01  0.48744877439E+01  0.10289013409E+02  0.51100000000E-03 0.  1.
        -12    1    3    3    0    0  0.54229692277E+01  0.93518677381E+01  0.51547484752E+01  0.11976537783E+02  0.00000000000E+00 0.  1.
</event>
<event>
 7    1  0.4675811E-010  0.4778727E+02  0.7816164E-02  0.1312668E+00
        -11   -1    0    0    0    0  0.00000000000E+00  0.00000000000E+00  0.45593999997E+02  0.45594000000E+02  0.51100000000E-03 0.  1.
         11   -1    0    0    0    0 -0.00000000000E+00 -0.00000000000E+00 -0.45593999997E+02  0.45594000000E+02  0.51100000000E-03 0. -1.
    9900012    2    1    2    0    0  0.31878844562E+02 -0.76256237099E+01 -0.28446662245E+02  0.47787268895E+02  0.19999990201E+02 0.  0.
        -12    1    1    2    0    0 -0.31878844562E+02  0.76256237099E+01  0.28446662245E+02  0.43400731105E+02  0.00000000000E+00 0.  1.
         11    1    3    3    0    0  0.11671308075E+02 -0.45520484634E+01 -0.11435952932E+02  0.16962358242E+02  0.51100000000E-03 0. -1.
        -11    1    3    3    0    0  0.17013421291E+02 -0.87912992586E+01 -0.12376535970E+02  0.22801800139E+02  0.51100000000E-03 0.  1.
        -12    1    3    3    0    0  0.31941151955E+01  0.57177240120E+01 -0.46341733429E+01  0.80231105148E+01  0.00000000000E+00 0.  1.
</event>
<event>
 7    1  0.4675811E-010  0.4778727E+02  0.7816164E-02  0.1312668E+00
        -11   -1    0    0    0    0  0.00000000000E+00  0.00000000000E+00  0.45593999997E+02  0.45594000000E+02  0.51100000000E-03 0.  1.
         11   -1    0    0    0    0 -0.00000000000E+00 -0.00000000000E+00 -0.45593999997E+02  0.45594000000E+02  0.51100000000E-03 0. -1.
    9900012    2    1    2    0    0  0.26773938184E+02 -0.29098438949E+02 -0.17890227318E+02  0.47787272487E+02  0.20000006577E+02 0.  0.
        -12    1    1    2    0    0 -0.26773938184E+02  0.29098438949E+02  0.17890227318E+02  0.43400727513E+02  0.00000000000E+00 0.  1.
         11    1    3    3    0    0  0.12597609227E+02 -0.20249575114E+02 -0.81736192131E+01  0.25210178537E+02  0.51100000000E-03 0. -1.
        -11    1    3    3    0    0  0.11101750454E+02 -0.10852794216E+02 -0.44361861270E+01  0.16146570938E+02  0.51100000000E-03 0.  1.
        -12    1    3    3    0    0  0.30745785033E+01  0.20039303814E+01 -0.52804219784E+01  0.64305230127E+01  0.00000000000E+00 0.  1.
</event>
<event>
 7    1  0.4675811E-010  0.4778727E+02  0.7816164E-02  0.1312668E+00
        -11   -1    0    0    0    0  0.00000000000E+00  0.00000000000E+00  0.45593999997E+02  0.45594000000E+02  0.51100000000E-03 0.  1.
         11   -1    0    0    0    0 -0.00000000000E+00 -0.00000000000E+00 -0.45593999997E+02  0.45594000000E+02  0.51100000000E-03 0. -1.
    9900012    2    1    2    0    0  0.11702428364E+02  0.20140448879E+02 -0.36620193039E+02  0.47787273636E+02  0.20000011816E+02 0.  0.
        -12    1    1    2    0    0 -0.11702428364E+02 -0.20140448879E+02  0.36620193039E+02  0.43400726364E+02  0.00000000000E+00 0.  1.
         11    1    3    3    0    0  0.13906479397E+01  0.24331348357E+01  0.63688033013E+00  0.28739630542E+01  0.51100000000E-03 0. -1.
        -11    1    3    3    0    0  0.51426792425E+01 -0.49079970676E+00 -0.35761302306E+01  0.62830519519E+01  0.51100000000E-03 0.  1.
         12    1    3    3    0    0  0.51691011821E+01  0.18198113750E+02 -0.33680943139E+02  0.38630258630E+02  0.00000000000E+00 0. -1.
</event>
<event>
 7    1  0.4675811E-010  0.4778727E+02  0.7816164E-02  0.1312668E+00
        -11   -1    0    0    0    0  0.00000000000E+00  0.00000000000E+00  0.45593999997E+02  0.45594000000E+02  0.51100000000E-03 0. -1.
         11   -1    0    0    0    0 -0.00000000000E+00 -0.00000000000E+00 -0.45593999997E+02  0.45594000000E+02  0.51100000000E-03 0.  1.
    9900012    2    1    2    0    0 -0.11496190840E+02  0.41847262958E+02  0.51709430025E+00  0.47787271810E+02  0.20000003493E+02 0.  0.
        -12    1    1    2    0    0  0.11496190840E+02 -0.41847262958E+02 -0.51709430025E+00  0.43400728190E+02  0.00000000000E+00 0.  1.
         11    1    3    3    0    0 -0.12734372304E+02  0.40229566692E+02  0.44659253140E+01  0.42432614383E+02  0.51100000000E-03 0. -1.
        -11    1    3    3    0    0 -0.78909485196E+00  0.13284283756E+01 -0.13995312033E+01  0.20847255178E+01  0.51100000000E-03 0.  1.
        -12    1    3    3    0    0  0.20272763159E+01  0.28926789039E+00 -0.25492998105E+01  0.32699319101E+01  0.00000000000E+00 0.  1.
</event>
<event>
 7    1  0.4675811E-010  0.4778727E+02  0.7816164E-02  0.1312668E+00
        -11   -1    0    0    0    0  0.00000000000E+00  0.00000000000E+00  0.45593999997E+02  0.45594000000E+02  0.51100000000E-03 0.  1.
         11   -1    0    0    0    0 -0.00000000000E+00 -0.00000000000E+00 -0.45593999997E+02  0.45594000000E+02  0.51100000000E-03 0. -1.
    9900012    2    1    2    0    0 -0.19808243696E+02  0.25450651100E+02 -0.29043431712E+02  0.47787273216E+02  0.20000009901E+02 0.  0.
        -12    1    1    2    0    0  0.19808243696E+02 -0.25450651100E+02  0.29043431712E+02  0.43400726784E+02  0.00000000000E+00 0.  1.
         11    1    3    3    0    0 -0.13444479505E+02  0.11653785838E+02 -0.15810186268E+02  0.23801822275E+02  0.51100000000E-03 0. -1.
        -11    1    3    3    0    0 -0.54385643113E+01  0.17178344248E+00 -0.76760154172E+00  0.54951527465E+01  0.51100000000E-03 0.  1.
         12    1    3    3    0    0 -0.92519987969E+00  0.13625081820E+02 -0.12465643902E+02  0.18490298195E+02  0.00000000000E+00 0. -1.
</event>
<event>
 7    1  0.4675811E-010  0.4778727E+02  0.7816164E-02  0.1312668E+00
        -11   -1    0    0    0    0  0.00000000000E+00  0.00000000000E+00  0.45593999997E+02  0.45594000000E+02  0.51100000000E-03 0.  1.
         11   -1    0    0    0    0 -0.00000000000E+00 -0.00000000000E+00 -0.45593999997E+02  0.45594000000E+02  0.51100000000E-03 0. -1.
    9900012    2    1    2    0    0  0.88915812225E+01  0.29419533609E+02 -0.30643991143E+02  0.47787269965E+02  0.19999995079E+02 0.  0.
        -12    1    1    2    0    0 -0.88915812225E+01 -0.29419533609E+02  0.30643991143E+02  0.43400730035E+02  0.00000000000E+00 0.  1.
         11    1    3    3    0    0  0.48899890620E+01  0.11643236583E+02 -0.17730257500E+02  0.21767842852E+02  0.51100000000E-03 0. -1.
        -11    1    3    3    0    0 -0.33844910197E+01  0.55026323400E+01 -0.91638471558E+01  0.11212039827E+02  0.51100000000E-03 0.  1.
        -12    1    3    3    0    0  0.73860831802E+01  0.12273664686E+02 -0.37498864873E+01  0.14807387286E+02  0.00000000000E+00 0.  1.
</event>
<event>
 7    1  0.4675811E-010  0.4778727E+02  0.7816164E-02  0.1312668E+00
        -11   -1    0    0    0    0  0.00000000000E+00  0.00000000000E+00  0.45593999997E+02  0.45594000000E+02  0.51100000000E-03 0. -1.
         11   -1    0    0    0    0 -0.00000000000E+00 -0.00000000000E+00 -0.45593999997E+02  0.45594000000E+02  0.51100000000E-03 0.  1.
    9900012    2    1    2    0    0  0.37840560938E+02 -0.19467837529E+02 -0.85275147030E+01  0.47787271236E+02  0.20000000875E+02 0.  0.
        -12    1    1    2    0    0 -0.37840560938E+02  0.19467837529E+02  0.85275147030E+01  0.43400728764E+02  0.00000000000E+00 0.  1.
         11    1    3    3    0    0  0.10474322703E+02 -0.86404160520E+01  0.20500591227E+01  0.13732114488E+02  0.51100000000E-03 0. -1.
        -11    1    3    3    0    0  0.22088151444E+02 -0.13917057686E+02 -0.98192090202E+01  0.27892432574E+02  0.51100000000E-03 0.  1.
        -12    1    3    3    0    0  0.52780867911E+01  0.30896362083E+01 -0.75836480548E+00  0.61627241746E+01  0.00000000000E+00 0.  1.
</event>
<event>
 7    1  0.4675811E-010  0.4778728E+02  0.7816164E-02  0.1312668E+00
        -11   -1    0    0    0    0  0.00000000000E+00  0.00000000000E+00  0.45593999997E+02  0.45594000000E+02  0.51100000000E-03 0.  1.
         11   -1    0    0    0    0 -0.00000000000E+00 -0.00000000000E+00 -0.45593999997E+02  0.45594000000E+02  0.51100000000E-03 0. -1.
    9900012    2    1    2    0    0 -0.38604508659E+02  0.19796019967E+02  0.11968025688E+01  0.47787276139E+02  0.20000023226E+02 0.  0.
        -12    1    1    2    0    0  0.38604508659E+02 -0.19796019967E+02 -0.11968025688E+01  0.43400723861E+02  0.00000000000E+00 0.  1.
         11    1    3    3    0    0 -0.17778789594E+02  0.16473574311E+02  0.47772083018E+01  0.24703961816E+02  0.51100000000E-03 0. -1.
        -11    1    3    3    0    0 -0.33534866725E+00  0.18925099333E+01  0.79895643968E+00  0.20814380197E+01  0.51100000000E-03 0.  1.
        -12    1    3    3    0    0 -0.20490370397E+02  0.14299357230E+01 -0.43793621727E+01  0.21001876302E+02  0.00000000000E+00 0.  1.
</event>
<event>
 7    1  0.4675811E-010  0.4778730E+02  0.7816164E-02  0.1312668E+00
        -11   -1    0    0    0    0  0.00000000000E+00  0.00000000000E+00  0.45593999997E+02  0.45594000000E+02  0.51100000000E-03 0.  1.
         11   -1    0    0    0    0 -0.00000000000E+00 -0.00000000000E+00 -0.45593999997E+02  0.45594000000E+02  0.51100000000E-03 0. -1.
    9900012    2    1    2    0    0 -0.22173828189E+02  0.36028448281E+02  0.96898586795E+01  0.47787296051E+02  0.20000114012E+02 0.  0.
        -12    1    1    2    0    0  0.22173828189E+02 -0.36028448281E+02 -0.96898586795E+01  0.43400703949E+02  0.00000000000E+00 0.  1.
         11    1    3    3    0    0 -0.10397731348E+02  0.62112360441E+01 -0.12102938784E+01  0.12171979376E+02  0.51100000000E-03 0. -1.
        -11    1    3    3    0    0 -0.44082129701E+00  0.51548068260E+00 -0.16497016313E+01  0.17836926539E+01  0.51100000000E-03 0.  1.
         12    1    3    3    0    0 -0.11335275544E+02  0.29301731554E+02  0.12549854189E+02  0.33831624021E+02  0.00000000000E+00 0. -1.
</event>
<event>
 7    1  0.4675811E-010  0.4778727E+02  0.7816164E-02  0.1312668E+00
        -11   -1    0    0    0    0  0.00000000000E+00  0.00000000000E+00  0.45593999997E+02  0.45594000000E+02  0.51100000000E-03 0. -1.
         11   -1    0    0    0    0 -0.00000000000E+00 -0.00000000000E+00 -0.45593999997E+02  0.45594000000E+02  0.51100000000E-03 0.  1.
    9900012    2    1    2    0    0  0.36196955693E+02 -0.83320749814E+01  0.22449501603E+02  0.47787271928E+02  0.20000004029E+02 0.  0.
        -12    1    1    2    0    0 -0.36196955693E+02  0.83320749814E+01 -0.22449501603E+02  0.43400728072E+02  0.00000000000E+00 0.  1.
         11    1    3    3    0    0  0.16123999563E+02 -0.26330161157E+01  0.10056856835E+02  0.19184798812E+02  0.51100000000E-03 0. -1.
        -11    1    3    3    0    0  0.12597177818E+02  0.18324323653E+01  0.60826287219E+00  0.12744280338E+02  0.51100000000E-03 0.  1.
        -12    1    3    3    0    0  0.74757783120E+01 -0.75314912310E+01  0.11784381896E+02  0.15858192778E+02  0.00000000000E+00 0.  1.
</event>
<event>
 7    1  0.4675811E-010  0.4778727E+02  0.7816164E-02  0.1312668E+00
        -11   -1    0    0    0    0  0.00000000000E+00  0.00000000000E+00  0.45593999997E+02  0.45594000000E+02  0.51100000000E-03 0.  1.
         11   -1    0    0    0    0 -0.00000000000E+00 -0.00000000000E+00 -0.45593999997E+02  0.45594000000E+02  0.51100000000E-03 0. -1.
    9900012    2    1    2    0    0 -0.26880509704E+02 -0.25735364567E+02 -0.22332770184E+02  0.47787269413E+02  0.19999992563E+02 0.  0.
        -12    1    1    2    0    0  0.26880509704E+02  0.25735364567E+02  0.22332770184E+02  0.43400730587E+02  0.00000000000E+00 0.  1.
         11    1    3    3    0    0 -0.71068109074E+01  0.85011620072E+00 -0.17344026155E+01  0.73646188986E+01  0.51100000000E-03 0. -1.
        -11    1    3    3    0    0 -0.92116308876E+01 -0.86876088758E+01 -0.13383023432E+02  0.18423734910E+02  0.51100000000E-03 0.  1.
        -12    1    3    3    0    0 -0.10562067909E+02 -0.17897871892E+02 -0.72153441372E+01  0.21998915605E+02  0.00000000000E+00 0.  1.
</event>
<event>
 7    1  0.4675811E-010  0.4778725E+02  0.7816164E-02  0.1312668E+00
        -11   -1    0    0    0    0  0.00000000000E+00  0.00000000000E+00  0.45593999997E+02  0.45594000000E+02  0.51100000000E-03 0. -1.
         11   -1    0    0    0    0 -0.00000000000E+00 -0.00000000000E+00 -0.45593999997E+02  0.45594000000E+02  0.51100000000E-03 0.  1.
    9900012    2    1    2    0    0 -0.90842054167E+01  0.20010405120E+01  0.42392189487E+02  0.47787254837E+02  0.19999926103E+02 0.  0.
        -12    1    1    2    0    0  0.90842054167E+01 -0.20010405120E+01 -0.42392189487E+02  0.43400745163E+02  0.00000000000E+00 0.  1.
         11    1    3    3    0    0 -0.48208983703E+01 -0.68560260890E+01  0.19149780551E+02  0.20903594195E+02  0.51100000000E-03 0. -1.
        -11    1    3    3    0    0 -0.42435739945E+01 -0.21809722073E+00  0.96014488422E+01  0.10499681270E+02  0.51100000000E-03 0.  1.
        -12    1    3    3    0    0 -0.19733051911E-01  0.90751638218E+01  0.13640960094E+02  0.16383979372E+02  0.00000000000E+00 0.  1.
</event>
<event>
 7    1  0.4675811E-010  0.4778727E+02  0.7816164E-02  0.1312668E+00
        -11   -1    0    0    0    0  0.00000000000E+00  0.00000000000E+00  0.45593999997E+02  0.45594000000E+02  0.51100000000E-03 0.  1.
         11   -1    0    0    0    0 -0.00000000000E+00 -0.00000000000E+00 -0.45593999997E+02  0.45594000000E+02  0.51100000000E-03 0. -1.
    9900012    2    1    2    0    0  0.24470166600E+02 -0.27437058958E+02 -0.23066037043E+02  0.47787270484E+02  0.19999997443E+02 0.  0.
        -12    1    1    2    0    0 -0.24470166600E+02  0.27437058958E+02  0.23066037043E+02  0.43400729516E+02  0.00000000000E+00 0.  1.
         11    1    3    3    0    0  0.14142704272E+02 -0.24150999298E+02 -0.11189181972E+02  0.30141079023E+02  0.51100000000E-03 0. -1.
        -11    1    3    3    0    0  0.53842028107E+01  0.84231685252E+00 -0.19005304679E+01  0.57715815776E+01  0.51100000000E-03 0.  1.
        -12    1    3    3    0    0  0.49432595169E+01 -0.41283765133E+01 -0.99763246033E+01  0.11874609883E+02  0.00000000000E+00 0.  1.
</event>
<event>
 7    1  0.4675811E-010  0.4778726E+02  0.7816164E-02  0.1312668E+00
        -11   -1    0    0    0    0  0.00000000000E+00  0.00000000000E+00  0.45593999997E+02  0.45594000000E+02  0.51100000000E-03 0. -1.
         11   -1    0    0    0    0 -0.00000000000E+00 -0.00000000000E+00 -0.45593999997E+02  0.45594000000E+02  0.51100000000E-03 0.  1.
    9900012    2    1    2    0    0  0.11327851526E+02  0.39236096561E+02  0.14691241179E+02  0.47787261977E+02  0.19999958660E+02 0.  0.
        -12    1    1    2    0    0 -0.11327851526E+02 -0.39236096561E+02 -0.14691241179E+02  0.43400738023E+02  0.00000000000E+00 0.  1.
         11    1    3    3    0    0 -0.21347447075E+01  0.58369427225E+01  0.17628346118E+01  0.64602338535E+01  0.51100000000E-03 0. -1.
        -11    1    3    3    0    0  0.50906845943E+01  0.12381915377E+02 -0.29232163326E+01  0.13702995732E+02  0.51100000000E-03 0.  1.
         12    1    3    3    0    0  0.83719116393E+01  0.21017238462E+02  0.15851622900E+02  0.27624032392E+02  0.00000000000E+00 0. -1.
</event>
<event>
 7    1  0.4675811E-010  0.4778727E+02  0.7816164E-02  0.1312668E+00
        -11   -1    0    0    0    0  0.00000000000E+00  0.00000000000E+00  0.45593999997E+02  0.45594000000E+02  0.51100000000E-03 0.  1.
         11   -1    0    0    0    0 -0.00000000000E+00 -0.00000000000E+00 -0.45593999997E+02  0.45594000000E+02  0.51100000000E-03 0. -1.
    9900012    2    1    2    0    0 -0.38886079125E+02 -0.19201653483E+02  0.16711652822E+01  0.47787269135E+02  0.19999991294E+02 0.  0.
        -12    1    1    2    0    0  0.38886079125E+02  0.19201653483E+02 -0.16711652822E+01  0.43400730865E+02  0.00000000000E+00 0.  1.
         11    1    3    3    0    0  0.13244711731E+01 -0.91804512239E+00 -0.51655082350E-01  0.16123582865E+01  0.51100000000E-03 0. -1.
        -11    1    3    3    0    0 -0.68294395767E+00 -0.11314640986E+01  0.27748117015E+01  0.30734676988E+01  0.51100000000E-03 0.  1.
        -12    1    3    3    0    0 -0.39527606341E+02 -0.17152144262E+02 -0.10519913370E+01  0.43101443150E+02  0.00000000000E+00 0.  1.
</event>
<event>
 7    1  0.4675811E-010  0.4778730E+02  0.7816164E-02  0.1312668E+00
        -11   -1    0    0    0    0  0.00000000000E+00  0.00000000000E+00  0.45593999997E+02  0.45594000000E+02  0.51100000000E-03 0.  1.
         11   -1    0    0    0    0 -0.00000000000E+00 -0.00000000000E+00 -0.45593999997E+02  0.45594000000E+02  0.51100000000E-03 0. -1.
    9900012    2    1    2    0    0 -0.16875470448E+02  0.19718049649E+02 -0.34785595435E+02  0.47787301451E+02  0.20000138635E+02 0.  0.
        -12    1    1    2    0    0  0.16875470448E+02 -0.19718049649E+02  0.34785595435E+02  0.43400698549E+02  0.00000000000E+00 0.  1.
         11    1    3    3    0    0 -0.13524173634E+02  0.10153584450E+02 -0.21603954986E+02  0.27435914801E+02  0.51100000000E-03 0. -1.
        -11    1    3    3    0    0 -0.33945101480E+01 -0.19333905300E+01 -0.23731943948E+01  0.45708587796E+01  0.51100000000E-03 0.  1.
        -12    1    3    3    0    0  0.43213334346E-01  0.11497855729E+02 -0.10808446054E+02  0.15780527870E+02  0.00000000000E+00 0.  1.
</event>
<event>
 7    1  0.4675811E-010  0.4778727E+02  0.7816164E-02  0.1312668E+00
        -11   -1    0    0    0    0  0.00000000000E+00  0.00000000000E+00  0.45593999997E+02  0.45594000000E+02  0.51100000000E-03 0.  1.
         11   -1    0    0    0    0 -0.00000000000E+00 -0.00000000000E+00 -0.45593999997E+02  0.45594000000E+02  0.51100000000E-03 0. -1.
    9900012    2    1    2    0    0  0.15438315767E+02 -0.18998115150E+02 -0.35837875851E+02  0.47787270530E+02  0.19999997654E+02 0.  0.
        -12    1    1    2    0    0 -0.15438315767E+02  0.18998115150E+02  0.35837875851E+02  0.43400729470E+02  0.00000000000E+00 0.  1.
         11    1    3    3    0    0  0.11056172121E+02 -0.21885999466E+02 -0.33445269967E+02  0.41470736647E+02  0.51100000000E-03 0. -1.
        -11    1    3    3    0    0 -0.18298229950E-01  0.27908225547E+00  0.40016455819E+00  0.48821477373E+00  0.51100000000E-03 0.  1.
         12    1    3    3    0    0  0.44004418756E+01  0.26088020606E+01 -0.27927704427E+01  0.58283191091E+01  0.00000000000E+00 0. -1.
</event>
<event>
 7    1  0.4675811E-010  0.4778727E+02  0.7816164E-02  0.1312668E+00
        -11   -1    0    0    0    0  0.00000000000E+00  0.00000000000E+00  0.45593999997E+02  0.45594000000E+02  0.51100000000E-03 0.  1.
         11   -1    0    0    0    0 -0.00000000000E+00 -0.00000000000E+00 -0.45593999997E+02  0.45594000000E+02  0.51100000000E-03 0. -1.
    9900012    2    1    2    0    0 -0.17877544089E+02 -0.36128909274E+02  0.16084729700E+02  0.47787271924E+02  0.20000004012E+02 0.  0.
        -12    1    1    2    0    0  0.17877544089E+02  0.36128909274E+02 -0.16084729700E+02  0.43400728076E+02  0.00000000000E+00 0.  1.
         11    1    3    3    0    0 -0.59158505203E+01 -0.15483622538E+02  0.53548968238E+01  0.17418805198E+02  0.51100000000E-03 0. -1.
        -11    1    3    3    0    0  0.14144394478E+01 -0.12566198411E+02  0.33205783262E+01  0.13074257996E+02  0.51100000000E-03 0.  1.
         12    1    3    3    0    0 -0.13376133016E+02 -0.80790883252E+01  0.74092545500E+01  0.17294208731E+02  0.00000000000E+00 0. -1.
</event>
<event>
 7    1  0.4675811E-010  0.4778727E+02  0.7816164E-02  0.1312668E+00
        -11   -1    0    0    0    0  0.00000000000E+00  0.00000000000E+00  0.45593999997E+02  0.45594000000E+02  0.51100000000E-03 0.  1.
         11   -1    0    0    0    0 -0.00000000000E+00 -0.00000000000E+00 -0.45593999997E+02  0.45594000000E+02  0.51100000000E-03 0. -1.
    9900012    2    1    2    0    0  0.14798182902E+02  0.24191818080E+02 -0.32854119607E+02  0.47787268965E+02  0.19999990520E+02 0.  0.
        -12    1    1    2    0    0 -0.14798182902E+02 -0.24191818080E+02  0.32854119607E+02  0.43400731035E+02  0.00000000000E+00 0.  1.
         11    1    3    3    0    0  0.24368419411E+01  0.58073214091E+01 -0.87191490800E+01  0.10755777124E+02  0.51100000000E-03 0. -1.
        -11    1    3    3    0    0  0.13393495335E+02  0.16724548030E+02 -0.11639172657E+02  0.24383735655E+02  0.51100000000E-03 0.  1.
        -12    1    3    3    0    0 -0.10321543744E+01  0.16599486408E+01 -0.12495797870E+02  0.12647756187E+02  0.00000000000E+00 0.  1.
</event>
<event>
 7    1  0.5965624E-010  0.4778727E+02  0.7816164E-02  0.1312668E+00
        -11   -1    0    0    0    0  0.00000000000E+00  0.00000000000E+00  0.45593999997E+02  0.45594000000E+02  0.51100000000E-03 0. -1.
         11   -1    0    0    0    0 -0.00000000000E+00 -0.00000000000E+00 -0.45593999997E+02  0.45594000000E+02  0.51100000000E-03 0.  1.
    9900012    2    1    2    0    0  0.64619190422E+01  0.40680635223E+02  0.13673058833E+02  0.47787273996E+02  0.20000013457E+02 0.  0.
        -12    1    1    2    0    0 -0.64619190422E+01 -0.40680635223E+02 -0.13673058833E+02  0.43400726004E+02  0.00000000000E+00 0.  1.
         11    1    3    3    0    0 -0.11119853758E+00  0.94700548066E+01 -0.10011663320E+01  0.95234782218E+01  0.51100000000E-03 0.  1.
        -11    1    3    3    0    0  0.24706662684E+01 -0.10037275123E+01  0.22660640413E+01  0.34995295725E+01  0.51100000000E-03 0. -1.
         12    1    3    3    0    0  0.41024513114E+01  0.32214307928E+02  0.12408161124E+02  0.34764266202E+02  0.00000000000E+00 0. -1.
</event>
<event>
 7    1  0.4675811E-010  0.4778727E+02  0.7816164E-02  0.1312668E+00
        -11   -1    0    0    0    0  0.00000000000E+00  0.00000000000E+00  0.45593999997E+02  0.45594000000E+02  0.51100000000E-03 0. -1.
         11   -1    0    0    0    0 -0.00000000000E+00 -0.00000000000E+00 -0.45593999997E+02  0.45594000000E+02  0.51100000000E-03 0.  1.
    9900012    2    1    2    0    0 -0.38854173075E+02  0.13533041777E+02  0.13814236800E+02  0.47787272777E+02  0.20000007900E+02 0.  0.
        -12    1    1    2    0    0  0.38854173075E+02 -0.13533041777E+02 -0.13814236800E+02  0.43400727223E+02  0.00000000000E+00 0.  1.
         11    1    3    3    0    0 -0.13923385286E+02  0.11870121651E+02  0.10042747284E+01  0.18324001032E+02  0.51100000000E-03 0.  1.
        -11    1    3    3    0    0 -0.12994810264E+02  0.50127658425E+01  0.49358359142E+01  0.14776853238E+02  0.51100000000E-03 0. -1.
        -12    1    3    3    0    0 -0.11935977525E+02 -0.33498457166E+01  0.78741261577E+01  0.14686418507E+02  0.00000000000E+00 0.  1.
</event>
<event>
 7    1  0.4675811E-010  0.4778727E+02  0.7816164E-02  0.1312668E+00
        -11   -1    0    0    0    0  0.00000000000E+00  0.00000000000E+00  0.45593999997E+02  0.45594000000E+02  0.51100000000E-03 0.  1.
         11   -1    0    0    0    0 -0.00000000000E+00 -0.00000000000E+00 -0.45593999997E+02  0.45594000000E+02  0.51100000000E-03 0. -1.
    9900012    2    1    2    0    0  0.54366506712E+01  0.98694399351E+01 -0.41912532083E+02  0.47787270043E+02  0.19999995436E+02 0.  0.
        -12    1    1    2    0    0 -0.54366506712E+01 -0.98694399351E+01  0.41912532083E+02  0.43400729957E+02  0.00000000000E+00 0.  1.
         11    1    3    3    0    0  0.38052314505E+01  0.42089124267E+01 -0.70918429268E+01  0.90823436715E+01  0.51100000000E-03 0. -1.
        -11    1    3    3    0    0  0.60059275155E+01 -0.24072280131E+01 -0.22042667355E+02  0.22972703289E+02  0.51100000000E-03 0.  1.
         12    1    3    3    0    0 -0.43745082949E+01  0.80677555216E+01 -0.12778021801E+02  0.15732223083E+02  0.00000000000E+00 0. -1.
</event>
<event>
 7    1  0.4675811E-010  0.4778727E+02  0.7816164E-02  0.1312668E+00
        -11   -1    0    0    0    0  0.00000000000E+00  0.00000000000E+00  0.45593999997E+02  0.45594000000E+02  0.51100000000E-03 0.  1.
         11   -1    0    0    0    0 -0.00000000000E+00 -0.00000000000E+00 -0.45593999997E+02  0.45594000000E+02  0.51100000000E-03 0. -1.
    9900012    2    1    2    0    0  0.29078458596E+02  0.10224439798E+02 -0.30553680044E+02  0.47787270885E+02  0.19999999271E+02 0.  0.
        -12    1    1    2    0    0 -0.29078458596E+02 -0.10224439798E+02  0.30553680044E+02  0.43400729115E+02  0.00000000000E+00 0.  1.
         11    1    3    3    0    0  0.21764182931E+02  0.30225935722E+01 -0.16476767218E+02  0.27464515084E+02  0.51100000000E-03 0. -1.
        -11    1    3    3    0    0  0.93445186315E+01  0.28731542732E+01 -0.10537459459E+02  0.14374042439E+02  0.51100000000E-03 0.  1.
        -12    1    3    3    0    0 -0.20302429661E+01  0.43286919530E+01 -0.35394533661E+01  0.59487133614E+01  0.00000000000E+00 0.  1.
</event>
<event>
 7    1  0.4675811E-010  0.4778727E+02  0.7816164E-02  0.1312668E+00
        -11   -1    0    0    0    0  0.00000000000E+00  0.00000000000E+00  0.45593999997E+02  0.45594000000E+02  0.51100000000E-03 0.  1.
         11   -1    0    0    0    0 -0.00000000000E+00 -0.00000000000E+00 -0.45593999997E+02  0.45594000000E+02  0.51100000000E-03 0. -1.
    9900012    2    1    2    0    0  0.73672035029E+01 -0.28169859002E+02 -0.32183950777E+02  0.47787270383E+02  0.19999996984E+02 0.  0.
        -12    1    1    2    0    0 -0.73672035029E+01  0.28169859002E+02  0.32183950777E+02  0.43400729617E+02  0.00000000000E+00 0.  1.
         11    1    3    3    0    0 -0.20982034764E+01 -0.18764954442E+02 -0.22255079855E+02  0.29185862205E+02  0.51100000000E-03 0. -1.
        -11    1    3    3    0    0  0.75134881152E+00 -0.81242646797E+00 -0.54633098448E+01  0.55742547954E+01  0.51100000000E-03 0.  1.
        -12    1    3    3    0    0  0.87140581678E+01 -0.85924780929E+01 -0.44655610775E+01  0.13027153383E+02  0.00000000000E+00 0.  1.
</event>
<event>
 7    1  0.4675811E-010  0.4778727E+02  0.7816164E-02  0.1312668E+00
        -11   -1    0    0    0    0  0.00000000000E+00  0.00000000000E+00  0.45593999997E+02  0.45594000000E+02  0.51100000000E-03 0.  1.
         11   -1    0    0    0    0 -0.00000000000E+00 -0.00000000000E+00 -0.45593999997E+02  0.45594000000E+02  0.51100000000E-03 0. -1.
    9900012    2    1    2    0    0 -0.35241378905E+02 -0.95589264533E+01 -0.23458373992E+02  0.47787272213E+02  0.20000005328E+02 0.  0.
        -12    1    1    2    0    0  0.35241378905E+02  0.95589264533E+01  0.23458373992E+02  0.43400727787E+02  0.00000000000E+00 0.  1.
         11    1    3    3    0    0  0.39002547878E+00 -0.76694611777E-01  0.16289338431E+01  0.16767312438E+01  0.51100000000E-03 0. -1.
        -11    1    3    3    0    0 -0.10280891392E+02 -0.65179112157E+01 -0.13196100657E+02  0.17953188219E+02  0.51100000000E-03 0.  1.
         12    1    3    3    0    0 -0.25350512992E+02 -0.29643206259E+01 -0.11891207178E+02  0.28157352750E+02  0.00000000000E+00 0. -1.
</event>
<event>
 7    1  0.4675811E-010  0.4778728E+02  0.7816164E-02  0.1312668E+00
        -11   -1    0    0    0    0  0.00000000000E+00  0.00000000000E+00  0.45593999997E+02  0.45594000000E+02  0.51100000000E-03 0.  1.
         11   -1    0    0    0    0 -0.00000000000E+00 -0.00000000000E+00 -0.45593999997E+02  0.45594000000E+02  0.51100000000E-03 0. -1.
    9900012    2    1    2    0    0 -0.86024876719E+01 -0.10261293544E+02 -0.41283476520E+02  0.47787281424E+02  0.20000047325E+02 0.  0.
        -12    1    1    2    0    0  0.86024876719E+01  0.10261293544E+02  0.41283476520E+02  0.43400718576E+02  0.00000000000E+00 0.  1.
         11    1    3    3    0    0 -0.27376032780E+01 -0.65204662208E+01 -0.10333670446E+02  0.12521808839E+02  0.51100000000E-03 0. -1.
        -11    1    3    3    0    0 -0.82606544008E+00  0.18809939819E+01  0.11056454366E+01  0.23330183376E+01  0.51100000000E-03 0.  1.
         12    1    3    3    0    0 -0.50388189538E+01 -0.56218213047E+01 -0.32055451510E+02  0.32932454248E+02  0.00000000000E+00 0. -1.
</event>
<event>
 7    1  0.4675811E-010  0.4778727E+02  0.7816164E-02  0.1312668E+00
        -11   -1    0    0    0    0  0.00000000000E+00  0.00000000000E+00  0.45593999997E+02  0.45594000000E+02  0.51100000000E-03 0. -1.
         11   -1    0    0    0    0 -0.00000000000E+00 -0.00000000000E+00 -0.45593999997E+02  0.45594000000E+02  0.51100000000E-03 0.  1.
    9900012    2    1    2    0    0 -0.56828257339E+00  0.42283274129E+02  0.97685718156E+01  0.47787271763E+02  0.20000003278E+02 0.  0.
        -12    1    1    2    0    0  0.56828257339E+00 -0.42283274129E+02 -0.97685718156E+01  0.43400728237E+02  0.00000000000E+00 0.  1.
         11    1    3    3    0    0  0.41757894123E+01  0.19352785462E+01  0.18257693394E+00  0.46060671798E+01  0.51100000000E-03 0. -1.
        -11    1    3    3    0    0 -0.71452219758E+00  0.12871465807E+01 -0.17717067524E+01  0.23035262900E+01  0.51100000000E-03 0.  1.
         12    1    3    3    0    0 -0.40295497881E+01  0.39060849002E+02  0.11357701634E+02  0.40877678294E+02  0.00000000000E+00 0. -1.
</event>
<event>
 7    1  0.4675811E-010  0.4778727E+02  0.7816164E-02  0.1312668E+00
        -11   -1    0    0    0    0  0.00000000000E+00  0.00000000000E+00  0.45593999997E+02  0.45594000000E+02  0.51100000000E-03 0. -1.
         11   -1    0    0    0    0 -0.00000000000E+00 -0.00000000000E+00 -0.45593999997E+02  0.45594000000E+02  0.51100000000E-03 0.  1.
    9900012    2    1    2    0    0 -0.19315595119E+02  0.37382565510E+02  0.10633672550E+02  0.47787269466E+02  0.19999992805E+02 0.  0.
        -12    1    1    2    0    0  0.19315595119E+02 -0.37382565510E+02 -0.10633672550E+02  0.43400730534E+02  0.00000000000E+00 0.  1.
         11    1    3    3    0    0 -0.13500417958E+02  0.15145931338E+02  0.10389286851E+02  0.22794688036E+02  0.51100000000E-03 0. -1.
        -11    1    3    3    0    0 -0.83775147806E+00  0.34888947410E+01  0.38503500921E+01  0.52630229095E+01  0.51100000000E-03 0.  1.
        -12    1    3    3    0    0 -0.49774256834E+01  0.18747739432E+02 -0.36059643927E+01  0.19729558521E+02  0.00000000000E+00 0.  1.
</event>
<event>
 7    1  0.4675811E-010  0.4778727E+02  0.7816164E-02  0.1312668E+00
        -11   -1    0    0    0    0  0.00000000000E+00  0.00000000000E+00  0.45593999997E+02  0.45594000000E+02  0.51100000000E-03 0.  1.
         11   -1    0    0    0    0 -0.00000000000E+00 -0.00000000000E+00 -0.45593999997E+02  0.45594000000E+02  0.51100000000E-03 0. -1.
    9900012    2    1    2    0    0 -0.12399843957E+02  0.35630688329E+02 -0.21455096364E+02  0.47787271424E+02  0.20000001729E+02 0.  0.
        -12    1    1    2    0    0  0.12399843957E+02 -0.35630688329E+02  0.21455096364E+02  0.43400728576E+02  0.00000000000E+00 0.  1.
         11    1    3    3    0    0 -0.70612305803E+01  0.69482502136E+01 -0.16182054748E+00  0.99078425749E+01  0.51100000000E-03 0.  1.
        -11    1    3    3    0    0  0.32210959033E+01  0.43830795519E+01 -0.24772876732E+01  0.59769389869E+01  0.51100000000E-03 0. -1.
         12    1    3    3    0    0 -0.85597092804E+01  0.24299358564E+02 -0.18815988143E+02  0.31902489862E+02  0.00000000000E+00 0. -1.
</event>
<event>
 7    1  0.4675811E-010  0.4778727E+02  0.7816164E-02  0.1312668E+00
        -11   -1    0    0    0    0  0.00000000000E+00  0.00000000000E+00  0.45593999997E+02  0.45594000000E+02  0.51100000000E-03 0.  1.
         11   -1    0    0    0    0 -0.00000000000E+00 -0.00000000000E+00 -0.45593999997E+02  0.45594000000E+02  0.51100000000E-03 0. -1.
    9900012    2    1    2    0    0  0.40968425502E+02 -0.50176378201E+01 -0.13417717114E+02  0.47787266020E+02  0.19999977092E+02 0.  0.
        -12    1    1    2    0    0 -0.40968425502E+02  0.50176378201E+01  0.13417717114E+02  0.43400733980E+02  0.00000000000E+00 0.  1.
         11    1    3    3    0    0  0.62882333600E+01  0.33182714888E+01 -0.23330659098E+01  0.74830475920E+01  0.51100000000E-03 0. -1.
        -11    1    3    3    0    0  0.20218496500E+01  0.34291429642E+01 -0.18145053451E+01  0.43748516986E+01  0.51100000000E-03 0.  1.
         12    1    3    3    0    0  0.32658342492E+02 -0.11765052273E+02 -0.92701458588E+01  0.35929366730E+02  0.00000000000E+00 0. -1.
</event>
<event>
 7    1  0.4675811E-010  0.4778727E+02  0.7816164E-02  0.1312668E+00
        -11   -1    0    0    0    0  0.00000000000E+00  0.00000000000E+00  0.45593999997E+02  0.45594000000E+02  0.51100000000E-03 0.  1.
         11   -1    0    0    0    0 -0.00000000000E+00 -0.00000000000E+00 -0.45593999997E+02  0.45594000000E+02  0.51100000000E-03 0. -1.
    9900012    2    1    2    0    0 -0.14937745849E+02  0.36546427366E+02 -0.18023474103E+02  0.47787271630E+02  0.20000002671E+02 0.  0.
        -12    1    1    2    0    0  0.14937745849E+02 -0.36546427366E+02  0.18023474103E+02  0.43400728370E+02  0.00000000000E+00 0.  1.
         11    1    3    3    0    0 -0.42887544566E+00 -0.60926145936E-01  0.15473290222E+01  0.16068209319E+01  0.51100000000E-03 0. -1.
        -11    1    3    3    0    0  0.21423086581E+01  0.10989881042E+02 -0.40145616401E+01  0.11894691132E+02  0.51100000000E-03 0.  1.
         12    1    3    3    0    0 -0.16651179061E+02  0.25617472471E+02 -0.15556241485E+02  0.34285759566E+02  0.00000000000E+00 0. -1.
</event>
<event>
 7    1  0.4675811E-010  0.4778727E+02  0.7816164E-02  0.1312668E+00
        -11   -1    0    0    0    0  0.00000000000E+00  0.00000000000E+00  0.45593999997E+02  0.45594000000E+02  0.51100000000E-03 0.  1.
         11   -1    0    0    0    0 -0.00000000000E+00 -0.00000000000E+00 -0.45593999997E+02  0.45594000000E+02  0.51100000000E-03 0. -1.
    9900012    2    1    2    0    0 -0.16413039022E+02  0.16587733307E+02 -0.36593478511E+02  0.47787269410E+02  0.19999992549E+02 0.  0.
        -12    1    1    2    0    0  0.16413039022E+02 -0.16587733307E+02  0.36593478511E+02  0.43400730590E+02  0.00000000000E+00 0.  1.
         11    1    3    3    0    0 -0.17417295319E+01  0.49131382766E-01 -0.10455098447E+02  0.10599298064E+02  0.51100000000E-03 0. -1.
        -11    1    3    3    0    0 -0.12962261247E+02  0.37099637229E+01 -0.14186699333E+02  0.19571573409E+02  0.51100000000E-03 0.  1.
        -12    1    3    3    0    0 -0.17090482431E+01  0.12828638201E+02 -0.11951680731E+02  0.17616397937E+02  0.00000000000E+00 0.  1.
</event>
<event>
 7    1  0.4675811E-010  0.4778727E+02  0.7816164E-02  0.1312668E+00
        -11   -1    0    0    0    0  0.00000000000E+00  0.00000000000E+00  0.45593999997E+02  0.45594000000E+02  0.51100000000E-03 0. -1.
         11   -1    0    0    0    0 -0.00000000000E+00 -0.00000000000E+00 -0.45593999997E+02  0.45594000000E+02  0.51100000000E-03 0.  1.
    9900012    2    1    2    0    0  0.23308674414E+02  0.36364232637E+02 -0.42393268597E+01  0.47787267167E+02  0.19999982320E+02 0.  0.
        -12    1    1    2    0    0 -0.23308674414E+02 -0.36364232637E+02  0.42393268597E+01  0.43400732833E+02  0.00000000000E+00 0.  1.
         11    1    3    3    0    0  0.39632924341E+01  0.95634606797E+01  0.30537509311E+01  0.10793185911E+02  0.51100000000E-03 0. -1.
        -11    1    3    3    0    0  0.17259056332E+02  0.18007663290E+02  0.66582151459E+00  0.24951839235E+02  0.51100000000E-03 0.  1.
        -12    1    3    3    0    0  0.20863256471E+01  0.87931086674E+01 -0.79588993054E+01  0.12042242021E+02  0.00000000000E+00 0.  1.
</event>
<event>
 7    1  0.4675811E-010  0.4778727E+02  0.7816164E-02  0.1312668E+00
        -11   -1    0    0    0    0  0.00000000000E+00  0.00000000000E+00  0.45593999997E+02  0.45594000000E+02  0.51100000000E-03 0.  1.
         11   -1    0    0    0    0 -0.00000000000E+00 -0.00000000000E+00 -0.45593999997E+02  0.45594000000E+02  0.51100000000E-03 0. -1.
    9900012    2    1    2    0    0 -0.29459349770E+02  0.10185570086E+02 -0.30199743337E+02  0.47787267005E+02  0.19999981585E+02 0.  0.
        -12    1    1    2    0    0  0.29459349770E+02 -0.10185570086E+02  0.30199743337E+02  0.43400732995E+02  0.00000000000E+00 0.  1.
         11    1    3    3    0    0 -0.81332383924E+01  0.47397471708E+01 -0.11134719168E+02  0.14580697555E+02  0.51100000000E-03 0. -1.
        -11    1    3    3    0    0 -0.26317157489E+01 -0.43232999672E+01 -0.77881799696E+01  0.92883043602E+01  0.51100000000E-03 0.  1.
        -12    1    3    3    0    0 -0.18694395628E+02  0.97691228824E+01 -0.11276844200E+02  0.23918265090E+02  0.00000000000E+00 0.  1.
</event>
<event>
 7    1  0.4675811E-010  0.4778727E+02  0.7816164E-02  0.1312668E+00
        -11   -1    0    0    0    0  0.00000000000E+00  0.00000000000E+00  0.45593999997E+02  0.45594000000E+02  0.51100000000E-03 0.  1.
         11   -1    0    0    0    0 -0.00000000000E+00 -0.00000000000E+00 -0.45593999997E+02  0.45594000000E+02  0.51100000000E-03 0. -1.
    9900012    2    1    2    0    0  0.10919149794E+01 -0.37919576787E+02 -0.21084038559E+02  0.47787271159E+02  0.20000000521E+02 0.  0.
        -12    1    1    2    0    0 -0.10919149794E+01  0.37919576787E+02  0.21084038559E+02  0.43400728841E+02  0.00000000000E+00 0.  1.
         11    1    3    3    0    0 -0.37359462829E+01 -0.11023029990E+02 -0.89133514803E+01  0.14659888119E+02  0.51100000000E-03 0. -1.
        -11    1    3    3    0    0 -0.33981470802E+01 -0.23398860842E+01  0.73702997704E+00  0.41911435091E+01  0.51100000000E-03 0.  1.
         12    1    3    3    0    0  0.82260083424E+01 -0.24556660712E+02 -0.12907717056E+02  0.28936239531E+02  0.00000000000E+00 0. -1.
</event>
<event>
 7    1  0.4675811E-010  0.4778727E+02  0.7816164E-02  0.1312668E+00
        -11   -1    0    0    0    0  0.00000000000E+00  0.00000000000E+00  0.45593999997E+02  0.45594000000E+02  0.51100000000E-03 0.  1.
         11   -1    0    0    0    0 -0.00000000000E+00 -0.00000000000E+00 -0.45593999997E+02  0.45594000000E+02  0.51100000000E-03 0. -1.
    9900012    2    1    2    0    0  0.32967731366E+02 -0.96385995537E+01 -0.26530153132E+02  0.47787274914E+02  0.20000017645E+02 0.  0.
        -12    1    1    2    0    0 -0.32967731366E+02  0.96385995537E+01  0.26530153132E+02  0.43400725086E+02  0.00000000000E+00 0.  1.
         11    1    3    3    0    0  0.43661568699E+01 -0.48626753708E+01 -0.66522380714E+01  0.93252994158E+01  0.51100000000E-03 0. -1.
        -11    1    3    3    0    0  0.18752036253E+02 -0.84162372312E+01 -0.18888046270E+02  0.27914695143E+02  0.51100000000E-03 0.  1.
        -12    1    3    3    0    0  0.98495382427E+01  0.36403130484E+01 -0.98986879115E+00  0.10547280356E+02  0.00000000000E+00 0.  1.
</event>
<event>
 7    1  0.4675811E-010  0.4778728E+02  0.7816164E-02  0.1312668E+00
        -11   -1    0    0    0    0  0.00000000000E+00  0.00000000000E+00  0.45593999997E+02  0.45594000000E+02  0.51100000000E-03 0.  1.
         11   -1    0    0    0    0 -0.00000000000E+00 -0.00000000000E+00 -0.45593999997E+02  0.45594000000E+02  0.51100000000E-03 0. -1.
    9900012    2    1    2    0    0 -0.16390790591E+02  0.29350242272E+02 -0.27450464933E+02  0.47787276934E+02  0.20000026854E+02 0.  0.
        -12    1    1    2    0    0  0.16390790591E+02 -0.29350242272E+02  0.27450464933E+02  0.43400723066E+02  0.00000000000E+00 0.  1.
         11    1    3    3    0    0 -0.76963049823E+01  0.92882999440E+01 -0.78780826617E+01  0.14407283329E+02  0.51100000000E-03 0. -1.
        -11    1    3    3    0    0 -0.12101266686E+02  0.18412042544E+02 -0.19752228399E+02  0.29590445976E+02  0.51100000000E-03 0.  1.
        -12    1    3    3    0    0  0.34067810774E+01  0.16498997837E+01  0.17984612854E+00  0.37895476294E+01  0.00000000000E+00 0.  1.
</event>
<event>
 7    1  0.4675811E-010  0.4778728E+02  0.7816164E-02  0.1312668E+00
        -11   -1    0    0    0    0  0.00000000000E+00  0.00000000000E+00  0.45593999997E+02  0.45594000000E+02  0.51100000000E-03 0. -1.
         11   -1    0    0    0    0 -0.00000000000E+00 -0.00000000000E+00 -0.45593999997E+02  0.45594000000E+02  0.51100000000E-03 0.  1.
    9900012    2    1    2    0    0 -0.30272714602E+02 -0.31054085047E+02  0.16819885461E+01  0.47787279581E+02  0.20000038921E+02 0.  0.
        -12    1    1    2    0    0  0.30272714602E+02  0.31054085047E+02 -0.16819885461E+01  0.43400720419E+02  0.00000000000E+00 0.  1.
         11    1    3    3    0    0 -0.19391336966E+02 -0.21995700573E+02 -0.66162093461E+01  0.30060090143E+02  0.51100000000E-03 0.  1.
        -11    1    3    3    0    0 -0.24495859595E+01 -0.32157333867E+01 -0.67470679612E+00  0.40983706652E+01  0.51100000000E-03 0. -1.
         12    1    3    3    0    0 -0.84317916761E+01 -0.58426510866E+01  0.89729046884E+01  0.13628818773E+02  0.00000000000E+00 0. -1.
</event>
<event>
 7    1  0.4675811E-010  0.4778727E+02  0.7816164E-02  0.1312668E+00
        -11   -1    0    0    0    0  0.00000000000E+00  0.00000000000E+00  0.45593999997E+02  0.45594000000E+02  0.51100000000E-03 0. -1.
         11   -1    0    0    0    0 -0.00000000000E+00 -0.00000000000E+00 -0.45593999997E+02  0.45594000000E+02  0.51100000000E-03 0.  1.
    9900012    2    1    2    0    0 -0.76296941359E+01  0.41554719585E+02 -0.99305637784E+01  0.47787273631E+02  0.20000011794E+02 0.  0.
        -12    1    1    2    0    0  0.76296941359E+01 -0.41554719585E+02  0.99305637784E+01  0.43400726369E+02  0.00000000000E+00 0.  1.
         11    1    3    3    0    0 -0.86310517835E+01  0.34818027531E+02 -0.58321954598E+01  0.36342875508E+02  0.51100000000E-03 0. -1.
        -11    1    3    3    0    0 -0.35915028779E+01  0.25738738503E+01 -0.10736918072E+01  0.45471456846E+01  0.51100000000E-03 0.  1.
        -12    1    3    3    0    0  0.45928605255E+01  0.41628182036E+01 -0.30246765114E+01  0.68972524386E+01  0.00000000000E+00 0.  1.
</event>
<event>
 7    1  0.4675811E-010  0.4778727E+02  0.7816164E-02  0.1312668E+00
        -11   -1    0    0    0    0  0.00000000000E+00  0.00000000000E+00  0.45593999997E+02  0.45594000000E+02  0.51100000000E-03 0.  1.
         11   -1    0    0    0    0 -0.00000000000E+00 -0.00000000000E+00 -0.45593999997E+02  0.45594000000E+02  0.51100000000E-03 0. -1.
    9900012    2    1    2    0    0 -0.19135643526E+02  0.32234152969E+02  0.21872585498E+02  0.47787268818E+02  0.19999989849E+02 0.  0.
        -12    1    1    2    0    0  0.19135643526E+02 -0.32234152969E+02 -0.21872585498E+02  0.43400731182E+02  0.00000000000E+00 0.  1.
         11    1    3    3    0    0 -0.71153992300E+00  0.13236811665E+02  0.11099834493E+02  0.17289470731E+02  0.51100000000E-03 0. -1.
        -11    1    3    3    0    0 -0.83405188835E+01  0.84683771158E+01  0.10587893982E+02  0.15917951045E+02  0.51100000000E-03 0.  1.
        -12    1    3    3    0    0 -0.10083584719E+02  0.10528964189E+02  0.18485702245E+00  0.14579847043E+02  0.00000000000E+00 0.  1.
</event>
<event>
 7    1  0.4675811E-010  0.4778727E+02  0.7816164E-02  0.1312668E+00
        -11   -1    0    0    0    0  0.00000000000E+00  0.00000000000E+00  0.45593999997E+02  0.45594000000E+02  0.51100000000E-03 0. -1.
         11   -1    0    0    0    0 -0.00000000000E+00 -0.00000000000E+00 -0.45593999997E+02  0.45594000000E+02  0.51100000000E-03 0.  1.
    9900012    2    1    2    0    0  0.80928121152E+01 -0.21561942993E+01  0.42584978155E+02  0.47787272514E+02  0.20000006702E+02 0.  0.
        -12    1    1    2    0    0 -0.80928121152E+01  0.21561942993E+01 -0.42584978155E+02  0.43400727486E+02  0.00000000000E+00 0.  1.
         11    1    3    3    0    0  0.55851970590E+01 -0.28568959424E+01  0.15305253655E+02  0.16541072224E+02  0.51100000000E-03 0. -1.
        -11    1    3    3    0    0 -0.25641018542E+01 -0.38432791782E+01  0.19459399038E+01  0.50131921498E+01  0.51100000000E-03 0.  1.
        -12    1    3    3    0    0  0.50717169104E+01  0.45439808214E+01  0.25333784597E+02  0.26233008141E+02  0.00000000000E+00 0.  1.
</event>
<event>
 7    1  0.4675811E-010  0.4778727E+02  0.7816164E-02  0.1312668E+00
        -11   -1    0    0    0    0  0.00000000000E+00  0.00000000000E+00  0.45593999997E+02  0.45594000000E+02  0.51100000000E-03 0. -1.
         11   -1    0    0    0    0 -0.00000000000E+00 -0.00000000000E+00 -0.45593999997E+02  0.45594000000E+02  0.51100000000E-03 0.  1.
    9900012    2    1    2    0    0  0.76124879063E+01  0.38664867292E+02  0.18185193180E+02  0.47787272059E+02  0.20000004624E+02 0.  0.
        -12    1    1    2    0    0 -0.76124879063E+01 -0.38664867292E+02 -0.18185193180E+02  0.43400727941E+02  0.00000000000E+00 0.  1.
         11    1    3    3    0    0  0.26836305207E+01  0.80149940418E+01  0.32724981233E+01  0.90637324811E+01  0.51100000000E-03 0. -1.
        -11    1    3    3    0    0  0.26393493987E-01  0.30676626498E+02  0.11551684025E+02  0.32779528886E+02  0.51100000000E-03 0.  1.
        -12    1    3    3    0    0  0.49024638916E+01 -0.26753247541E-01  0.33610110322E+01  0.59440106917E+01  0.00000000000E+00 0.  1.
</event>
<event>
 7    1  0.4675811E-010  0.4778727E+02  0.7816164E-02  0.1312668E+00
        -11   -1    0    0    0    0  0.00000000000E+00  0.00000000000E+00  0.45593999997E+02  0.45594000000E+02  0.51100000000E-03 0.  1.
         11   -1    0    0    0    0 -0.00000000000E+00 -0.00000000000E+00 -0.45593999997E+02  0.45594000000E+02  0.51100000000E-03 0. -1.
    9900012    2    1    2    0    0 -0.24114243864E+01 -0.38215036052E+02 -0.20430843223E+02  0.47787270711E+02  0.19999998481E+02 0.  0.
        -12    1    1    2    0    0  0.24114243864E+01  0.38215036052E+02  0.20430843223E+02  0.43400729289E+02  0.00000000000E+00 0.  1.
         11    1    3    3    0    0  0.39535486925E+01 -0.10800837608E+02 -0.64800856147E+01  0.13201520751E+02  0.51100000000E-03 0. -1.
        -11    1    3    3    0    0 -0.20456161495E+01 -0.24645103390E+02 -0.15548864447E+02  0.29211861501E+02  0.51100000000E-03 0.  1.
        -12    1    3    3    0    0 -0.43193569294E+01 -0.27690950542E+01  0.15981068391E+01  0.53738884592E+01  0.00000000000E+00 0.  1.
</event>
<event>
 7    1  0.4675811E-010  0.4778728E+02  0.7816164E-02  0.1312668E+00
        -11   -1    0    0    0    0  0.00000000000E+00  0.00000000000E+00  0.45593999997E+02  0.45594000000E+02  0.51100000000E-03 0.  1.
         11   -1    0    0    0    0 -0.00000000000E+00 -0.00000000000E+00 -0.45593999997E+02  0.45594000000E+02  0.51100000000E-03 0. -1.
    9900012    2    1    2    0    0  0.11454747585E+02 -0.41656227173E+02 -0.41437081358E+01  0.47787276254E+02  0.20000023752E+02 0.  0.
        -12    1    1    2    0    0 -0.11454747585E+02  0.41656227173E+02  0.41437081358E+01  0.43400723746E+02  0.00000000000E+00 0.  1.
         11    1    3    3    0    0  0.56930032287E+00 -0.90929385469E+01 -0.68528420164E+01  0.11400310445E+02  0.51100000000E-03 0. -1.
        -11    1    3    3    0    0  0.40206631332E+01 -0.80612504008E+01 -0.43168758198E+01  0.99892395686E+01  0.51100000000E-03 0.  1.
         12    1    3    3    0    0  0.68647841292E+01 -0.24502038226E+02  0.70260097004E+01  0.26397726240E+02  0.00000000000E+00 0. -1.
</event>
<event>
 7    1  0.4675811E-010  0.4778727E+02  0.7816164E-02  0.1312668E+00
        -11   -1    0    0    0    0  0.00000000000E+00  0.00000000000E+00  0.45593999997E+02  0.45594000000E+02  0.51100000000E-03 0.  1.
         11   -1    0    0    0    0 -0.00000000000E+00 -0.00000000000E+00 -0.45593999997E+02  0.45594000000E+02  0.51100000000E-03 0. -1.
    9900012    2    1    2    0    0  0.14852388040E+02  0.39920154995E+02 -0.83313373045E+01  0.47787269746E+02  0.19999994081E+02 0.  0.
        -12    1    1    2    0    0 -0.14852388040E+02 -0.39920154995E+02  0.83313373045E+01  0.43400730254E+02  0.00000000000E+00 0.  1.
         11    1    3    3    0    0  0.54616234063E+01  0.37306869083E+01 -0.42175153564E+01  0.78444114554E+01  0.51100000000E-03 0. -1.
        -11    1    3    3    0    0 -0.19726759170E+00  0.12302300314E+01 -0.34700124687E+01  0.36869183917E+01  0.51100000000E-03 0.  1.
         12    1    3    3    0    0  0.95880322251E+01  0.34959238055E+02 -0.64380947942E+00  0.36255939899E+02  0.00000000000E+00 0. -1.
</event>
<event>
 7    1  0.4675811E-010  0.4778728E+02  0.7816164E-02  0.1312668E+00
        -11   -1    0    0    0    0  0.00000000000E+00  0.00000000000E+00  0.45593999997E+02  0.45594000000E+02  0.51100000000E-03 0.  1.
         11   -1    0    0    0    0 -0.00000000000E+00 -0.00000000000E+00 -0.45593999997E+02  0.45594000000E+02  0.51100000000E-03 0. -1.
    9900012    2    1    2    0    0  0.41913507239E+02  0.85070075523E+01  0.73832011334E+01  0.47787275057E+02  0.20000018296E+02 0.  0.
        -12    1    1    2    0    0 -0.41913507239E+02 -0.85070075523E+01 -0.73832011334E+01  0.43400724943E+02  0.00000000000E+00 0.  1.
         11    1    3    3    0    0  0.17973140278E+02  0.61834622219E-01 -0.31179123456E+00  0.17975950851E+02  0.51100000000E-03 0. -1.
        -11    1    3    3    0    0  0.18216630503E+02  0.32067346229E+00  0.19283775628E+01  0.18321219900E+02  0.51100000000E-03 0.  1.
        -12    1    3    3    0    0  0.57237364587E+01  0.81244994678E+01  0.57666148052E+01  0.11490104306E+02  0.00000000000E+00 0.  1.
</event>
<event>
 7    1  0.4675811E-010  0.4778727E+02  0.7816164E-02  0.1312668E+00
        -11   -1    0    0    0    0  0.00000000000E+00  0.00000000000E+00  0.45593999997E+02  0.45594000000E+02  0.51100000000E-03 0. -1.
         11   -1    0    0    0    0 -0.00000000000E+00 -0.00000000000E+00 -0.45593999997E+02  0.45594000000E+02  0.51100000000E-03 0.  1.
    9900012    2    1    2    0    0  0.31679173720E+02 -0.25322961156E+02  0.15453180932E+02  0.47787271778E+02  0.20000003344E+02 0.  0.
        -12    1    1    2    0    0 -0.31679173720E+02  0.25322961156E+02 -0.15453180932E+02  0.43400728222E+02  0.00000000000E+00 0.  1.
         11    1    3    3    0    0  0.59041456013E+01 -0.38027100400E+01  0.45079253067E+01  0.83451141251E+01  0.51100000000E-03 0. -1.
        -11    1    3    3    0    0  0.19021576526E+02 -0.21282342807E+02  0.25392819880E+01  0.28656699778E+02  0.51100000000E-03 0.  1.
        -12    1    3    3    0    0  0.67534515920E+01 -0.23790830929E+00  0.84059736375E+01  0.10785457874E+02  0.00000000000E+00 0.  1.
</event>
<event>
 7    1  0.4675811E-010  0.4778727E+02  0.7816164E-02  0.1312668E+00
        -11   -1    0    0    0    0  0.00000000000E+00  0.00000000000E+00  0.45593999997E+02  0.45594000000E+02  0.51100000000E-03 0.  1.
         11   -1    0    0    0    0 -0.00000000000E+00 -0.00000000000E+00 -0.45593999997E+02  0.45594000000E+02  0.51100000000E-03 0. -1.
    9900012    2    1    2    0    0  0.65245405625E+01 -0.38580162754E+01 -0.42733702144E+02  0.47787271687E+02  0.20000002932E+02 0.  0.
        -12    1    1    2    0    0 -0.65245405625E+01  0.38580162754E+01  0.42733702144E+02  0.43400728313E+02  0.00000000000E+00 0.  1.
         11    1    3    3    0    0  0.43800511882E+01  0.41674487131E+01 -0.57606665396E+01  0.83509135087E+01  0.51100000000E-03 0.  1.
        -11    1    3    3    0    0  0.86918728500E+00  0.25604082697E+01 -0.44184272853E+01  0.51801232592E+01  0.51100000000E-03 0. -1.
         12    1    3    3    0    0  0.12753020893E+01 -0.10585873258E+02 -0.32554608319E+02  0.34256234920E+02  0.00000000000E+00 0. -1.
</event>
<event>
 7    1  0.4675811E-010  0.4778727E+02  0.7816164E-02  0.1312668E+00
        -11   -1    0    0    0    0  0.00000000000E+00  0.00000000000E+00  0.45593999997E+02  0.45594000000E+02  0.51100000000E-03 0. -1.
         11   -1    0    0    0    0 -0.00000000000E+00 -0.00000000000E+00 -0.45593999997E+02  0.45594000000E+02  0.51100000000E-03 0.  1.
    9900012    2    1    2    0    0 -0.22498567985E+02  0.32769443809E+02  0.17424156135E+02  0.47787271597E+02  0.20000002518E+02 0.  0.
        -12    1    1    2    0    0  0.22498567985E+02 -0.32769443809E+02 -0.17424156135E+02  0.43400728403E+02  0.00000000000E+00 0.  1.
         11    1    3    3    0    0  0.12028246690E+01  0.32586757265E+01  0.34400093728E+01  0.48887032453E+01  0.51100000000E-03 0.  1.
        -11    1    3    3    0    0 -0.12332253746E+02  0.13859936725E+02  0.14501406915E+02  0.23547253157E+02  0.51100000000E-03 0. -1.
         12    1    3    3    0    0 -0.11369138908E+02  0.15650831358E+02 -0.51726015218E+00  0.19351315194E+02  0.00000000000E+00 0. -1.
</event>
<event>
 7    1  0.4675811E-010  0.4778728E+02  0.7816164E-02  0.1312668E+00
        -11   -1    0    0    0    0  0.00000000000E+00  0.00000000000E+00  0.45593999997E+02  0.45594000000E+02  0.51100000000E-03 0.  1.
         11   -1    0    0    0    0 -0.00000000000E+00 -0.00000000000E+00 -0.45593999997E+02  0.45594000000E+02  0.51100000000E-03 0. -1.
    9900012    2    1    2    0    0  0.25404632266E+02  0.22179449982E+02 -0.27318483111E+02  0.47787275795E+02  0.20000021658E+02 0.  0.
        -12    1    1    2    0    0 -0.25404632266E+02 -0.22179449982E+02  0.27318483111E+02  0.43400724205E+02  0.00000000000E+00 0.  1.
         11    1    3    3    0    0  0.21851251611E+02  0.12592370091E+02 -0.25270148359E+02  0.35701896026E+02  0.51100000000E-03 0. -1.
        -11    1    3    3    0    0  0.17026354865E+01  0.29047527144E-01  0.88283780152E+00  0.19181277861E+01  0.51100000000E-03 0.  1.
         12    1    3    3    0    0  0.18507451690E+01  0.95580323637E+01 -0.29311725532E+01  0.10167251983E+02  0.00000000000E+00 0. -1.
</event>
<event>
 7    1  0.4675811E-010  0.4778728E+02  0.7816164E-02  0.1312668E+00
        -11   -1    0    0    0    0  0.00000000000E+00  0.00000000000E+00  0.45593999997E+02  0.45594000000E+02  0.51100000000E-03 0. -1.
         11   -1    0    0    0    0 -0.00000000000E+00 -0.00000000000E+00 -0.45593999997E+02  0.45594000000E+02  0.51100000000E-03 0.  1.
    9900012    2    1    2    0    0  0.38858411447E+02 -0.17906028244E+02  0.72815419005E+01  0.47787276042E+02  0.20000022785E+02 0.  0.
        -12    1    1    2    0    0 -0.38858411447E+02  0.17906028244E+02 -0.72815419005E+01  0.43400723958E+02  0.00000000000E+00 0.  1.
         11    1    3    3    0    0  0.11733234019E+02 -0.39206737288E+01  0.73955844424E+01  0.14413019550E+02  0.51100000000E-03 0. -1.
        -11    1    3    3    0    0  0.53292708571E+01  0.21807320681E+01  0.21424387911E+01  0.61438395532E+01  0.51100000000E-03 0.  1.
         12    1    3    3    0    0  0.21795906571E+02 -0.16166086583E+02 -0.22564813330E+01  0.27230416939E+02  0.00000000000E+00 0. -1.
</event>
<event>
 7    1  0.4675811E-010  0.4778728E+02  0.7816164E-02  0.1312668E+00
        -11   -1    0    0    0    0  0.00000000000E+00  0.00000000000E+00  0.45593999997E+02  0.45594000000E+02  0.51100000000E-03 0.  1.
         11   -1    0    0    0    0 -0.00000000000E+00 -0.00000000000E+00 -0.45593999997E+02  0.45594000000E+02  0.51100000000E-03 0. -1.
    9900012    2    1    2    0    0  0.41207212028E+02 -0.99728828270E+01 -0.92805947097E+01  0.47787283955E+02  0.20000058866E+02 0.  0.
        -12    1    1    2    0    0 -0.41207212028E+02  0.99728828270E+01  0.92805947097E+01  0.43400716045E+02  0.00000000000E+00 0.  1.
         11    1    3    3    0    0  0.39195060525E+01 -0.29278626857E+01  0.16740714363E+01  0.51708242126E+01  0.51100000000E-03 0. -1.
        -11    1    3    3    0    0  0.16802364123E+02 -0.77247918818E+01  0.16300389260E+01  0.18564721299E+02  0.51100000000E-03 0.  1.
         12    1    3    3    0    0  0.20485341852E+02  0.67977174047E+00 -0.12584705072E+02  0.24051738444E+02  0.00000000000E+00 0. -1.
</event>
<event>
 7    1  0.4675811E-010  0.4778727E+02  0.7816164E-02  0.1312668E+00
        -11   -1    0    0    0    0  0.00000000000E+00  0.00000000000E+00  0.45593999997E+02  0.45594000000E+02  0.51100000000E-03 0.  1.
         11   -1    0    0    0    0 -0.00000000000E+00 -0.00000000000E+00 -0.45593999997E+02  0.45594000000E+02  0.51100000000E-03 0. -1.
    9900012    2    1    2    0    0  0.64272596710E+01 -0.23078826164E+01 -0.42860092507E+02  0.47787268223E+02  0.19999987136E+02 0.  0.
        -12    1    1    2    0    0 -0.64272596710E+01  0.23078826164E+01  0.42860092507E+02  0.43400731777E+02  0.00000000000E+00 0.  1.
         11    1    3    3    0    0  0.34076521121E+00  0.23075220774E+01 -0.10706471702E+02  0.10957614505E+02  0.51100000000E-03 0. -1.
        -11    1    3    3    0    0  0.30744787519E+01 -0.23745001654E+01 -0.32792246034E+02  0.33021539498E+02  0.51100000000E-03 0.  1.
        -12    1    3    3    0    0  0.30120157079E+01 -0.22409045285E+01  0.63862522863E+00  0.38081142201E+01  0.00000000000E+00 0.  1.
</event>
<event>
 7    1  0.4675811E-010  0.4778727E+02  0.7816164E-02  0.1312668E+00
        -11   -1    0    0    0    0  0.00000000000E+00  0.00000000000E+00  0.45593999997E+02  0.45594000000E+02  0.51100000000E-03 0.  1.
         11   -1    0    0    0    0 -0.00000000000E+00 -0.00000000000E+00 -0.45593999997E+02  0.45594000000E+02  0.51100000000E-03 0. -1.
    9900012    2    1    2    0    0  0.23087446461E+02 -0.32035526307E+02 -0.18008839586E+02  0.47787269210E+02  0.19999991637E+02 0.  0.
        -12    1    1    2    0    0 -0.23087446461E+02  0.32035526307E+02  0.18008839586E+02  0.43400730790E+02  0.00000000000E+00 0.  1.
         11    1    3    3    0    0  0.67198309904E+01 -0.15328034150E+02 -0.10007536136E+02  0.19500142031E+02  0.51100000000E-03 0. -1.
        -11    1    3    3    0    0  0.78721526360E+00  0.12809890895E+01 -0.38457953697E+01  0.41292594015E+01  0.51100000000E-03 0.  1.
         12    1    3    3    0    0  0.15580400207E+02 -0.17988481247E+02 -0.41555080798E+01  0.24157867778E+02  0.00000000000E+00 0. -1.
</event>
<event>
 7    1  0.4675811E-010  0.4778726E+02  0.7816164E-02  0.1312668E+00
        -11   -1    0    0    0    0  0.00000000000E+00  0.00000000000E+00  0.45593999997E+02  0.45594000000E+02  0.51100000000E-03 0. -1.
         11   -1    0    0    0    0 -0.00000000000E+00 -0.00000000000E+00 -0.45593999997E+02  0.45594000000E+02  0.51100000000E-03 0.  1.
    9900012    2    1    2    0    0 -0.18126599222E+02  0.39433573734E+02 -0.20863084926E+00  0.47787264251E+02  0.19999969024E+02 0.  0.
        -12    1    1    2    0    0  0.18126599222E+02 -0.39433573734E+02  0.20863084926E+00  0.43400735749E+02  0.00000000000E+00 0.  1.
         11    1    3    3    0    0 -0.92912417238E+01  0.16822946251E+02 -0.52906274729E+01  0.19933124006E+02  0.51100000000E-03 0. -1.
        -11    1    3    3    0    0 -0.10318751844E+02  0.13178868726E+02 -0.59069572869E+00  0.16748377301E+02  0.51100000000E-03 0.  1.
        -12    1    3    3    0    0  0.14833943459E+01  0.94317587567E+01  0.56726923524E+01  0.11105762943E+02  0.00000000000E+00 0.  1.
</event>
<event>
 7    1  0.4675811E-010  0.4778725E+02  0.7816164E-02  0.1312668E+00
        -11   -1    0    0    0    0  0.00000000000E+00  0.00000000000E+00  0.45593999997E+02  0.45594000000E+02  0.51100000000E-03 0. -1.
         11   -1    0    0    0    0 -0.00000000000E+00 -0.00000000000E+00 -0.45593999997E+02  0.45594000000E+02  0.51100000000E-03 0.  1.
    9900012    2    1    2    0    0 -0.33802582030E+02 -0.21606327358E+02 -0.16558298870E+02  0.47787248909E+02  0.19999899076E+02 0.  0.
        -12    1    1    2    0    0  0.33802582030E+02  0.21606327358E+02  0.16558298870E+02  0.43400751091E+02  0.00000000000E+00 0.  1.
         11    1    3    3    0    0 -0.30760441203E+02 -0.19012245096E+02 -0.11117942726E+02  0.37832246263E+02  0.51100000000E-03 0. -1.
        -11    1    3    3    0    0 -0.26222269418E+01 -0.48615935317E+01 -0.52833138142E+01  0.76435967268E+01  0.51100000000E-03 0.  1.
        -12    1    3    3    0    0 -0.41991388497E+00  0.22675112698E+01 -0.15704232995E+00  0.23114059191E+01  0.00000000000E+00 0.  1.
</event>
<event>
 7    1  0.4675811E-010  0.4778727E+02  0.7816164E-02  0.1312668E+00
        -11   -1    0    0    0    0  0.00000000000E+00  0.00000000000E+00  0.45593999997E+02  0.45594000000E+02  0.51100000000E-03 0. -1.
         11   -1    0    0    0    0 -0.00000000000E+00 -0.00000000000E+00 -0.45593999997E+02  0.45594000000E+02  0.51100000000E-03 0.  1.
    9900012    2    1    2    0    0  0.26019912050E+02  0.28629529534E+02 -0.19670724522E+02  0.47787272038E+02  0.20000004528E+02 0.  0.
        -12    1    1    2    0    0 -0.26019912050E+02 -0.28629529534E+02  0.19670724522E+02  0.43400727962E+02  0.00000000000E+00 0.  1.
         11    1    3    3    0    0  0.20971932400E+02  0.19583864638E+02 -0.22298790227E+02  0.36339864455E+02  0.51100000000E-03 0. -1.
        -11    1    3    3    0    0  0.21275336205E+01  0.70762741348E+01  0.67549426076E+00  0.74199964754E+01  0.51100000000E-03 0.  1.
        -12    1    3    3    0    0  0.29204460291E+01  0.19693907618E+01  0.19525714445E+01  0.40274111074E+01  0.00000000000E+00 0.  1.
</event>
<event>
 7    1  0.4675811E-010  0.4778727E+02  0.7816164E-02  0.1312668E+00
        -11   -1    0    0    0    0  0.00000000000E+00  0.00000000000E+00  0.45593999997E+02  0.45594000000E+02  0.51100000000E-03 0.  1.
         11   -1    0    0    0    0 -0.00000000000E+00 -0.00000000000E+00 -0.45593999997E+02  0.45594000000E+02  0.51100000000E-03 0. -1.
    9900012    2    1    2    0    0 -0.37250805475E+02 -0.11149699605E+02 -0.19279132245E+02  0.47787271320E+02  0.20000001257E+02 0.  0.
        -12    1    1    2    0    0  0.37250805475E+02  0.11149699605E+02  0.19279132245E+02  0.43400728680E+02  0.00000000000E+00 0.  1.
         11    1    3    3    0    0 -0.21774711673E+02 -0.20331410890E+01 -0.49042487341E+01  0.22412572075E+02  0.51100000000E-03 0. -1.
        -11    1    3    3    0    0 -0.62047542986E+01 -0.20874357713E+01  0.41188005188E+00  0.65594214259E+01  0.51100000000E-03 0.  1.
        -12    1    3    3    0    0 -0.92713395041E+01 -0.70291227445E+01 -0.14786763562E+02  0.18815277819E+02  0.00000000000E+00 0.  1.
</event>
<event>
 7    1  0.4675811E-010  0.4778727E+02  0.7816164E-02  0.1312668E+00
        -11   -1    0    0    0    0  0.00000000000E+00  0.00000000000E+00  0.45593999997E+02  0.45594000000E+02  0.51100000000E-03 0. -1.
         11   -1    0    0    0    0 -0.00000000000E+00 -0.00000000000E+00 -0.45593999997E+02  0.45594000000E+02  0.51100000000E-03 0.  1.
    9900012    2    1    2    0    0 -0.37563604885E+02  0.19986318911E+02 -0.85525367867E+01  0.47787271422E+02  0.20000001721E+02 0.  0.
        -12    1    1    2    0    0  0.37563604885E+02 -0.19986318911E+02  0.85525367867E+01  0.43400728578E+02  0.00000000000E+00 0.  1.
         11    1    3    3    0    0 -0.45633058029E+01  0.11280378394E+01  0.25363338802E+01  0.53412750380E+01  0.51100000000E-03 0.  1.
        -11    1    3    3    0    0 -0.21845023943E+02  0.15578624392E+02 -0.67897537829E+00  0.26839515957E+02  0.51100000000E-03 0. -1.
        -12    1    3    3    0    0 -0.11155275140E+02  0.32796566801E+01 -0.10409895289E+02  0.15606480427E+02  0.00000000000E+00 0.  1.
</event>
<event>
 7    1  0.4675811E-010  0.4778727E+02  0.7816164E-02  0.1312668E+00
        -11   -1    0    0    0    0  0.00000000000E+00  0.00000000000E+00  0.45593999997E+02  0.45594000000E+02  0.51100000000E-03 0.  1.
         11   -1    0    0    0    0 -0.00000000000E+00 -0.00000000000E+00 -0.45593999997E+02  0.45594000000E+02  0.51100000000E-03 0. -1.
    9900012    2    1    2    0    0  0.90472825246E+01 -0.20514575909E+02 -0.37160764121E+02  0.47787268026E+02  0.19999986236E+02 0.  0.
        -12    1    1    2    0    0 -0.90472825246E+01  0.20514575909E+02  0.37160764121E+02  0.43400731974E+02  0.00000000000E+00 0.  1.
         11    1    3    3    0    0  0.45823786511E+01 -0.16205863702E+02 -0.15065211666E+02  0.22596212409E+02  0.51100000000E-03 0.  1.
        -11    1    3    3    0    0  0.48381065905E+01 -0.30112792643E+01 -0.38083644775E+01  0.68541023076E+01  0.51100000000E-03 0. -1.
        -12    1    3    3    0    0 -0.37320271687E+00 -0.12974329428E+01 -0.18287187978E+02  0.18336953309E+02  0.00000000000E+00 0.  1.
</event>
<event>
 7    1  0.4675811E-010  0.4778727E+02  0.7816164E-02  0.1312668E+00
        -11   -1    0    0    0    0  0.00000000000E+00  0.00000000000E+00  0.45593999997E+02  0.45594000000E+02  0.51100000000E-03 0.  1.
         11   -1    0    0    0    0 -0.00000000000E+00 -0.00000000000E+00 -0.45593999997E+02  0.45594000000E+02  0.51100000000E-03 0. -1.
    9900012    2    1    2    0    0 -0.40277207472E+02 -0.15520950715E+02 -0.45243453386E+01  0.47787273582E+02  0.20000011571E+02 0.  0.
        -12    1    1    2    0    0  0.40277207472E+02  0.15520950715E+02  0.45243453386E+01  0.43400726418E+02  0.00000000000E+00 0.  1.
         11    1    3    3    0    0 -0.16611296891E+02 -0.39166125176E+01  0.25992672518E+01  0.17263580988E+02  0.51100000000E-03 0. -1.
        -11    1    3    3    0    0 -0.17353791081E+02 -0.14234790468E+02 -0.32924105293E+01  0.22685310047E+02  0.51100000000E-03 0.  1.
         12    1    3    3    0    0 -0.63121194999E+01  0.26304522708E+01 -0.38312020611E+01  0.78383825476E+01  0.00000000000E+00 0. -1.
</event>
<event>
 7    1  0.4675811E-010  0.4778726E+02  0.7816164E-02  0.1312668E+00
        -11   -1    0    0    0    0  0.00000000000E+00  0.00000000000E+00  0.45593999997E+02  0.45594000000E+02  0.51100000000E-03 0.  1.
         11   -1    0    0    0    0 -0.00000000000E+00 -0.00000000000E+00 -0.45593999997E+02  0.45594000000E+02  0.51100000000E-03 0. -1.
    9900012    2    1    2    0    0  0.33154650771E+02 -0.22190107980E+02 -0.17087777141E+02  0.47787263975E+02  0.19999967766E+02 0.  0.
        -12    1    1    2    0    0 -0.33154650771E+02  0.22190107980E+02  0.17087777141E+02  0.43400736025E+02  0.00000000000E+00 0.  1.
         11    1    3    3    0    0 -0.16349964012E+01 -0.29572894377E+01  0.92205629774E+00  0.35027078279E+01  0.51100000000E-03 0.  1.
        -11    1    3    3    0    0  0.51737351513E+01 -0.14160031949E+00 -0.30226444595E+01  0.59936604722E+01  0.51100000000E-03 0. -1.
         12    1    3    3    0    0  0.29615912021E+02 -0.19091218223E+02 -0.14987188980E+02  0.38290895675E+02  0.00000000000E+00 0. -1.
</event>
<event>
 7    1  0.4675811E-010  0.4778727E+02  0.7816164E-02  0.1312668E+00
        -11   -1    0    0    0    0  0.00000000000E+00  0.00000000000E+00  0.45593999997E+02  0.45594000000E+02  0.51100000000E-03 0.  1.
         11   -1    0    0    0    0 -0.00000000000E+00 -0.00000000000E+00 -0.45593999997E+02  0.45594000000E+02  0.51100000000E-03 0. -1.
    9900012    2    1    2    0    0  0.18733385863E+02  0.33510595196E+02  0.20241625190E+02  0.47787272741E+02  0.20000007737E+02 0.  0.
        -12    1    1    2    0    0 -0.18733385863E+02 -0.33510595196E+02 -0.20241625190E+02  0.43400727259E+02  0.00000000000E+00 0.  1.
         11    1    3    3    0    0 -0.22203420537E+01  0.14407297492E+01 -0.99463712317E+00  0.28275297193E+01  0.51100000000E-03 0. -1.
        -11    1    3    3    0    0  0.35660492602E+01  0.83471107421E+01  0.73381871583E+00  0.91065611093E+01  0.51100000000E-03 0.  1.
         12    1    3    3    0    0  0.17387678656E+02  0.23722754704E+02  0.20502443597E+02  0.35853181913E+02  0.00000000000E+00 0. -1.
</event>
<event>
 7    1  0.4675811E-010  0.4778727E+02  0.7816164E-02  0.1312668E+00
        -11   -1    0    0    0    0  0.00000000000E+00  0.00000000000E+00  0.45593999997E+02  0.45594000000E+02  0.51100000000E-03 0.  1.
         11   -1    0    0    0    0 -0.00000000000E+00 -0.00000000000E+00 -0.45593999997E+02  0.45594000000E+02  0.51100000000E-03 0. -1.
    9900012    2    1    2    0    0 -0.10157227924E+02 -0.70463729872E+01 -0.41602916465E+02  0.47787270631E+02  0.19999998114E+02 0.  0.
        -12    1    1    2    0    0  0.10157227924E+02  0.70463729872E+01  0.41602916465E+02  0.43400729369E+02  0.00000000000E+00 0.  1.
         11    1    3    3    0    0 -0.23034440442E+01  0.46136482278E+01 -0.14214493779E+02  0.15120960224E+02  0.51100000000E-03 0. -1.
        -11    1    3    3    0    0  0.20594486190E+01  0.32534933332E+00 -0.19807483262E+01  0.28758555242E+01  0.51100000000E-03 0.  1.
        -12    1    3    3    0    0 -0.99132324985E+01 -0.11985370548E+02 -0.25407674360E+02  0.29790454883E+02  0.00000000000E+00 0.  1.
</event>
<event>
 7    1  0.4675811E-010  0.4778727E+02  0.7816164E-02  0.1312668E+00
        -11   -1    0    0    0    0  0.00000000000E+00  0.00000000000E+00  0.45593999997E+02  0.45594000000E+02  0.51100000000E-03 0.  1.
         11   -1    0    0    0    0 -0.00000000000E+00 -0.00000000000E+00 -0.45593999997E+02  0.45594000000E+02  0.51100000000E-03 0. -1.
    9900012    2    1    2    0    0  0.47746650169E+01 -0.31418201867E+02 -0.29558804368E+02  0.47787265556E+02  0.19999974977E+02 0.  0.
        -12    1    1    2    0    0 -0.47746650169E+01  0.31418201867E+02  0.29558804368E+02  0.43400734444E+02  0.00000000000E+00 0.  1.
         11    1    3    3    0    0  0.82545908128E+01 -0.80780465021E+01 -0.43481147500E+01  0.12340956483E+02  0.51100000000E-03 0. -1.
        -11    1    3    3    0    0  0.70532243150E+00  0.37160534803E+00 -0.48254185029E+00  0.93188903066E+00  0.51100000000E-03 0.  1.
        -12    1    3    3    0    0 -0.41852482274E+01 -0.23711760713E+02 -0.24728147768E+02  0.34514420042E+02  0.00000000000E+00 0.  1.
</event>
<event>
 7    1  0.4675811E-010  0.4778727E+02  0.7816164E-02  0.1312668E+00
        -11   -1    0    0    0    0  0.00000000000E+00  0.00000000000E+00  0.45593999997E+02  0.45594000000E+02  0.51100000000E-03 0. -1.
         11   -1    0    0    0    0 -0.00000000000E+00 -0.00000000000E+00 -0.45593999997E+02  0.45594000000E+02  0.51100000000E-03 0.  1.
    9900012    2    1    2    0    0 -0.13197218191E+02  0.32519106158E+02  0.25533595343E+02  0.47787270462E+02  0.19999997344E+02 0.  0.
        -12    1    1    2    0    0  0.13197218191E+02 -0.32519106158E+02 -0.25533595343E+02  0.43400729538E+02  0.00000000000E+00 0.  1.
         11    1    3    3    0    0 -0.45543865338E+01  0.13866282031E+02  0.92656445239E+01  0.17287810236E+02  0.51100000000E-03 0. -1.
        -11    1    3    3    0    0  0.39929264918E+01  0.49563284701E+01  0.10721342694E+01  0.64543106545E+01  0.51100000000E-03 0.  1.
        -12    1    3    3    0    0 -0.12635758149E+02  0.13696495657E+02  0.15195816550E+02  0.24045149571E+02  0.00000000000E+00 0.  1.
</event>
<event>
 7    1  0.4675811E-010  0.4778727E+02  0.7816164E-02  0.1312668E+00
        -11   -1    0    0    0    0  0.00000000000E+00  0.00000000000E+00  0.45593999997E+02  0.45594000000E+02  0.51100000000E-03 0.  1.
         11   -1    0    0    0    0 -0.00000000000E+00 -0.00000000000E+00 -0.45593999997E+02  0.45594000000E+02  0.51100000000E-03 0. -1.
    9900012    2    1    2    0    0  0.38803558077E+02 -0.19366063242E+02  0.16919627325E+01  0.47787271172E+02  0.20000000583E+02 0.  0.
        -12    1    1    2    0    0 -0.38803558077E+02  0.19366063242E+02 -0.16919627325E+01  0.43400728828E+02  0.00000000000E+00 0.  1.
         11    1    3    3    0    0  0.94182076160E+01  0.22160550401E+01  0.63262378106E+00  0.96960686749E+01  0.51100000000E-03 0.  1.
        -11    1    3    3    0    0  0.15013857819E+02 -0.57665282946E+01 -0.29416401622E+01  0.16349985391E+02  0.51100000000E-03 0. -1.
        -12    1    3    3    0    0  0.14371492642E+02 -0.15815589987E+02  0.40009791137E+01  0.21741217106E+02  0.00000000000E+00 0.  1.
</event>
<event>
 7    1  0.4675811E-010  0.4778727E+02  0.7816164E-02  0.1312668E+00
        -11   -1    0    0    0    0  0.00000000000E+00  0.00000000000E+00  0.45593999997E+02  0.45594000000E+02  0.51100000000E-03 0. -1.
         11   -1    0    0    0    0 -0.00000000000E+00 -0.00000000000E+00 -0.45593999997E+02  0.45594000000E+02  0.51100000000E-03 0.  1.
    9900012    2    1    2    0    0  0.17228191779E+02 -0.39604372572E+02  0.42786394695E+01  0.47787266429E+02  0.19999978958E+02 0.  0.
        -12    1    1    2    0    0 -0.17228191779E+02  0.39604372572E+02 -0.42786394695E+01  0.43400733571E+02  0.00000000000E+00 0.  1.
         11    1    3    3    0    0 -0.10697134897E+00 -0.37734643905E+01  0.16409574574E+01  0.41162140389E+01  0.51100000000E-03 0. -1.
        -11    1    3    3    0    0  0.61946116433E+01 -0.10245926768E+02 -0.73305274923E+01  0.14038834080E+02  0.51100000000E-03 0.  1.
         12    1    3    3    0    0  0.11140551485E+02 -0.25584981413E+02  0.99682095043E+01  0.29632218311E+02  0.00000000000E+00 0. -1.
</event>
<event>
 7    1  0.4675811E-010  0.4778727E+02  0.7816164E-02  0.1312668E+00
        -11   -1    0    0    0    0  0.00000000000E+00  0.00000000000E+00  0.45593999997E+02  0.45594000000E+02  0.51100000000E-03 0. -1.
         11   -1    0    0    0    0 -0.00000000000E+00 -0.00000000000E+00 -0.45593999997E+02  0.45594000000E+02  0.51100000000E-03 0.  1.
    9900012    2    1    2    0    0  0.66531388001E+01 -0.42582258674E+02  0.51098041025E+01  0.47787272960E+02  0.20000008732E+02 0.  0.
        -12    1    1    2    0    0 -0.66531388001E+01  0.42582258674E+02 -0.51098041025E+01  0.43400727040E+02  0.00000000000E+00 0.  1.
         11    1    3    3    0    0  0.18561137324E+01 -0.15872501556E+02 -0.28688186155E+01  0.16236119744E+02  0.51100000000E-03 0. -1.
        -11    1    3    3    0    0 -0.49251584444E+01 -0.86930047929E+01  0.35652584515E+01  0.10608326264E+02  0.51100000000E-03 0.  1.
        -12    1    3    3    0    0  0.97221835122E+01 -0.18016752325E+02  0.44133642664E+01  0.20942826952E+02  0.00000000000E+00 0.  1.
</event>
<event>
 7    1  0.4675811E-010  0.4778727E+02  0.7816164E-02  0.1312668E+00
        -11   -1    0    0    0    0  0.00000000000E+00  0.00000000000E+00  0.45593999997E+02  0.45594000000E+02  0.51100000000E-03 0.  1.
         11   -1    0    0    0    0 -0.00000000000E+00 -0.00000000000E+00 -0.45593999997E+02  0.45594000000E+02  0.51100000000E-03 0. -1.
    9900012    2    1    2    0    0 -0.82420299532E+01 -0.15772051627E+02 -0.39584528269E+02  0.47787267880E+02  0.19999985573E+02 0.  0.
        -12    1    1    2    0    0  0.82420299532E+01  0.15772051627E+02  0.39584528269E+02  0.43400732120E+02  0.00000000000E+00 0.  1.
         11    1    3    3    0    0  0.34879681965E+00 -0.25597498015E+01 -0.15987238158E+02  0.16194621405E+02  0.51100000000E-03 0. -1.
        -11    1    3    3    0    0  0.38526959603E+01 -0.35405343357E+01 -0.63809522488E+01  0.82519816655E+01  0.51100000000E-03 0.  1.
         12    1    3    3    0    0 -0.12443522733E+02 -0.96717674895E+01 -0.17216337862E+02  0.23340664810E+02  0.00000000000E+00 0. -1.
</event>
<event>
 7    1  0.4675811E-010  0.4778727E+02  0.7816164E-02  0.1312668E+00
        -11   -1    0    0    0    0  0.00000000000E+00  0.00000000000E+00  0.45593999997E+02  0.45594000000E+02  0.51100000000E-03 0.  1.
         11   -1    0    0    0    0 -0.00000000000E+00 -0.00000000000E+00 -0.45593999997E+02  0.45594000000E+02  0.51100000000E-03 0. -1.
    9900012    2    1    2    0    0 -0.37745695787E+02 -0.10890345333E+02 -0.18446849702E+02  0.47787269178E+02  0.19999991492E+02 0.  0.
        -12    1    1    2    0    0  0.37745695787E+02  0.10890345333E+02  0.18446849702E+02  0.43400730822E+02  0.00000000000E+00 0.  1.
         11    1    3    3    0    0 -0.92531438442E+01 -0.23098196888E+01 -0.11377479266E+01  0.96047076271E+01  0.51100000000E-03 0. -1.
        -11    1    3    3    0    0 -0.16291805104E+02 -0.24733332506E+01 -0.43724912171E+00  0.16484279723E+02  0.51100000000E-03 0.  1.
        -12    1    3    3    0    0 -0.12200746839E+02 -0.61071923939E+01 -0.16871852653E+02  0.21698281828E+02  0.00000000000E+00 0.  1.
</event>
<event>
 7    1  0.4675811E-010  0.4778726E+02  0.7816164E-02  0.1312668E+00
        -11   -1    0    0    0    0  0.00000000000E+00  0.00000000000E+00  0.45593999997E+02  0.45594000000E+02  0.51100000000E-03 0.  1.
         11   -1    0    0    0    0 -0.00000000000E+00 -0.00000000000E+00 -0.45593999997E+02  0.45594000000E+02  0.51100000000E-03 0. -1.
    9900012    2    1    2    0    0 -0.40878664127E+02  0.13657194305E+02 -0.51029147859E+01  0.47787264102E+02  0.19999968349E+02 0.  0.
        -12    1    1    2    0    0  0.40878664127E+02 -0.13657194305E+02  0.51029147859E+01  0.43400735898E+02  0.00000000000E+00 0.  1.
         11    1    3    3    0    0 -0.11138025155E+02  0.50325666558E+01 -0.69661635884E+01  0.14068040621E+02  0.51100000000E-03 0. -1.
        -11    1    3    3    0    0 -0.24602544461E+02  0.12003937883E+02  0.31098054618E+00  0.27376567130E+02  0.51100000000E-03 0.  1.
        -12    1    3    3    0    0 -0.51380945112E+01 -0.33793102334E+01  0.15522682564E+01  0.63426563520E+01  0.00000000000E+00 0.  1.
</event>
<event>
 7    1  0.4675811E-010  0.4778726E+02  0.7816164E-02  0.1312668E+00
        -11   -1    0    0    0    0  0.00000000000E+00  0.00000000000E+00  0.45593999997E+02  0.45594000000E+02  0.51100000000E-03 0.  1.
         11   -1    0    0    0    0 -0.00000000000E+00 -0.00000000000E+00 -0.45593999997E+02  0.45594000000E+02  0.51100000000E-03 0. -1.
    9900012    2    1    2    0    0  0.17129532908E+02 -0.77592996835E+01 -0.39115173072E+02  0.47787258144E+02  0.19999941181E+02 0.  0.
        -12    1    1    2    0    0 -0.17129532908E+02  0.77592996835E+01  0.39115173072E+02  0.43400741856E+02  0.00000000000E+00 0.  1.
         11    1    3    3    0    0  0.13919288136E+02 -0.48379905014E+01 -0.16216040037E+02  0.21911473913E+02  0.51100000000E-03 0. -1.
        -11    1    3    3    0    0  0.24218111571E+01  0.37379895059E+01 -0.46749120608E+01  0.64569759071E+01  0.51100000000E-03 0.  1.
         12    1    3    3    0    0  0.78843361420E+00 -0.66592986880E+01 -0.18224220975E+02  0.19418808324E+02  0.00000000000E+00 0. -1.
</event>
<event>
 7    1  0.4675811E-010  0.4778726E+02  0.7816164E-02  0.1312668E+00
        -11   -1    0    0    0    0  0.00000000000E+00  0.00000000000E+00  0.45593999997E+02  0.45594000000E+02  0.51100000000E-03 0.  1.
         11   -1    0    0    0    0 -0.00000000000E+00 -0.00000000000E+00 -0.45593999997E+02  0.45594000000E+02  0.51100000000E-03 0. -1.
    9900012    2    1    2    0    0  0.14119509065E+02  0.12320718315E+02 -0.39146690042E+02  0.47787262941E+02  0.19999963052E+02 0.  0.
        -12    1    1    2    0    0 -0.14119509065E+02 -0.12320718315E+02  0.39146690042E+02  0.43400737059E+02  0.00000000000E+00 0.  1.
         11    1    3    3    0    0  0.93958352933E+01  0.11879477815E+02 -0.13226354788E+02  0.20108211638E+02  0.51100000000E-03 0. -1.
        -11    1    3    3    0    0  0.19800668636E+00  0.38915644965E+01 -0.12740632504E+02  0.13323182718E+02  0.51100000000E-03 0.  1.
        -12    1    3    3    0    0  0.45256670858E+01 -0.34503239966E+01 -0.13179702749E+02  0.14355868584E+02  0.00000000000E+00 0.  1.
</event>
<event>
 7    1  0.4675811E-010  0.4778727E+02  0.7816164E-02  0.1312668E+00
        -11   -1    0    0    0    0  0.00000000000E+00  0.00000000000E+00  0.45593999997E+02  0.45594000000E+02  0.51100000000E-03 0. -1.
         11   -1    0    0    0    0 -0.00000000000E+00 -0.00000000000E+00 -0.45593999997E+02  0.45594000000E+02  0.51100000000E-03 0.  1.
    9900012    2    1    2    0    0 -0.37825095020E+02 -0.18243841393E+02  0.10956616419E+02  0.47787274137E+02  0.20000014100E+02 0.  0.
        -12    1    1    2    0    0  0.37825095020E+02  0.18243841393E+02 -0.10956616419E+02  0.43400725863E+02  0.00000000000E+00 0.  1.
         11    1    3    3    0    0 -0.25259099462E+02 -0.77339931793E+01  0.44978776269E+01  0.26796784500E+02  0.51100000000E-03 0. -1.
        -11    1    3    3    0    0 -0.14754488187E+02 -0.86719555298E+01  0.55373544711E+01  0.17987774437E+02  0.51100000000E-03 0.  1.
        -12    1    3    3    0    0  0.21884926293E+01 -0.18378926840E+01  0.92138432087E+00  0.30027152001E+01  0.00000000000E+00 0.  1.
</event>
<event>
 7    1  0.4675811E-010  0.4778727E+02  0.7816164E-02  0.1312668E+00
        -11   -1    0    0    0    0  0.00000000000E+00  0.00000000000E+00  0.45593999997E+02  0.45594000000E+02  0.51100000000E-03 0.  1.
         11   -1    0    0    0    0 -0.00000000000E+00 -0.00000000000E+00 -0.45593999997E+02  0.45594000000E+02  0.51100000000E-03 0. -1.
    9900012    2    1    2    0    0 -0.23706783983E+02 -0.30324486902E+01 -0.36227283972E+02  0.47787268948E+02  0.19999990441E+02 0.  0.
        -12    1    1    2    0    0  0.23706783983E+02  0.30324486902E+01  0.36227283972E+02  0.43400731052E+02  0.00000000000E+00 0.  1.
         11    1    3    3    0    0 -0.14829199612E+02 -0.40676946073E+01 -0.10542097673E+02  0.18643688588E+02  0.51100000000E-03 0. -1.
        -11    1    3    3    0    0 -0.81749740026E+00 -0.11830360922E+01  0.60214452996E+00  0.15589915622E+01  0.51100000000E-03 0.  1.
        -12    1    3    3    0    0 -0.80600869711E+01  0.22182820093E+01 -0.26287330829E+02  0.27584588798E+02  0.00000000000E+00 0.  1.
</event>
<event>
 7    1  0.4675811E-010  0.4778728E+02  0.7816164E-02  0.1312668E+00
        -11   -1    0    0    0    0  0.00000000000E+00  0.00000000000E+00  0.45593999997E+02  0.45594000000E+02  0.51100000000E-03 0.  1.
         11   -1    0    0    0    0 -0.00000000000E+00 -0.00000000000E+00 -0.45593999997E+02  0.45594000000E+02  0.51100000000E-03 0. -1.
    9900012    2    1    2    0    0 -0.15716656764E+02  0.34536379616E+02  0.21067693330E+02  0.47787279740E+02  0.20000039646E+02 0.  0.
        -12    1    1    2    0    0  0.15716656764E+02 -0.34536379616E+02 -0.21067693330E+02  0.43400720260E+02  0.00000000000E+00 0.  1.
         11    1    3    3    0    0 -0.11789787260E+01  0.62140778510E+01  0.44708585236E+01  0.77455361709E+01  0.51100000000E-03 0. -1.
        -11    1    3    3    0    0 -0.41350101539E+01 -0.89110813670E+00  0.58561495810E+01  0.72240480937E+01  0.51100000000E-03 0.  1.
         12    1    3    3    0    0 -0.10402667885E+02  0.29213409902E+02  0.10740685225E+02  0.32817695475E+02  0.00000000000E+00 0. -1.
</event>
<event>
 7    1  0.4675811E-010  0.4778727E+02  0.7816164E-02  0.1312668E+00
        -11   -1    0    0    0    0  0.00000000000E+00  0.00000000000E+00  0.45593999997E+02  0.45594000000E+02  0.51100000000E-03 0.  1.
         11   -1    0    0    0    0 -0.00000000000E+00 -0.00000000000E+00 -0.45593999997E+02  0.45594000000E+02  0.51100000000E-03 0. -1.
    9900012    2    1    2    0    0  0.15259637479E+02  0.37570878895E+02 -0.15465963590E+02  0.47787268362E+02  0.19999987770E+02 0.  0.
        -12    1    1    2    0    0 -0.15259637479E+02 -0.37570878895E+02  0.15465963590E+02  0.43400731638E+02  0.00000000000E+00 0.  1.
         11    1    3    3    0    0  0.36541601805E+01  0.32221542317E+01  0.22331643850E+01  0.53593085327E+01  0.51100000000E-03 0. -1.
        -11    1    3    3    0    0  0.41361462945E+01  0.15954385766E+02 -0.10455423723E+01  0.16514941430E+02  0.51100000000E-03 0.  1.
         12    1    3    3    0    0  0.74693310041E+01  0.18394338898E+02 -0.16653585602E+02  0.25913018399E+02  0.00000000000E+00 0. -1.
</event>
<event>
 7    1  0.4675811E-010  0.4778729E+02  0.7816164E-02  0.1312668E+00
        -11   -1    0    0    0    0  0.00000000000E+00  0.00000000000E+00  0.45593999997E+02  0.45594000000E+02  0.51100000000E-03 0.  1.
         11   -1    0    0    0    0 -0.00000000000E+00 -0.00000000000E+00 -0.45593999997E+02  0.45594000000E+02  0.51100000000E-03 0. -1.
    9900012    2    1    2    0    0 -0.66106664943E+01 -0.41172443225E+02  0.12031253286E+02  0.47787285165E+02  0.20000064379E+02 0.  0.
        -12    1    1    2    0    0  0.66106664943E+01  0.41172443225E+02 -0.12031253286E+02  0.43400714835E+02  0.00000000000E+00 0.  1.
         11    1    3    3    0    0  0.47182561074E+01 -0.99624630162E+01  0.63139433543E+01  0.12703483419E+02  0.51100000000E-03 0. -1.
        -11    1    3    3    0    0 -0.44567154725E+01 -0.38707305343E+01  0.33683225699E+01  0.67963567349E+01  0.51100000000E-03 0.  1.
         12    1    3    3    0    0 -0.68722071292E+01 -0.27339249674E+02  0.23489873615E+01  0.28287445010E+02  0.00000000000E+00 0. -1.
</event>
<event>
 7    1  0.4675811E-010  0.4778727E+02  0.7816164E-02  0.1312668E+00
        -11   -1    0    0    0    0  0.00000000000E+00  0.00000000000E+00  0.45593999997E+02  0.45594000000E+02  0.51100000000E-03 0.  1.
         11   -1    0    0    0    0 -0.00000000000E+00 -0.00000000000E+00 -0.45593999997E+02  0.45594000000E+02  0.51100000000E-03 0. -1.
    9900012    2    1    2    0    0 -0.37279310493E+02 -0.41190901464E+01 -0.21838252743E+02  0.47787272157E+02  0.20000005071E+02 0.  0.
        -12    1    1    2    0    0  0.37279310493E+02  0.41190901464E+01  0.21838252743E+02  0.43400727843E+02  0.00000000000E+00 0.  1.
         11    1    3    3    0    0  0.53945363074E-01 -0.20465512342E+01 -0.11510273601E+01  0.23486477602E+01  0.51100000000E-03 0. -1.
        -11    1    3    3    0    0 -0.21188397427E+01  0.33387997971E+01 -0.53428386718E+01  0.66470287553E+01  0.51100000000E-03 0.  1.
         12    1    3    3    0    0 -0.35214416114E+02 -0.54113387092E+01 -0.15344386711E+02  0.38791595641E+02  0.00000000000E+00 0. -1.
</event>
<event>
 7    1  0.4675811E-010  0.4778728E+02  0.7816164E-02  0.1312668E+00
        -11   -1    0    0    0    0  0.00000000000E+00  0.00000000000E+00  0.45593999997E+02  0.45594000000E+02  0.51100000000E-03 0.  1.
         11   -1    0    0    0    0 -0.00000000000E+00 -0.00000000000E+00 -0.45593999997E+02  0.45594000000E+02  0.51100000000E-03 0. -1.
    9900012    2    1    2    0    0  0.95526611332E+01  0.34495788562E+02 -0.24544039756E+02  0.47787278223E+02  0.20000032728E+02 0.  0.
        -12    1    1    2    0    0 -0.95526611332E+01 -0.34495788562E+02  0.24544039756E+02  0.43400721777E+02  0.00000000000E+00 0.  1.
         11    1    3    3    0    0  0.51552329989E+01  0.13956736938E+01 -0.26533867151E+01  0.59636225278E+01  0.51100000000E-03 0.  1.
        -11    1    3    3    0    0 -0.31067451421E+01  0.53906852781E+01 -0.95888584066E+00  0.62953010621E+01  0.51100000000E-03 0. -1.
         12    1    3    3    0    0  0.75041732764E+01  0.27709429590E+02 -0.20931767201E+02  0.35528354633E+02  0.00000000000E+00 0. -1.
</event>
<event>
 7    1  0.4675811E-010  0.4778728E+02  0.7816164E-02  0.1312668E+00
        -11   -1    0    0    0    0  0.00000000000E+00  0.00000000000E+00  0.45593999997E+02  0.45594000000E+02  0.51100000000E-03 0.  1.
         11   -1    0    0    0    0 -0.00000000000E+00 -0.00000000000E+00 -0.45593999997E+02  0.45594000000E+02  0.51100000000E-03 0. -1.
    9900012    2    1    2    0    0  0.34329869594E+02  0.31217648752E+01 -0.26369242850E+02  0.47787281910E+02  0.20000049542E+02 0.  0.
        -12    1    1    2    0    0 -0.34329869594E+02 -0.31217648752E+01  0.26369242850E+02  0.43400718090E+02  0.00000000000E+00 0.  1.
         11    1    3    3    0    0  0.22634938358E+02  0.27104470681E+01 -0.92567121201E+01  0.24604342651E+02  0.51100000000E-03 0. -1.
        -11    1    3    3    0    0  0.12587382655E+02  0.27560776243E+01 -0.12613128871E+02  0.18031339001E+02  0.51100000000E-03 0.  1.
        -12    1    3    3    0    0 -0.89245141957E+00 -0.23447598171E+01 -0.44994018585E+01  0.51516002582E+01  0.00000000000E+00 0.  1.
</event>
<event>
 7    1  0.4675811E-010  0.4778728E+02  0.7816164E-02  0.1312668E+00
        -11   -1    0    0    0    0  0.00000000000E+00  0.00000000000E+00  0.45593999997E+02  0.45594000000E+02  0.51100000000E-03 0. -1.
         11   -1    0    0    0    0 -0.00000000000E+00 -0.00000000000E+00 -0.45593999997E+02  0.45594000000E+02  0.51100000000E-03 0.  1.
    9900012    2    1    2    0    0 -0.59694520207E+00  0.65291814924E+01  0.42902632938E+02  0.47787280333E+02  0.20000042352E+02 0.  0.
        -12    1    1    2    0    0  0.59694520207E+00 -0.65291814924E+01 -0.42902632938E+02  0.43400719667E+02  0.00000000000E+00 0.  1.
         11    1    3    3    0    0  0.55501217887E+01 -0.24331899274E+01  0.76753760351E+01  0.97793487837E+01  0.51100000000E-03 0. -1.
        -11    1    3    3    0    0 -0.32464082593E+01 -0.11755070535E+01  0.58173253337E+01  0.67647806851E+01  0.51100000000E-03 0.  1.
        -12    1    3    3    0    0 -0.29006587315E+01  0.10137878473E+02  0.29409931570E+02  0.31243150865E+02  0.00000000000E+00 0.  1.
</event>
<event>
 7    1  0.4675811E-010  0.4778728E+02  0.7816164E-02  0.1312668E+00
        -11   -1    0    0    0    0  0.00000000000E+00  0.00000000000E+00  0.45593999997E+02  0.45594000000E+02  0.51100000000E-03 0.  1.
         11   -1    0    0    0    0 -0.00000000000E+00 -0.00000000000E+00 -0.45593999997E+02  0.45594000000E+02  0.51100000000E-03 0. -1.
    9900012    2    1    2    0    0  0.15808274197E+02 -0.22179540778E+02 -0.33790373735E+02  0.47787275129E+02  0.20000018622E+02 0.  0.
        -12    1    1    2    0    0 -0.15808274197E+02  0.22179540778E+02  0.33790373735E+02  0.43400724871E+02  0.00000000000E+00 0.  1.
         11    1    3    3    0    0  0.10254209154E+02 -0.12166225279E+02 -0.16460544234E+02  0.22893565901E+02  0.51100000000E-03 0. -1.
        -11    1    3    3    0    0  0.79544932446E+01 -0.76854213164E+01 -0.50359670850E+01  0.12153214732E+02  0.51100000000E-03 0.  1.
         12    1    3    3    0    0 -0.24004282023E+01 -0.23278941821E+01 -0.12293862416E+02  0.12740494495E+02  0.00000000000E+00 0. -1.
</event>
<event>
 7    1  0.4675811E-010  0.4778726E+02  0.7816164E-02  0.1312668E+00
        -11   -1    0    0    0    0  0.00000000000E+00  0.00000000000E+00  0.45593999997E+02  0.45594000000E+02  0.51100000000E-03 0.  1.
         11   -1    0    0    0    0 -0.00000000000E+00 -0.00000000000E+00 -0.45593999997E+02  0.45594000000E+02  0.51100000000E-03 0. -1.
    9900012    2    1    2    0    0  0.16845327152E+02 -0.15069547257E+02 -0.37050883968E+02  0.47787259175E+02  0.19999945881E+02 0.  0.
        -12    1    1    2    0    0 -0.16845327152E+02  0.15069547257E+02  0.37050883968E+02  0.43400740825E+02  0.00000000000E+00 0.  1.
         11    1    3    3    0    0  0.13678413545E+02 -0.13945504241E+02 -0.26569303824E+02  0.32977325416E+02  0.51100000000E-03 0. -1.
        -11    1    3    3    0    0  0.27999634356E+01 -0.54453650690E+01 -0.63067745018E+01  0.87901763835E+01  0.51100000000E-03 0.  1.
        -12    1    3    3    0    0  0.36695017148E+00  0.43213220524E+01 -0.41748056425E+01  0.60197573756E+01  0.00000000000E+00 0.  1.
</event>
<event>
 7    1  0.4675811E-010  0.4778728E+02  0.7816164E-02  0.1312668E+00
        -11   -1    0    0    0    0  0.00000000000E+00  0.00000000000E+00  0.45593999997E+02  0.45594000000E+02  0.51100000000E-03 0.  1.
         11   -1    0    0    0    0 -0.00000000000E+00 -0.00000000000E+00 -0.45593999997E+02  0.45594000000E+02  0.51100000000E-03 0. -1.
    9900012    2    1    2    0    0 -0.17828490713E+02  0.24189616642E+02 -0.31315012438E+02  0.47787278366E+02  0.20000033380E+02 0.  0.
        -12    1    1    2    0    0  0.17828490713E+02 -0.24189616642E+02  0.31315012438E+02  0.43400721634E+02  0.00000000000E+00 0.  1.
         11    1    3    3    0    0 -0.16510460782E+01  0.79690805618E+01 -0.15386053155E+02  0.17405827476E+02  0.51100000000E-03 0. -1.
        -11    1    3    3    0    0 -0.88926251700E+01  0.16265746811E+02 -0.12255179951E+02  0.22222572705E+02  0.51100000000E-03 0.  1.
        -12    1    3    3    0    0 -0.72848194653E+01 -0.45210731531E-01 -0.36737793321E+01  0.81588781847E+01  0.00000000000E+00 0.  1.
</event>
<event>
 7    1  0.4675811E-010  0.4778727E+02  0.7816164E-02  0.1312668E+00
        -11   -1    0    0    0    0  0.00000000000E+00  0.00000000000E+00  0.45593999997E+02  0.45594000000E+02  0.51100000000E-03 0.  1.
         11   -1    0    0    0    0 -0.00000000000E+00 -0.00000000000E+00 -0.45593999997E+02  0.45594000000E+02  0.51100000000E-03 0. -1.
    9900012    2    1    2    0    0 -0.10868621578E+02  0.16516243035E+02 -0.38635604090E+02  0.47787272789E+02  0.20000007956E+02 0.  0.
        -12    1    1    2    0    0  0.10868621578E+02 -0.16516243035E+02  0.38635604090E+02  0.43400727211E+02  0.00000000000E+00 0.  1.
         11    1    3    3    0    0 -0.91058489735E+00  0.85500752214E+01 -0.11748971114E+02  0.14559233278E+02  0.51100000000E-03 0. -1.
        -11    1    3    3    0    0 -0.78492967556E+01  0.11212474972E+02 -0.13239363278E+02  0.19042368414E+02  0.51100000000E-03 0.  1.
         12    1    3    3    0    0 -0.21087399249E+01 -0.32463071590E+01 -0.13647269699E+02  0.14185671097E+02  0.00000000000E+00 0. -1.
</event>
<event>
 7    1  0.4675811E-010  0.4778730E+02  0.7816164E-02  0.1312668E+00
        -11   -1    0    0    0    0  0.00000000000E+00  0.00000000000E+00  0.45593999997E+02  0.45594000000E+02  0.51100000000E-03 0.  1.
         11   -1    0    0    0    0 -0.00000000000E+00 -0.00000000000E+00 -0.45593999997E+02  0.45594000000E+02  0.51100000000E-03 0. -1.
    9900012    2    1    2    0    0 -0.13376286013E+01  0.38832969958E+02 -0.19334723384E+02  0.47787304910E+02  0.20000154405E+02 0.  0.
        -12    1    1    2    0    0  0.13376286013E+01 -0.38832969958E+02  0.19334723384E+02  0.43400695090E+02  0.00000000000E+00 0.  1.
         11    1    3    3    0    0  0.34784405797E+01  0.86897802615E+00 -0.25323942763E+01  0.43894980018E+01  0.51100000000E-03 0. -1.
        -11    1    3    3    0    0  0.69690559458E+00  0.23264283389E+01  0.16040452653E+01  0.29104823824E+01  0.51100000000E-03 0.  1.
         12    1    3    3    0    0 -0.55129747755E+01  0.35637563593E+02 -0.18406374373E+02  0.40487324526E+02  0.00000000000E+00 0. -1.
</event>
<event>
 7    1  0.4675811E-010  0.4778727E+02  0.7816164E-02  0.1312668E+00
        -11   -1    0    0    0    0  0.00000000000E+00  0.00000000000E+00  0.45593999997E+02  0.45594000000E+02  0.51100000000E-03 0.  1.
         11   -1    0    0    0    0 -0.00000000000E+00 -0.00000000000E+00 -0.45593999997E+02  0.45594000000E+02  0.51100000000E-03 0. -1.
    9900012    2    1    2    0    0  0.28681816236E+02 -0.11531011202E+02 -0.30463292466E+02  0.47787274317E+02  0.20000014919E+02 0.  0.
        -12    1    1    2    0    0 -0.28681816236E+02  0.11531011202E+02  0.30463292466E+02  0.43400725683E+02  0.00000000000E+00 0.  1.
         11    1    3    3    0    0  0.13671547877E+01 -0.31472489233E+01 -0.10194265554E+02  0.10756269727E+02  0.51100000000E-03 0. -1.
        -11    1    3    3    0    0  0.44829311006E+01  0.29094887344E+01 -0.50835098613E+01  0.73758978247E+01  0.51100000000E-03 0.  1.
         12    1    3    3    0    0  0.22831730348E+02 -0.11293251013E+02 -0.15185517051E+02  0.29655106765E+02  0.00000000000E+00 0. -1.
</event>
<event>
 7    1  0.4675811E-010  0.4778726E+02  0.7816164E-02  0.1312668E+00
        -11   -1    0    0    0    0  0.00000000000E+00  0.00000000000E+00  0.45593999997E+02  0.45594000000E+02  0.51100000000E-03 0.  1.
         11   -1    0    0    0    0 -0.00000000000E+00 -0.00000000000E+00 -0.45593999997E+02  0.45594000000E+02  0.51100000000E-03 0. -1.
    9900012    2    1    2    0    0 -0.37216270283E+02  0.12650449836E+02 -0.18399448785E+02  0.47787258412E+02  0.19999942402E+02 0.  0.
        -12    1    1    2    0    0  0.37216270283E+02 -0.12650449836E+02  0.18399448785E+02  0.43400741588E+02  0.00000000000E+00 0.  1.
         11    1    3    3    0    0  0.80933593486E+00 -0.17916019261E+00 -0.21231574419E+00  0.85568759861E+00  0.51100000000E-03 0.  1.
        -11    1    3    3    0    0 -0.26804633679E+02  0.91963993558E+00 -0.98981292986E+01  0.28588583178E+02  0.51100000000E-03 0. -1.
        -12    1    3    3    0    0 -0.11220972539E+02  0.11909970093E+02 -0.82890037419E+01  0.18342987635E+02  0.00000000000E+00 0.  1.
</event>
<event>
 7    1  0.4675811E-010  0.4778727E+02  0.7816164E-02  0.1312668E+00
        -11   -1    0    0    0    0  0.00000000000E+00  0.00000000000E+00  0.45593999997E+02  0.45594000000E+02  0.51100000000E-03 0.  1.
         11   -1    0    0    0    0 -0.00000000000E+00 -0.00000000000E+00 -0.45593999997E+02  0.45594000000E+02  0.51100000000E-03 0. -1.
    9900012    2    1    2    0    0 -0.34149147667E+02  0.82723402339E+01 -0.25476017897E+02  0.47787269738E+02  0.19999994045E+02 0.  0.
        -12    1    1    2    0    0  0.34149147667E+02 -0.82723402339E+01  0.25476017897E+02  0.43400730262E+02  0.00000000000E+00 0.  1.
         11    1    3    3    0    0 -0.42913051920E+01 -0.19578942824E+01  0.22894322143E+01  0.52431050339E+01  0.51100000000E-03 0.  1.
        -11    1    3    3    0    0 -0.12381334703E+02  0.51480354564E+01 -0.77354759285E+01  0.15480223067E+02  0.51100000000E-03 0. -1.
        -12    1    3    3    0    0 -0.17476507772E+02  0.50821990600E+01 -0.20029974183E+02  0.27063941637E+02  0.00000000000E+00 0.  1.
</event>
<event>
 7    1  0.6718018E-010  0.4778727E+02  0.7816164E-02  0.1312668E+00
        -11   -1    0    0    0    0  0.00000000000E+00  0.00000000000E+00  0.45593999997E+02  0.45594000000E+02  0.51100000000E-03 0. -1.
         11   -1    0    0    0    0 -0.00000000000E+00 -0.00000000000E+00 -0.45593999997E+02  0.45594000000E+02  0.51100000000E-03 0.  1.
    9900012    2    1    2    0    0  0.35317669758E+02  0.25158800512E+02  0.18222827049E+01  0.47787265506E+02  0.19999974749E+02 0.  0.
        -12    1    1    2    0    0 -0.35317669758E+02 -0.25158800512E+02 -0.18222827049E+01  0.43400734494E+02  0.00000000000E+00 0.  1.
         11    1    3    3    0    0  0.18762145647E+02  0.74918409787E+01 -0.82678195462E-01  0.20202787591E+02  0.51100000000E-03 0. -1.
        -11    1    3    3    0    0  0.34598291443E+00 -0.17922643808E+01 -0.10184032622E+01  0.20902299523E+01  0.51100000000E-03 0.  1.
         12    1    3    3    0    0  0.16209541197E+02  0.19459223914E+02  0.29233641626E+01  0.25494247963E+02  0.00000000000E+00 0. -1.
</event>
<event>
 7    1  0.4675811E-010  0.4778727E+02  0.7816164E-02  0.1312668E+00
        -11   -1    0    0    0    0  0.00000000000E+00  0.00000000000E+00  0.45593999997E+02  0.45594000000E+02  0.51100000000E-03 0.  1.
         11   -1    0    0    0    0 -0.00000000000E+00 -0.00000000000E+00 -0.45593999997E+02  0.45594000000E+02  0.51100000000E-03 0. -1.
    9900012    2    1    2    0    0 -0.91719399765E+01  0.64931505125E+01 -0.41920610937E+02  0.47787272957E+02  0.20000008720E+02 0.  0.
        -12    1    1    2    0    0  0.91719399765E+01 -0.64931505125E+01  0.41920610937E+02  0.43400727043E+02  0.00000000000E+00 0.  1.
         11    1    3    3    0    0 -0.87507179474E+01  0.22866834940E+01 -0.27587917076E+02  0.29032691140E+02  0.51100000000E-03 0. -1.
        -11    1    3    3    0    0 -0.45280105636E+01  0.12724461325E+01 -0.12549007888E+02  0.13401477458E+02  0.51100000000E-03 0.  1.
        -12    1    3    3    0    0  0.41067885345E+01  0.29340208860E+01 -0.17836859740E+01  0.53531043592E+01  0.00000000000E+00 0.  1.
</event>
<event>
 7    1  0.4675811E-010  0.4778727E+02  0.7816164E-02  0.1312668E+00
        -11   -1    0    0    0    0  0.00000000000E+00  0.00000000000E+00  0.45593999997E+02  0.45594000000E+02  0.51100000000E-03 0.  1.
         11   -1    0    0    0    0 -0.00000000000E+00 -0.00000000000E+00 -0.45593999997E+02  0.45594000000E+02  0.51100000000E-03 0. -1.
    9900012    2    1    2    0    0  0.42083023283E+02 -0.91917408538E+01  0.53060702861E+01  0.47787270393E+02  0.19999997030E+02 0.  0.
        -12    1    1    2    0    0 -0.42083023283E+02  0.91917408538E+01 -0.53060702861E+01  0.43400729607E+02  0.00000000000E+00 0.  1.
         11    1    3    3    0    0 -0.16951063733E+00 -0.80724430911E+00 -0.10648296244E+01  0.13469371258E+01  0.51100000000E-03 0.  1.
        -11    1    3    3    0    0  0.25609701393E+01  0.11647530764E+01 -0.34498352463E+01  0.44515818841E+01  0.51100000000E-03 0. -1.
         12    1    3    3    0    0  0.39691563781E+02 -0.95492496211E+01  0.98207351568E+01  0.41988751383E+02  0.00000000000E+00 0. -1.
</event>
<event>
 7    1  0.4675811E-010  0.4778727E+02  0.7816164E-02  0.1312668E+00
        -11   -1    0    0    0    0  0.00000000000E+00  0.00000000000E+00  0.45593999997E+02  0.45594000000E+02  0.51100000000E-03 0. -1.
         11   -1    0    0    0    0 -0.00000000000E+00 -0.00000000000E+00 -0.45593999997E+02  0.45594000000E+02  0.51100000000E-03 0.  1.
    9900012    2    1    2    0    0  0.19188662117E+02 -0.38834070966E+02  0.27080529385E+01  0.47787269910E+02  0.19999994827E+02 0.  0.
        -12    1    1    2    0    0 -0.19188662117E+02  0.38834070966E+02 -0.27080529385E+01  0.43400730090E+02  0.00000000000E+00 0.  1.
         11    1    3    3    0    0  0.38467470993E+01 -0.43492101975E+01 -0.21348137821E+01  0.61863173806E+01  0.51100000000E-03 0. -1.
        -11    1    3    3    0    0  0.13120157061E+02 -0.95512700580E+01  0.83728795470E+00  0.16250117920E+02  0.51100000000E-03 0.  1.
         12    1    3    3    0    0  0.22217579564E+01 -0.24933590711E+02  0.40055787659E+01  0.25350834609E+02  0.00000000000E+00 0. -1.
</event>
<event>
 7    1  0.4675811E-010  0.4778727E+02  0.7816164E-02  0.1312668E+00
        -11   -1    0    0    0    0  0.00000000000E+00  0.00000000000E+00  0.45593999997E+02  0.45594000000E+02  0.51100000000E-03 0. -1.
         11   -1    0    0    0    0 -0.00000000000E+00 -0.00000000000E+00 -0.45593999997E+02  0.45594000000E+02  0.51100000000E-03 0.  1.
    9900012    2    1    2    0    0  0.40174117509E+02  0.16162165048E+02 -0.29065201934E+01  0.47787272399E+02  0.20000006178E+02 0.  0.
        -12    1    1    2    0    0 -0.40174117509E+02 -0.16162165048E+02  0.29065201934E+01  0.43400727601E+02  0.00000000000E+00 0.  1.
         11    1    3    3    0    0  0.15992386184E+02  0.14775753257E+02  0.47346739529E+01  0.22282200023E+02  0.51100000000E-03 0. -1.
        -11    1    3    3    0    0  0.46599588709E+01 -0.64477621636E+00 -0.13479390198E+01  0.48936584382E+01  0.51100000000E-03 0.  1.
         12    1    3    3    0    0  0.19521772454E+02  0.20311880075E+01 -0.62932551264E+01  0.20611413938E+02  0.00000000000E+00 0. -1.
</event>
<event>
 7    1  0.4675811E-010  0.4778727E+02  0.7816164E-02  0.1312668E+00
        -11   -1    0    0    0    0  0.00000000000E+00  0.00000000000E+00  0.45593999997E+02  0.45594000000E+02  0.51100000000E-03 0.  1.
         11   -1    0    0    0    0 -0.00000000000E+00 -0.00000000000E+00 -0.45593999997E+02  0.45594000000E+02  0.51100000000E-03 0. -1.
    9900012    2    1    2    0    0 -0.42001069587E+02  0.10707713517E+02  0.22086342163E+01  0.47787273735E+02  0.20000012268E+02 0.  0.
        -12    1    1    2    0    0  0.42001069587E+02 -0.10707713517E+02 -0.22086342163E+01  0.43400726265E+02  0.00000000000E+00 0.  1.
         11    1    3    3    0    0 -0.17981504120E+02  0.65828821689E+00 -0.12507305704E+01  0.18036966514E+02  0.51100000000E-03 0. -1.
        -11    1    3    3    0    0 -0.21897628980E+02  0.29076581524E+01  0.22795671259E+01  0.22207139785E+02  0.51100000000E-03 0.  1.
         12    1    3    3    0    0 -0.21219364864E+01  0.71417671479E+01  0.11797976608E+01  0.75431674360E+01  0.00000000000E+00 0. -1.
</event>
<event>
 7    1  0.4675811E-010  0.4778727E+02  0.7816164E-02  0.1312668E+00
        -11   -1    0    0    0    0  0.00000000000E+00  0.00000000000E+00  0.45593999997E+02  0.45594000000E+02  0.51100000000E-03 0. -1.
         11   -1    0    0    0    0 -0.00000000000E+00 -0.00000000000E+00 -0.45593999997E+02  0.45594000000E+02  0.51100000000E-03 0.  1.
    9900012    2    1    2    0    0  0.22991262374E+02 -0.27216551511E+02  0.24784765615E+02  0.47787269265E+02  0.19999991888E+02 0.  0.
        -12    1    1    2    0    0 -0.22991262374E+02  0.27216551511E+02 -0.24784765615E+02  0.43400730735E+02  0.00000000000E+00 0.  1.
         11    1    3    3    0    0  0.21187914219E+02 -0.16063889342E+02  0.16391916620E+02  0.31235735633E+02  0.51100000000E-03 0. -1.
        -11    1    3    3    0    0  0.47752222824E+01 -0.64305200828E+01  0.73591390623E+01  0.10877098160E+02  0.51100000000E-03 0.  1.
        -12    1    3    3    0    0 -0.29718741276E+01 -0.47221420857E+01  0.10337099328E+01  0.56744354726E+01  0.00000000000E+00 0.  1.
</event>
<event>
 7    1  0.4675811E-010  0.4778727E+02  0.7816164E-02  0.1312668E+00
        -11   -1    0    0    0    0  0.00000000000E+00  0.00000000000E+00  0.45593999997E+02  0.45594000000E+02  0.51100000000E-03 0. -1.
         11   -1    0    0    0    0 -0.00000000000E+00 -0.00000000000E+00 -0.45593999997E+02  0.45594000000E+02  0.51100000000E-03 0.  1.
    9900012    2    1    2    0    0  0.17885608987E+02 -0.21707897181E+02  0.33052925348E+02  0.47787266333E+02  0.19999978517E+02 0.  0.
        -12    1    1    2    0    0 -0.17885608987E+02  0.21707897181E+02 -0.33052925348E+02  0.43400733667E+02  0.00000000000E+00 0.  1.
         11    1    3    3    0    0  0.11737015704E+01 -0.45415951878E+01  0.40113576914E+01  0.61720866015E+01  0.51100000000E-03 0. -1.
        -11    1    3    3    0    0  0.26250300883E+01 -0.28326912465E+01 -0.22173048560E+01  0.44532419369E+01  0.51100000000E-03 0.  1.
         12    1    3    3    0    0  0.14086877328E+02 -0.14333610746E+02  0.31258872512E+02  0.37161937794E+02  0.00000000000E+00 0. -1.
</event>
<event>
 7    1  0.4675811E-010  0.4778727E+02  0.7816164E-02  0.1312668E+00
        -11   -1    0    0    0    0  0.00000000000E+00  0.00000000000E+00  0.45593999997E+02  0.45594000000E+02  0.51100000000E-03 0. -1.
         11   -1    0    0    0    0 -0.00000000000E+00 -0.00000000000E+00 -0.45593999997E+02  0.45594000000E+02  0.51100000000E-03 0.  1.
    9900012    2    1    2    0    0  0.12683219410E+02 -0.26049996056E+01  0.41424309724E+02  0.47787268282E+02  0.19999987405E+02 0.  0.
        -12    1    1    2    0    0 -0.12683219410E+02  0.26049996056E+01 -0.41424309724E+02  0.43400731718E+02  0.00000000000E+00 0.  1.
         11    1    3    3    0    0  0.67228476683E+01  0.66090159609E+00  0.16858624129E+02  0.18161681626E+02  0.51100000000E-03 0. -1.
        -11    1    3    3    0    0  0.58328360959E+01  0.33871558831E+01  0.36340014723E+01  0.76616426998E+01  0.51100000000E-03 0.  1.
        -12    1    3    3    0    0  0.12753564596E+00 -0.66530570849E+01  0.20931684123E+02  0.21963943957E+02  0.00000000000E+00 0.  1.
</event>
<event>
 7    1  0.4675811E-010  0.4778725E+02  0.7816164E-02  0.1312668E+00
        -11   -1    0    0    0    0  0.00000000000E+00  0.00000000000E+00  0.45593999997E+02  0.45594000000E+02  0.51100000000E-03 0.  1.
         11   -1    0    0    0    0 -0.00000000000E+00 -0.00000000000E+00 -0.45593999997E+02  0.45594000000E+02  0.51100000000E-03 0. -1.
    9900012    2    1    2    0    0  0.10467031106E+01 -0.19744044347E+01 -0.43343180519E+02  0.47787249341E+02  0.19999901047E+02 0.  0.
        -12    1    1    2    0    0 -0.10467031106E+01  0.19744044347E+01  0.43343180519E+02  0.43400750659E+02  0.00000000000E+00 0.  1.
         11    1    3    3    0    0  0.31348016695E+01 -0.50817622582E+00 -0.29450157112E+01  0.43310902073E+01  0.51100000000E-03 0. -1.
        -11    1    3    3    0    0  0.49686487143E+01  0.38023524380E+01 -0.98945153505E+01  0.11706698441E+02  0.51100000000E-03 0.  1.
         12    1    3    3    0    0 -0.70567472731E+01 -0.52685806469E+01 -0.30503649457E+02  0.31749460693E+02  0.00000000000E+00 0. -1.
</event>
<event>
 7    1  0.4675811E-010  0.4778727E+02  0.7816164E-02  0.1312668E+00
        -11   -1    0    0    0    0  0.00000000000E+00  0.00000000000E+00  0.45593999997E+02  0.45594000000E+02  0.51100000000E-03 0.  1.
         11   -1    0    0    0    0 -0.00000000000E+00 -0.00000000000E+00 -0.45593999997E+02  0.45594000000E+02  0.51100000000E-03 0. -1.
    9900012    2    1    2    0    0 -0.29465493809E+02 -0.29978341877E+02 -0.10803097246E+02  0.47787271697E+02  0.20000002977E+02 0.  0.
        -12    1    1    2    0    0  0.29465493809E+02  0.29978341877E+02  0.10803097246E+02  0.43400728303E+02  0.00000000000E+00 0.  1.
         11    1    3    3    0    0 -0.15245296372E+02 -0.12801213376E+02 -0.65675036451E+01  0.20962400381E+02  0.51100000000E-03 0. -1.
        -11    1    3    3    0    0 -0.38231804565E+01 -0.13037414275E+01 -0.65639327006E+01  0.77072474510E+01  0.51100000000E-03 0.  1.
         12    1    3    3    0    0 -0.10397016981E+02 -0.15873387073E+02  0.23283391001E+01  0.19117623865E+02  0.00000000000E+00 0. -1.
</event>
<event>
 7    1  0.4675811E-010  0.4778727E+02  0.7816164E-02  0.1312668E+00
        -11   -1    0    0    0    0  0.00000000000E+00  0.00000000000E+00  0.45593999997E+02  0.45594000000E+02  0.51100000000E-03 0. -1.
         11   -1    0    0    0    0 -0.00000000000E+00 -0.00000000000E+00 -0.45593999997E+02  0.45594000000E+02  0.51100000000E-03 0.  1.
    9900012    2    1    2    0    0  0.17455856601E+02  0.38339902381E+02  0.10438789025E+02  0.47787270046E+02  0.19999995447E+02 0.  0.
        -12    1    1    2    0    0 -0.17455856601E+02 -0.38339902381E+02 -0.10438789025E+02  0.43400729954E+02  0.00000000000E+00 0.  1.
         11    1    3    3    0    0  0.66141295044E+01  0.27633742479E+01 -0.33658484926E+01  0.79190834489E+01  0.51100000000E-03 0.  1.
        -11    1    3    3    0    0  0.49290238357E+01  0.10331508159E+02  0.35378428414E+01  0.11981304981E+02  0.51100000000E-03 0. -1.
        -12    1    3    3    0    0  0.59127032609E+01  0.25245019974E+02  0.10266794677E+02  0.27886881616E+02  0.00000000000E+00 0.  1.
</event>
<event>
 7    1  0.4675811E-010  0.4778728E+02  0.7816164E-02  0.1312668E+00
        -11   -1    0    0    0    0  0.00000000000E+00  0.00000000000E+00  0.45593999997E+02  0.45594000000E+02  0.51100000000E-03 0.  1.
         11   -1    0    0    0    0 -0.00000000000E+00 -0.00000000000E+00 -0.45593999997E+02  0.45594000000E+02  0.51100000000E-03 0. -1.
    9900012    2    1    2    0    0  0.45898994546E+01 -0.25069611201E+02 -0.35129335254E+02  0.47787276755E+02  0.20000026038E+02 0.  0.
        -12    1    1    2    0    0 -0.45898994546E+01  0.25069611201E+02  0.35129335254E+02  0.43400723245E+02  0.00000000000E+00 0.  1.
         11    1    3    3    0    0 -0.16839231577E+01 -0.94373550030E+01 -0.21049532147E+01  0.98147896030E+01  0.51100000000E-03 0. -1.
        -11    1    3    3    0    0 -0.15984626904E+01 -0.60177476339E+01 -0.93196830806E+01  0.11208249754E+02  0.51100000000E-03 0.  1.
        -12    1    3    3    0    0  0.78722853027E+01 -0.96145085644E+01 -0.23704698958E+02  0.26764237399E+02  0.00000000000E+00 0.  1.
</event>
<event>
 7    1  0.4675811E-010  0.4778727E+02  0.7816164E-02  0.1312668E+00
        -11   -1    0    0    0    0  0.00000000000E+00  0.00000000000E+00  0.45593999997E+02  0.45594000000E+02  0.51100000000E-03 0.  1.
         11   -1    0    0    0    0 -0.00000000000E+00 -0.00000000000E+00 -0.45593999997E+02  0.45594000000E+02  0.51100000000E-03 0. -1.
    9900012    2    1    2    0    0  0.29111273896E+02 -0.29603516942E+02  0.12640756522E+02  0.47787271796E+02  0.20000003428E+02 0.  0.
        -12    1    1    2    0    0 -0.29111273896E+02  0.29603516942E+02 -0.12640756522E+02  0.43400728204E+02  0.00000000000E+00 0.  1.
         11    1    3    3    0    0  0.14869646725E+02 -0.16593337517E+02  0.21830640824E+01  0.22387742466E+02  0.51100000000E-03 0. -1.
        -11    1    3    3    0    0  0.13946605438E+02 -0.52353912755E+01  0.43822256319E+01  0.15528072217E+02  0.51100000000E-03 0.  1.
         12    1    3    3    0    0  0.29502173268E+00 -0.77747881496E+01  0.60754668082E+01  0.98714571129E+01  0.00000000000E+00 0. -1.
</event>
<event>
 7    1  0.4675811E-010  0.4778728E+02  0.7816164E-02  0.1312668E+00
        -11   -1    0    0    0    0  0.00000000000E+00  0.00000000000E+00  0.45593999997E+02  0.45594000000E+02  0.51100000000E-03 0.  1.
         11   -1    0    0    0    0 -0.00000000000E+00 -0.00000000000E+00 -0.45593999997E+02  0.45594000000E+02  0.51100000000E-03 0. -1.
    9900012    2    1    2    0    0  0.42220903889E+02 -0.91394275654E+01 -0.41819627931E+01  0.47787277953E+02  0.20000031497E+02 0.  0.
        -12    1    1    2    0    0 -0.42220903889E+02  0.91394275654E+01  0.41819627931E+01  0.43400722047E+02  0.00000000000E+00 0.  1.
         11    1    3    3    0    0  0.12381537412E+02 -0.54271229983E+01 -0.77880816423E+01  0.15601613656E+02  0.51100000000E-03 0. -1.
        -11    1    3    3    0    0  0.83224335679E+01 -0.46173228644E+01 -0.24241755634E+01  0.98213643833E+01  0.51100000000E-03 0.  1.
        -12    1    3    3    0    0  0.21516932909E+02  0.90501829734E+00  0.60302944126E+01  0.22364299914E+02  0.00000000000E+00 0.  1.
</event>
<event>
 7    1  0.4675811E-010  0.4778727E+02  0.7816164E-02  0.1312668E+00
        -11   -1    0    0    0    0  0.00000000000E+00  0.00000000000E+00  0.45593999997E+02  0.45594000000E+02  0.51100000000E-03 0.  1.
         11   -1    0    0    0    0 -0.00000000000E+00 -0.00000000000E+00 -0.45593999997E+02  0.45594000000E+02  0.51100000000E-03 0. -1.
    9900012    2    1    2    0    0 -0.32039702438E+01 -0.30015334834E+02 -0.31183934984E+02  0.47787267845E+02  0.19999985411E+02 0.  0.
        -12    1    1    2    0    0  0.32039702438E+01  0.30015334834E+02  0.31183934984E+02  0.43400732155E+02  0.00000000000E+00 0.  1.
         11    1    3    3    0    0 -0.37137012561E+01 -0.36039233966E+00 -0.29340527236E+01  0.47465909139E+01  0.51100000000E-03 0. -1.
        -11    1    3    3    0    0  0.94671758638E+00 -0.95999737783E+00 -0.75162890878E+01  0.76362602801E+01  0.51100000000E-03 0.  1.
         12    1    3    3    0    0 -0.43698657411E+00 -0.28694945117E+02 -0.20733593172E+02  0.35404416651E+02  0.00000000000E+00 0. -1.
</event>
<event>
 7    1  0.4675811E-010  0.4778727E+02  0.7816164E-02  0.1312668E+00
        -11   -1    0    0    0    0  0.00000000000E+00  0.00000000000E+00  0.45593999997E+02  0.45594000000E+02  0.51100000000E-03 0. -1.
         11   -1    0    0    0    0 -0.00000000000E+00 -0.00000000000E+00 -0.45593999997E+02  0.45594000000E+02  0.51100000000E-03 0.  1.
    9900012    2    1    2    0    0 -0.82182963463E+01 -0.35820833921E+02  0.23085724898E+02  0.47787271531E+02  0.20000002217E+02 0.  0.
        -12    1    1    2    0    0  0.82182963463E+01  0.35820833921E+02 -0.23085724898E+02  0.43400728469E+02  0.00000000000E+00 0.  1.
         11    1    3    3    0    0  0.41580452678E+00 -0.10135590582E+02  0.19202097345E+01  0.10324257626E+02  0.51100000000E-03 0. -1.
        -11    1    3    3    0    0  0.29790295972E+01 -0.82584642358E+01  0.11311349058E+02  0.14318640531E+02  0.51100000000E-03 0.  1.
         12    1    3    3    0    0 -0.11613130470E+02 -0.17426779103E+02  0.98541661051E+01  0.23144373373E+02  0.00000000000E+00 0. -1.
</event>
<event>
 7    1  0.4675811E-010  0.4778727E+02  0.7816164E-02  0.1312668E+00
        -11   -1    0    0    0    0  0.00000000000E+00  0.00000000000E+00  0.45593999997E+02  0.45594000000E+02  0.51100000000E-03 0.  1.
         11   -1    0    0    0    0 -0.00000000000E+00 -0.00000000000E+00 -0.45593999997E+02  0.45594000000E+02  0.51100000000E-03 0. -1.
    9900012    2    1    2    0    0 -0.53117856369E-01  0.38419051561E+02 -0.20189031018E+02  0.47787270539E+02  0.19999997695E+02 0.  0.
        -12    1    1    2    0    0  0.53117856369E-01 -0.38419051561E+02  0.20189031018E+02  0.43400729461E+02  0.00000000000E+00 0.  1.
         11    1    3    3    0    0  0.70055480868E+01  0.18941071266E+02 -0.97201490673E+01  0.22412567520E+02  0.51100000000E-03 0. -1.
        -11    1    3    3    0    0 -0.20050604758E+00  0.40694960340E+01 -0.70846339442E+01  0.81727008406E+01  0.51100000000E-03 0.  1.
         12    1    3    3    0    0 -0.68581598955E+01  0.15408484261E+02 -0.33842480064E+01  0.17202002178E+02  0.00000000000E+00 0. -1.
</event>
<event>
 7    1  0.4675811E-010  0.4778727E+02  0.7816164E-02  0.1312668E+00
        -11   -1    0    0    0    0  0.00000000000E+00  0.00000000000E+00  0.45593999997E+02  0.45594000000E+02  0.51100000000E-03 0.  1.
         11   -1    0    0    0    0 -0.00000000000E+00 -0.00000000000E+00 -0.45593999997E+02  0.45594000000E+02  0.51100000000E-03 0. -1.
    9900012    2    1    2    0    0 -0.40700492746E+02  0.84025226135E+01 -0.12509634048E+02  0.47787269130E+02  0.19999991270E+02 0.  0.
        -12    1    1    2    0    0  0.40700492746E+02 -0.84025226135E+01  0.12509634048E+02  0.43400730870E+02  0.00000000000E+00 0.  1.
         11    1    3    3    0    0 -0.14420004588E+02  0.70185731218E+01 -0.21180091688E+01  0.16176614728E+02  0.51100000000E-03 0. -1.
        -11    1    3    3    0    0 -0.21868460469E+02 -0.19383464848E+01 -0.26683192070E+01  0.22115756329E+02  0.51100000000E-03 0.  1.
         12    1    3    3    0    0 -0.44120276899E+01  0.33222959764E+01 -0.77233056720E+01  0.94948980718E+01  0.00000000000E+00 0. -1.
</event>
<event>
 7    1  0.4675811E-010  0.4778727E+02  0.7816164E-02  0.1312668E+00
        -11   -1    0    0    0    0  0.00000000000E+00  0.00000000000E+00  0.45593999997E+02  0.45594000000E+02  0.51100000000E-03 0.  1.
         11   -1    0    0    0    0 -0.00000000000E+00 -0.00000000000E+00 -0.45593999997E+02  0.45594000000E+02  0.51100000000E-03 0. -1.
    9900012    2    1    2    0    0  0.63914663323E+00  0.43390849181E+02  0.66990974906E+00  0.47787273276E+02  0.20000010177E+02 0.  0.
        -12    1    1    2    0    0 -0.63914663323E+00 -0.43390849181E+02 -0.66990974906E+00  0.43400726724E+02  0.00000000000E+00 0.  1.
         11    1    3    3    0    0 -0.61524275570E+01  0.18708342201E+02 -0.67407069963E+01  0.20815656699E+02  0.51100000000E-03 0. -1.
        -11    1    3    3    0    0  0.30179666749E+01  0.59348439480E+01  0.65707095742E+00  0.66904587318E+01  0.51100000000E-03 0.  1.
        -12    1    3    3    0    0  0.37736075153E+01  0.18747663032E+02  0.67535457879E+01  0.20281157846E+02  0.00000000000E+00 0.  1.
</event>
<event>
 7    1  0.4675811E-010  0.4778727E+02  0.7816164E-02  0.1312668E+00
        -11   -1    0    0    0    0  0.00000000000E+00  0.00000000000E+00  0.45593999997E+02  0.45594000000E+02  0.51100000000E-03 0.  1.
         11   -1    0    0    0    0 -0.00000000000E+00 -0.00000000000E+00 -0.45593999997E+02  0.45594000000E+02  0.51100000000E-03 0. -1.
    9900012    2    1    2    0    0  0.48992954102E+01  0.49248434752E+00 -0.43120499245E+02  0.47787273146E+02  0.20000009580E+02 0.  0.
        -12    1    1    2    0    0 -0.48992954102E+01 -0.49248434752E+00  0.43120499245E+02  0.43400726854E+02  0.00000000000E+00 0.  1.
         11    1    3    3    0    0 -0.55397960794E+01 -0.26709791420E+01 -0.16013630920E+02  0.17154003780E+02  0.51100000000E-03 0. -1.
        -11    1    3    3    0    0  0.37463938180E+01 -0.30682719721E+01 -0.66582521944E+01  0.82329874335E+01  0.51100000000E-03 0.  1.
        -12    1    3    3    0    0  0.66926976716E+01  0.62317354617E+01 -0.20448616131E+02  0.22400281933E+02  0.00000000000E+00 0.  1.
</event>
<event>
 7    1  0.4675811E-010  0.4778728E+02  0.7816164E-02  0.1312668E+00
        -11   -1    0    0    0    0  0.00000000000E+00  0.00000000000E+00  0.45593999997E+02  0.45594000000E+02  0.51100000000E-03 0.  1.
         11   -1    0    0    0    0 -0.00000000000E+00 -0.00000000000E+00 -0.45593999997E+02  0.45594000000E+02  0.51100000000E-03 0. -1.
    9900012    2    1    2    0    0  0.12950985224E+00  0.38615234378E+02 -0.19810851357E+02  0.47787275002E+02  0.20000018042E+02 0.  0.
        -12    1    1    2    0    0 -0.12950985224E+00 -0.38615234378E+02  0.19810851357E+02  0.43400724998E+02  0.00000000000E+00 0.  1.
         11    1    3    3    0    0  0.47728062900E+01  0.15602877714E+02 -0.15447705491E+02  0.22469113869E+02  0.51100000000E-03 0. -1.
        -11    1    3    3    0    0  0.20294383521E+01  0.46801146051E+01  0.73570741162E+00  0.51539653082E+01  0.51100000000E-03 0.  1.
         12    1    3    3    0    0 -0.66727347899E+01  0.18332242060E+02 -0.50988532772E+01  0.20164195825E+02  0.00000000000E+00 0. -1.
</event>
<event>
 7    1  0.4675811E-010  0.4778727E+02  0.7816164E-02  0.1312668E+00
        -11   -1    0    0    0    0  0.00000000000E+00  0.00000000000E+00  0.45593999997E+02  0.45594000000E+02  0.51100000000E-03 0.  1.
         11   -1    0    0    0    0 -0.00000000000E+00 -0.00000000000E+00 -0.45593999997E+02  0.45594000000E+02  0.51100000000E-03 0. -1.
    9900012    2    1    2    0    0  0.29028303074E+02  0.18533624574E+02 -0.26409953998E+02  0.47787270866E+02  0.19999999184E+02 0.  0.
        -12    1    1    2    0    0 -0.29028303074E+02 -0.18533624574E+02  0.26409953998E+02  0.43400729134E+02  0.00000000000E+00 0.  1.
         11    1    3    3    0    0  0.11726239437E+02  0.97242279454E+01 -0.19366557619E+02  0.24639984877E+02  0.51100000000E-03 0.  1.
        -11    1    3    3    0    0  0.51427031511E+01  0.83918361085E+01 -0.38514845724E+01  0.10569022786E+02  0.51100000000E-03 0. -1.
         12    1    3    3    0    0  0.12159360486E+02  0.41756052017E+00 -0.31919118069E+01  0.12578263203E+02  0.00000000000E+00 0. -1.
</event>
<event>
 7    1  0.4675811E-010  0.4778727E+02  0.7816164E-02  0.1312668E+00
        -11   -1    0    0    0    0  0.00000000000E+00  0.00000000000E+00  0.45593999997E+02  0.45594000000E+02  0.51100000000E-03 0.  1.
         11   -1    0    0    0    0 -0.00000000000E+00 -0.00000000000E+00 -0.45593999997E+02  0.45594000000E+02  0.51100000000E-03 0. -1.
    9900012    2    1    2    0    0 -0.22911944385E+02 -0.36249615093E+02 -0.66806837962E+01  0.47787270445E+02  0.19999997268E+02 0.  0.
        -12    1    1    2    0    0  0.22911944385E+02  0.36249615093E+02  0.66806837962E+01  0.43400729555E+02  0.00000000000E+00 0.  1.
         11    1    3    3    0    0 -0.16011365091E+02 -0.15781439610E+02 -0.89377453422E+00  0.22499255130E+02  0.51100000000E-03 0. -1.
        -11    1    3    3    0    0 -0.10286722794E+02 -0.15523050216E+02 -0.44994358970E+01  0.19157940325E+02  0.51100000000E-03 0.  1.
        -12    1    3    3    0    0  0.33861435000E+01 -0.49451252673E+01 -0.12874733650E+01  0.61300749896E+01  0.00000000000E+00 0.  1.
</event>
<event>
 7    1  0.4675811E-010  0.4778727E+02  0.7816164E-02  0.1312668E+00
        -11   -1    0    0    0    0  0.00000000000E+00  0.00000000000E+00  0.45593999997E+02  0.45594000000E+02  0.51100000000E-03 0.  1.
         11   -1    0    0    0    0 -0.00000000000E+00 -0.00000000000E+00 -0.45593999997E+02  0.45594000000E+02  0.51100000000E-03 0. -1.
    9900012    2    1    2    0    0 -0.36882763718E+02  0.11246207264E+02 -0.19920034509E+02  0.47787271755E+02  0.20000003241E+02 0.  0.
        -12    1    1    2    0    0  0.36882763718E+02 -0.11246207264E+02  0.19920034509E+02  0.43400728245E+02  0.00000000000E+00 0.  1.
         11    1    3    3    0    0 -0.51712470566E+01  0.75346991996E+01 -0.69236293105E+01  0.11465170354E+02  0.51100000000E-03 0. -1.
        -11    1    3    3    0    0  0.82969661171E+00 -0.16160117169E-01  0.41606017116E+00  0.92831241724E+00  0.51100000000E-03 0.  1.
        -12    1    3    3    0    0 -0.32541213273E+02  0.37276681816E+01 -0.13412465370E+02  0.35393788984E+02  0.00000000000E+00 0.  1.
</event>
<event>
 7    1  0.4675811E-010  0.4778727E+02  0.7816164E-02  0.1312668E+00
        -11   -1    0    0    0    0  0.00000000000E+00  0.00000000000E+00  0.45593999997E+02  0.45594000000E+02  0.51100000000E-03 0. -1.
         11   -1    0    0    0    0 -0.00000000000E+00 -0.00000000000E+00 -0.45593999997E+02  0.45594000000E+02  0.51100000000E-03 0.  1.
    9900012    2    1    2    0    0 -0.32579896746E+02  0.14952473979E+02  0.24466240040E+02  0.47787273603E+02  0.20000011666E+02 0.  0.
        -12    1    1    2    0    0  0.32579896746E+02 -0.14952473979E+02 -0.24466240040E+02  0.43400726397E+02  0.00000000000E+00 0.  1.
         11    1    3    3    0    0 -0.22168896085E+02  0.95993228802E+01  0.17062279693E+02  0.29575806701E+02  0.51100000000E-03 0. -1.
        -11    1    3    3    0    0 -0.12511362499E+02  0.66344910421E+01  0.65913433996E+01  0.15620386393E+02  0.51100000000E-03 0.  1.
        -12    1    3    3    0    0  0.21003618391E+01 -0.12813399434E+01  0.81261694761E+00  0.25910805100E+01  0.00000000000E+00 0.  1.
</event>
<event>
 7    1  0.5909514E-010  0.4778727E+02  0.7816164E-02  0.1312668E+00
        -11   -1    0    0    0    0  0.00000000000E+00  0.00000000000E+00  0.45593999997E+02  0.45594000000E+02  0.51100000000E-03 0. -1.
         11   -1    0    0    0    0 -0.00000000000E+00 -0.00000000000E+00 -0.45593999997E+02  0.45594000000E+02  0.51100000000E-03 0.  1.
    9900012    2    1    2    0    0  0.21957940950E+02 -0.26432397923E+02  0.26510384184E+02  0.47787270740E+02  0.19999998611E+02 0.  0.
        -12    1    1    2    0    0 -0.21957940950E+02  0.26432397923E+02 -0.26510384184E+02  0.43400729260E+02  0.00000000000E+00 0.  1.
         11    1    3    3    0    0 -0.11724895100E+01 -0.52973661258E+00  0.17695991057E+01  0.21878834032E+01  0.51100000000E-03 0. -1.
        -11    1    3    3    0    0  0.10734673325E+02 -0.93702073308E+01  0.12349665068E+01  0.14302417256E+02  0.51100000000E-03 0.  1.
         12    1    3    3    0    0  0.12395757135E+02 -0.16532453980E+02  0.23505818572E+02  0.31296970081E+02  0.00000000000E+00 0. -1.
</event>
<event>
 7    1  0.4675811E-010  0.4778727E+02  0.7816164E-02  0.1312668E+00
        -11   -1    0    0    0    0  0.00000000000E+00  0.00000000000E+00  0.45593999997E+02  0.45594000000E+02  0.51100000000E-03 0.  1.
         11   -1    0    0    0    0 -0.00000000000E+00 -0.00000000000E+00 -0.45593999997E+02  0.45594000000E+02  0.51100000000E-03 0. -1.
    9900012    2    1    2    0    0 -0.43154502792E+02 -0.41692170865E+01  0.19824091818E+01  0.47787269263E+02  0.19999991880E+02 0.  0.
        -12    1    1    2    0    0  0.43154502792E+02  0.41692170865E+01 -0.19824091818E+01  0.43400730737E+02  0.00000000000E+00 0.  1.
         11    1    3    3    0    0 -0.20236102004E+02 -0.17140393363E+01  0.60572008863E+01  0.21192626972E+02  0.51100000000E-03 0. -1.
        -11    1    3    3    0    0 -0.14330036007E+02 -0.68532202141E+01  0.55123884480E+00  0.15894037365E+02  0.51100000000E-03 0.  1.
         12    1    3    3    0    0 -0.85883647815E+01  0.43980424638E+01 -0.46260305493E+01  0.10700604926E+02  0.00000000000E+00 0. -1.
</event>
<event>
 7    1  0.4675811E-010  0.4778727E+02  0.7816164E-02  0.1312668E+00
        -11   -1    0    0    0    0  0.00000000000E+00  0.00000000000E+00  0.45593999997E+02  0.45594000000E+02  0.51100000000E-03 0.  1.
         11   -1    0    0    0    0 -0.00000000000E+00 -0.00000000000E+00 -0.45593999997E+02  0.45594000000E+02  0.51100000000E-03 0. -1.
    9900012    2    1    2    0    0 -0.11992217328E+02 -0.25256230857E+02 -0.33195380141E+02  0.47787265718E+02  0.19999975713E+02 0.  0.
        -12    1    1    2    0    0  0.11992217328E+02  0.25256230857E+02  0.33195380141E+02  0.43400734282E+02  0.00000000000E+00 0.  1.
         11    1    3    3    0    0 -0.37230121872E+01 -0.42887578447E+01 -0.16123727095E+02  0.17094702083E+02  0.51100000000E-03 0. -1.
        -11    1    3    3    0    0  0.24908976423E+01 -0.23528329414E+01 -0.32963363217E+00  0.34422452712E+01  0.51100000000E-03 0.  1.
        -12    1    3    3    0    0 -0.10760102783E+02 -0.18614640071E+02 -0.16742019413E+02  0.27250318364E+02  0.00000000000E+00 0.  1.
</event>
<event>
 7    1  0.4675811E-010  0.4778727E+02  0.7816164E-02  0.1312668E+00
        -11   -1    0    0    0    0  0.00000000000E+00  0.00000000000E+00  0.45593999997E+02  0.45594000000E+02  0.51100000000E-03 0.  1.
         11   -1    0    0    0    0 -0.00000000000E+00 -0.00000000000E+00 -0.45593999997E+02  0.45594000000E+02  0.51100000000E-03 0. -1.
    9900012    2    1    2    0    0  0.40232486790E+02  0.74061495550E+01 -0.14495505114E+02  0.47787265985E+02  0.19999976931E+02 0.  0.
        -12    1    1    2    0    0 -0.40232486790E+02 -0.74061495550E+01  0.14495505114E+02  0.43400734015E+02  0.00000000000E+00 0.  1.
         11    1    3    3    0    0  0.15269119577E+02  0.55644236968E+01 -0.75130988239E+01  0.17904063168E+02  0.51100000000E-03 0.  1.
        -11    1    3    3    0    0  0.20417510118E+02 -0.33630280081E+01 -0.91718439972E+01  0.22634208610E+02  0.51100000000E-03 0. -1.
        -12    1    3    3    0    0  0.45458570949E+01  0.52047538663E+01  0.21894377073E+01  0.72489942068E+01  0.00000000000E+00 0.  1.
</event>
<event>
 7    1  0.4675811E-010  0.4778729E+02  0.7816164E-02  0.1312668E+00
        -11   -1    0    0    0    0  0.00000000000E+00  0.00000000000E+00  0.45593999997E+02  0.45594000000E+02  0.51100000000E-03 0. -1.
         11   -1    0    0    0    0 -0.00000000000E+00 -0.00000000000E+00 -0.45593999997E+02  0.45594000000E+02  0.51100000000E-03 0.  1.
    9900012    2    1    2    0    0 -0.36875038802E+02 -0.22835143186E+02 -0.15522988114E+01  0.47787287073E+02  0.20000073082E+02 0.  0.
        -12    1    1    2    0    0  0.36875038802E+02  0.22835143186E+02  0.15522988114E+01  0.43400712927E+02  0.00000000000E+00 0.  1.
         11    1    3    3    0    0 -0.29508098245E+01 -0.14046328683E+01  0.15085882918E+01  0.35994598220E+01  0.51100000000E-03 0. -1.
        -11    1    3    3    0    0 -0.69776876083E+01 -0.86591862256E+01 -0.83448484890E+01  0.13903457376E+02  0.51100000000E-03 0.  1.
        -12    1    3    3    0    0 -0.26946541369E+02 -0.12771324092E+02  0.52839613858E+01  0.30284369875E+02  0.00000000000E+00 0.  1.
</event>
<event>
 7    1  0.4675811E-010  0.4778727E+02  0.7816164E-02  0.1312668E+00
        -11   -1    0    0    0    0  0.00000000000E+00  0.00000000000E+00  0.45593999997E+02  0.45594000000E+02  0.51100000000E-03 0.  1.
         11   -1    0    0    0    0 -0.00000000000E+00 -0.00000000000E+00 -0.45593999997E+02  0.45594000000E+02  0.51100000000E-03 0. -1.
    9900012    2    1    2    0    0  0.22504218184E+02  0.36267685330E+02 -0.78637677912E+01  0.47787266375E+02  0.19999978711E+02 0.  0.
        -12    1    1    2    0    0 -0.22504218184E+02 -0.36267685330E+02  0.78637677912E+01  0.43400733625E+02  0.00000000000E+00 0.  1.
         11    1    3    3    0    0  0.22544394507E+01  0.97001973788E+01 -0.98612749078E+01  0.14015030128E+02  0.51100000000E-03 0. -1.
        -11    1    3    3    0    0  0.73480906475E+01  0.64442611522E+01 -0.12378697825E+00  0.97743675723E+01  0.51100000000E-03 0.  1.
         12    1    3    3    0    0  0.12901688086E+02  0.20123226799E+02  0.21212940948E+01  0.23997868675E+02  0.00000000000E+00 0. -1.
</event>
<event>
 7    1  0.4675811E-010  0.4778728E+02  0.7816164E-02  0.1312668E+00
        -11   -1    0    0    0    0  0.00000000000E+00  0.00000000000E+00  0.45593999997E+02  0.45594000000E+02  0.51100000000E-03 0. -1.
         11   -1    0    0    0    0 -0.00000000000E+00 -0.00000000000E+00 -0.45593999997E+02  0.45594000000E+02  0.51100000000E-03 0.  1.
    9900012    2    1    2    0    0  0.19020945561E+02  0.32332041513E+02  0.21828081795E+02  0.47787280729E+02  0.20000044155E+02 0.  0.
        -12    1    1    2    0    0 -0.19020945561E+02 -0.32332041513E+02 -0.21828081795E+02  0.43400719271E+02  0.00000000000E+00 0.  1.
         11    1    3    3    0    0  0.17464642386E+00  0.98118465311E+01  0.37611019698E+01  0.10509458693E+02  0.51100000000E-03 0. -1.
        -11    1    3    3    0    0  0.22696685807E+01  0.69373673441E+01 -0.12827874185E+01  0.74110731311E+01  0.51100000000E-03 0.  1.
        -12    1    3    3    0    0  0.16576630556E+02  0.15582827638E+02  0.19349767243E+02  0.29866748905E+02  0.00000000000E+00 0.  1.
</event>
<event>
 7    1  0.4675811E-010  0.4778727E+02  0.7816164E-02  0.1312668E+00
        -11   -1    0    0    0    0  0.00000000000E+00  0.00000000000E+00  0.45593999997E+02  0.45594000000E+02  0.51100000000E-03 0.  1.
         11   -1    0    0    0    0 -0.00000000000E+00 -0.00000000000E+00 -0.45593999997E+02  0.45594000000E+02  0.51100000000E-03 0. -1.
    9900012    2    1    2    0    0  0.40756676931E+02  0.20025480048E+00  0.14915645060E+02  0.47787270928E+02  0.19999999468E+02 0.  0.
        -12    1    1    2    0    0 -0.40756676931E+02 -0.20025480048E+00 -0.14915645060E+02  0.43400729072E+02  0.00000000000E+00 0.  1.
         11    1    3    3    0    0  0.59985540321E+01  0.26203318879E+01  0.21562953728E+01  0.68919082752E+01  0.51100000000E-03 0. -1.
        -11    1    3    3    0    0  0.18895402274E+02 -0.74161291852E+01  0.13279137457E+02  0.24256353623E+02  0.51100000000E-03 0.  1.
         12    1    3    3    0    0  0.15862720625E+02  0.49960520978E+01 -0.51978776967E+00  0.16639009030E+02  0.00000000000E+00 0. -1.
</event>
<event>
 7    1  0.4675811E-010  0.4778726E+02  0.7816164E-02  0.1312668E+00
        -11   -1    0    0    0    0  0.00000000000E+00  0.00000000000E+00  0.45593999997E+02  0.45594000000E+02  0.51100000000E-03 0. -1.
         11   -1    0    0    0    0 -0.00000000000E+00 -0.00000000000E+00 -0.45593999997E+02  0.45594000000E+02  0.51100000000E-03 0.  1.
    9900012    2    1    2    0    0  0.33738203714E+02 -0.83211742968E+01  0.26002234032E+02  0.47787256847E+02  0.19999935269E+02 0.  0.
        -12    1    1    2    0    0 -0.33738203714E+02  0.83211742968E+01 -0.26002234032E+02  0.43400743153E+02  0.00000000000E+00 0.  1.
         11    1    3    3    0    0  0.11035145972E+02  0.22467045429E+01 -0.24646938979E+00  0.11264229905E+02  0.51100000000E-03 0.  1.
        -11    1    3    3    0    0  0.11924483296E+02 -0.78475812682E+01  0.14435478247E+02  0.20301745396E+02  0.51100000000E-03 0. -1.
        -12    1    3    3    0    0  0.10778574446E+02 -0.27202975714E+01  0.11813225175E+02  0.16221281546E+02  0.00000000000E+00 0.  1.
</event>
<event>
 7    1  0.4675811E-010  0.4778727E+02  0.7816164E-02  0.1312668E+00
        -11   -1    0    0    0    0  0.00000000000E+00  0.00000000000E+00  0.45593999997E+02  0.45594000000E+02  0.51100000000E-03 0. -1.
         11   -1    0    0    0    0 -0.00000000000E+00 -0.00000000000E+00 -0.45593999997E+02  0.45594000000E+02  0.51100000000E-03 0.  1.
    9900012    2    1    2    0    0  0.35290773895E+02 -0.21138750570E+02 -0.13832492978E+02  0.47787270055E+02  0.19999995487E+02 0.  0.
        -12    1    1    2    0    0 -0.35290773895E+02  0.21138750570E+02  0.13832492978E+02  0.43400729945E+02  0.00000000000E+00 0.  1.
         11    1    3    3    0    0  0.91445386781E+01 -0.92252352321E+01 -0.11203283606E+01  0.13037740932E+02  0.51100000000E-03 0. -1.
        -11    1    3    3    0    0  0.18747780259E+00 -0.28628293238E+01 -0.56949299804E+01  0.63767677868E+01  0.51100000000E-03 0.  1.
         12    1    3    3    0    0  0.25958757415E+02 -0.90506860144E+01 -0.70172346366E+01  0.28372761335E+02  0.00000000000E+00 0. -1.
</event>
<event>
 7    1  0.4675811E-010  0.4778723E+02  0.7816164E-02  0.1312668E+00
        -11   -1    0    0    0    0  0.00000000000E+00  0.00000000000E+00  0.45593999997E+02  0.45594000000E+02  0.51100000000E-03 0.  1.
         11   -1    0    0    0    0 -0.00000000000E+00 -0.00000000000E+00 -0.45593999997E+02  0.45594000000E+02  0.51100000000E-03 0. -1.
    9900012    2    1    2    0    0  0.13527615608E+02 -0.25346579085E+02 -0.32529694596E+02  0.47787234041E+02  0.19999831285E+02 0.  0.
        -12    1    1    2    0    0 -0.13527615608E+02  0.25346579085E+02  0.32529694596E+02  0.43400765959E+02  0.00000000000E+00 0.  1.
         11    1    3    3    0    0  0.57143680853E+01 -0.12518638445E+02 -0.48364589221E+01  0.14586351370E+02  0.51100000000E-03 0. -1.
        -11    1    3    3    0    0  0.57650876667E+01 -0.13563268228E+02 -0.17986641950E+02  0.23253338894E+02  0.51100000000E-03 0.  1.
        -12    1    3    3    0    0  0.20481598557E+01  0.73532758842E+00 -0.97065937246E+01  0.99475437768E+01  0.00000000000E+00 0.  1.
</event>
<event>
 7    1  0.4675811E-010  0.4778728E+02  0.7816164E-02  0.1312668E+00
        -11   -1    0    0    0    0  0.00000000000E+00  0.00000000000E+00  0.45593999997E+02  0.45594000000E+02  0.51100000000E-03 0. -1.
         11   -1    0    0    0    0 -0.00000000000E+00 -0.00000000000E+00 -0.45593999997E+02  0.45594000000E+02  0.51100000000E-03 0.  1.
    9900012    2    1    2    0    0 -0.23948268802E+01  0.17195842231E+02  0.39776756970E+02  0.47787279028E+02  0.20000036399E+02 0.  0.
        -12    1    1    2    0    0  0.23948268802E+01 -0.17195842231E+02 -0.39776756970E+02  0.43400720972E+02  0.00000000000E+00 0.  1.
         11    1    3    3    0    0 -0.18800204931E+01  0.83185594289E+01  0.31067928118E+02  0.32217216916E+02  0.51100000000E-03 0.  1.
        -11    1    3    3    0    0  0.19656874943E+01  0.77211314122E+01  0.97945268866E+01  0.12625868477E+02  0.51100000000E-03 0. -1.
        -12    1    3    3    0    0 -0.24804938814E+01  0.11561513904E+01 -0.10856980344E+01  0.29441936341E+01  0.00000000000E+00 0.  1.
</event>
<event>
 7    1  0.4675811E-010  0.4778728E+02  0.7816164E-02  0.1312668E+00
        -11   -1    0    0    0    0  0.00000000000E+00  0.00000000000E+00  0.45593999997E+02  0.45594000000E+02  0.51100000000E-03 0.  1.
         11   -1    0    0    0    0 -0.00000000000E+00 -0.00000000000E+00 -0.45593999997E+02  0.45594000000E+02  0.51100000000E-03 0. -1.
    9900012    2    1    2    0    0  0.22220684317E+02  0.31247067202E+02  0.20334320404E+02  0.47787278732E+02  0.20000035053E+02 0.  0.
        -12    1    1    2    0    0 -0.22220684317E+02 -0.31247067202E+02 -0.20334320404E+02  0.43400721268E+02  0.00000000000E+00 0.  1.
         11    1    3    3    0    0  0.37286449127E+01  0.34857038043E+01  0.35477012685E+01  0.62160363937E+01  0.51100000000E-03 0. -1.
        -11    1    3    3    0    0  0.13007056769E+02  0.71876107910E+01  0.68583460047E+00  0.14876681217E+02  0.51100000000E-03 0.  1.
        -12    1    3    3    0    0  0.54849826353E+01  0.20573752607E+02  0.16100784535E+02  0.26694561122E+02  0.00000000000E+00 0.  1.
</event>
<event>
 7    1  0.4675811E-010  0.4778727E+02  0.7816164E-02  0.1312668E+00
        -11   -1    0    0    0    0  0.00000000000E+00  0.00000000000E+00  0.45593999997E+02  0.45594000000E+02  0.51100000000E-03 0. -1.
         11   -1    0    0    0    0 -0.00000000000E+00 -0.00000000000E+00 -0.45593999997E+02  0.45594000000E+02  0.51100000000E-03 0.  1.
    9900012    2    1    2    0    0  0.22060286029E+02  0.14779134801E+01  0.37346791571E+02  0.47787270875E+02  0.19999999227E+02 0.  0.
        -12    1    1    2    0    0 -0.22060286029E+02 -0.14779134801E+01 -0.37346791571E+02  0.43400729125E+02  0.00000000000E+00 0.  1.
         11    1    3    3    0    0  0.22684139334E+02  0.18800014090E+01  0.32494916943E+02  0.39673973963E+02  0.51100000000E-03 0. -1.
        -11    1    3    3    0    0  0.10103859317E+01  0.27081419610E+01  0.28981329546E+01  0.40931757225E+01  0.51100000000E-03 0.  1.
         12    1    3    3    0    0 -0.16342392366E+01 -0.31102298899E+01  0.19537416734E+01  0.40201211894E+01  0.00000000000E+00 0. -1.
</event>
<event>
 7    1  0.4675811E-010  0.4778727E+02  0.7816164E-02  0.1312668E+00
        -11   -1    0    0    0    0  0.00000000000E+00  0.00000000000E+00  0.45593999997E+02  0.45594000000E+02  0.51100000000E-03 0.  1.
         11   -1    0    0    0    0 -0.00000000000E+00 -0.00000000000E+00 -0.45593999997E+02  0.45594000000E+02  0.51100000000E-03 0. -1.
    9900012    2    1    2    0    0  0.33898555141E+01  0.43093306200E+02  0.38857376869E+01  0.47787272851E+02  0.20000008239E+02 0.  0.
        -12    1    1    2    0    0 -0.33898555141E+01 -0.43093306200E+02 -0.38857376869E+01  0.43400727149E+02  0.00000000000E+00 0.  1.
         11    1    3    3    0    0 -0.51960284089E+00  0.44204319189E+00 -0.32241633354E+01  0.32955452918E+01  0.51100000000E-03 0. -1.
        -11    1    3    3    0    0  0.25191271770E+01  0.40044727477E+01  0.30004896039E+01  0.56022086578E+01  0.51100000000E-03 0.  1.
        -12    1    3    3    0    0  0.13903311779E+01  0.38646790260E+02  0.41094114184E+01  0.38889518902E+02  0.00000000000E+00 0.  1.
</event>
<event>
 7    1  0.4675811E-010  0.4778727E+02  0.7816164E-02  0.1312668E+00
        -11   -1    0    0    0    0  0.00000000000E+00  0.00000000000E+00  0.45593999997E+02  0.45594000000E+02  0.51100000000E-03 0.  1.
         11   -1    0    0    0    0 -0.00000000000E+00 -0.00000000000E+00 -0.45593999997E+02  0.45594000000E+02  0.51100000000E-03 0. -1.
    9900012    2    1    2    0    0 -0.11876988445E+02  0.68348464627E+01 -0.41180644272E+02  0.47787269092E+02  0.19999991100E+02 0.  0.
        -12    1    1    2    0    0  0.11876988445E+02 -0.68348464627E+01  0.41180644272E+02  0.43400730908E+02  0.00000000000E+00 0.  1.
         11    1    3    3    0    0 -0.11593979270E+02  0.40934294820E+01 -0.27035972762E+02  0.29700510832E+02  0.51100000000E-03 0. -1.
        -11    1    3    3    0    0 -0.48091890893E+01  0.12809970925E+01 -0.26310701338E+01  0.56295455907E+01  0.51100000000E-03 0.  1.
        -12    1    3    3    0    0  0.45261799135E+01  0.14604198882E+01 -0.11513601375E+02  0.12457212669E+02  0.00000000000E+00 0.  1.
</event>
<event>
 7    1  0.4675811E-010  0.4778727E+02  0.7816164E-02  0.1312668E+00
        -11   -1    0    0    0    0  0.00000000000E+00  0.00000000000E+00  0.45593999997E+02  0.45594000000E+02  0.51100000000E-03 0. -1.
         11   -1    0    0    0    0 -0.00000000000E+00 -0.00000000000E+00 -0.45593999997E+02  0.45594000000E+02  0.51100000000E-03 0.  1.
    9900012    2    1    2    0    0 -0.38118194015E+02  0.79336344477E+01 -0.19175082202E+02  0.47787273647E+02  0.20000011865E+02 0.  0.
        -12    1    1    2    0    0  0.38118194015E+02 -0.79336344477E+01  0.19175082202E+02  0.43400726353E+02  0.00000000000E+00 0.  1.
         11    1    3    3    0    0 -0.19095412219E+02  0.91561431414E+01 -0.10133595561E+02  0.23476786072E+02  0.51100000000E-03 0. -1.
        -11    1    3    3    0    0 -0.16291702612E+02 -0.75499427955E+00 -0.12006707341E+02  0.20252175483E+02  0.51100000000E-03 0.  1.
        -12    1    3    3    0    0 -0.27310791842E+01 -0.46751441422E+00  0.29652206991E+01  0.40583120915E+01  0.00000000000E+00 0.  1.
</event>
<event>
 7    1  0.4675811E-010  0.4778727E+02  0.7816164E-02  0.1312668E+00
        -11   -1    0    0    0    0  0.00000000000E+00  0.00000000000E+00  0.45593999997E+02  0.45594000000E+02  0.51100000000E-03 0. -1.
         11   -1    0    0    0    0 -0.00000000000E+00 -0.00000000000E+00 -0.45593999997E+02  0.45594000000E+02  0.51100000000E-03 0.  1.
    9900012    2    1    2    0    0 -0.15068347477E+01 -0.34812792991E+02  0.25873197891E+02  0.47787268717E+02  0.19999989387E+02 0.  0.
        -12    1    1    2    0    0  0.15068347477E+01  0.34812792991E+02 -0.25873197891E+02  0.43400731283E+02  0.00000000000E+00 0.  1.
         11    1    3    3    0    0  0.22703275063E+01  0.68608247962E+00 -0.23364002537E+00  0.23832087775E+01  0.51100000000E-03 0. -1.
        -11    1    3    3    0    0 -0.55271190290E+01 -0.19837609255E+02  0.10081384316E+02  0.22928456026E+02  0.51100000000E-03 0.  1.
         12    1    3    3    0    0  0.17499567750E+01 -0.15661266215E+02  0.16025453600E+02  0.22475603914E+02  0.00000000000E+00 0. -1.
</event>
<event>
 7    1  0.4675811E-010  0.4778727E+02  0.7816164E-02  0.1312668E+00
        -11   -1    0    0    0    0  0.00000000000E+00  0.00000000000E+00  0.45593999997E+02  0.45594000000E+02  0.51100000000E-03 0. -1.
         11   -1    0    0    0    0 -0.00000000000E+00 -0.00000000000E+00 -0.45593999997E+02  0.45594000000E+02  0.51100000000E-03 0.  1.
    9900012    2    1    2    0    0  0.37672467130E+02  0.21644532768E+01  0.21441165212E+02  0.47787271857E+02  0.20000003705E+02 0.  0.
        -12    1    1    2    0    0 -0.37672467130E+02 -0.21644532768E+01 -0.21441165212E+02  0.43400728143E+02  0.00000000000E+00 0.  1.
         11    1    3    3    0    0  0.15231335354E+02 -0.10021081848E+01  0.39955328328E+01  0.15778532263E+02  0.51100000000E-03 0. -1.
        -11    1    3    3    0    0  0.11672248573E+02 -0.55226238220E+01  0.71393361311E+01  0.14755029016E+02  0.51100000000E-03 0.  1.
         12    1    3    3    0    0  0.10768883204E+02  0.86891852836E+01  0.10306296248E+02  0.17253710578E+02  0.00000000000E+00 0. -1.
</event>
<event>
 7    1  0.4675811E-010  0.4778727E+02  0.7816164E-02  0.1312668E+00
        -11   -1    0    0    0    0  0.00000000000E+00  0.00000000000E+00  0.45593999997E+02  0.45594000000E+02  0.51100000000E-03 0. -1.
         11   -1    0    0    0    0 -0.00000000000E+00 -0.00000000000E+00 -0.45593999997E+02  0.45594000000E+02  0.51100000000E-03 0.  1.
    9900012    2    1    2    0    0  0.22321263006E+02 -0.35394261884E+02 -0.11516532728E+02  0.47787273248E+02  0.20000010049E+02 0.  0.
        -12    1    1    2    0    0 -0.22321263006E+02  0.35394261884E+02  0.11516532728E+02  0.43400726752E+02  0.00000000000E+00 0.  1.
         11    1    3    3    0    0  0.94992098257E+01 -0.12796404582E+02 -0.42811092857E+01  0.16501843973E+02  0.51100000000E-03 0. -1.
        -11    1    3    3    0    0  0.16379200603E+02 -0.19013441693E+02 -0.43515011282E+01  0.25470075377E+02  0.51100000000E-03 0.  1.
        -12    1    3    3    0    0 -0.35571474224E+01 -0.35844156087E+01 -0.28839223144E+01  0.58153538977E+01  0.00000000000E+00 0.  1.
</event>
<event>
 7    1  0.4675811E-010  0.4778729E+02  0.7816164E-02  0.1312668E+00
        -11   -1    0    0    0    0  0.00000000000E+00  0.00000000000E+00  0.45593999997E+02  0.45594000000E+02  0.51100000000E-03 0.  1.
         11   -1    0    0    0    0 -0.00000000000E+00 -0.00000000000E+00 -0.45593999997E+02  0.45594000000E+02  0.51100000000E-03 0. -1.
    9900012    2    1    2    0    0 -0.43176069842E+02 -0.22397701712E+01  0.37989663663E+01  0.47787288913E+02  0.20000081471E+02 0.  0.
        -12    1    1    2    0    0  0.43176069842E+02  0.22397701712E+01 -0.37989663663E+01  0.43400711087E+02  0.00000000000E+00 0.  1.
         11    1    3    3    0    0 -0.12370883647E+02  0.15508897734E+01 -0.55293883614E+01  0.13638847356E+02  0.51100000000E-03 0. -1.
        -11    1    3    3    0    0 -0.60526658875E+01  0.31783907571E+01  0.38868598596E+01  0.78641345347E+01  0.51100000000E-03 0.  1.
         12    1    3    3    0    0 -0.24752520307E+02 -0.69690507018E+01  0.54414948681E+01  0.26284307022E+02  0.00000000000E+00 0. -1.
</event>
<event>
 7    1  0.4675811E-010  0.4778729E+02  0.7816164E-02  0.1312668E+00
        -11   -1    0    0    0    0  0.00000000000E+00  0.00000000000E+00  0.45593999997E+02  0.45594000000E+02  0.51100000000E-03 0.  1.
         11   -1    0    0    0    0 -0.00000000000E+00 -0.00000000000E+00 -0.45593999997E+02  0.45594000000E+02  0.51100000000E-03 0. -1.
    9900012    2    1    2    0    0  0.44282087320E+01  0.36378447110E+02 -0.23251252646E+02  0.47787294979E+02  0.20000109129E+02 0.  0.
        -12    1    1    2    0    0 -0.44282087320E+01 -0.36378447110E+02  0.23251252646E+02  0.43400705021E+02  0.00000000000E+00 0.  1.
         11    1    3    3    0    0  0.34090952121E+01  0.35588661884E+01 -0.14923923051E+01  0.51492420574E+01  0.51100000000E-03 0.  1.
        -11    1    3    3    0    0 -0.30063527871E+01  0.17040508619E+02 -0.19705757355E+02  0.26224682349E+02  0.51100000000E-03 0. -1.
         12    1    3    3    0    0  0.40254663069E+01  0.15779072302E+02 -0.20531029851E+01  0.16413370573E+02  0.00000000000E+00 0. -1.
</event>
<event>
 7    1  0.4675811E-010  0.4778727E+02  0.7816164E-02  0.1312668E+00
        -11   -1    0    0    0    0  0.00000000000E+00  0.00000000000E+00  0.45593999997E+02  0.45594000000E+02  0.51100000000E-03 0.  1.
         11   -1    0    0    0    0 -0.00000000000E+00 -0.00000000000E+00 -0.45593999997E+02  0.45594000000E+02  0.51100000000E-03 0. -1.
    9900012    2    1    2    0    0 -0.23748701422E+02  0.85306207744E+01 -0.35310778967E+02  0.47787269346E+02  0.19999992258E+02 0.  0.
        -12    1    1    2    0    0  0.23748701422E+02 -0.85306207744E+01  0.35310778967E+02  0.43400730654E+02  0.00000000000E+00 0.  1.
         11    1    3    3    0    0 -0.10032791460E+02 -0.66422412207E+00 -0.26321556633E+02  0.28176629359E+02  0.51100000000E-03 0. -1.
        -11    1    3    3    0    0 -0.51258812184E+01  0.16453422284E+01 -0.53987344472E+01  0.76241814778E+01  0.51100000000E-03 0.  1.
        -12    1    3    3    0    0 -0.85900287437E+01  0.75495026681E+01 -0.35904878865E+01  0.11986458510E+02  0.00000000000E+00 0.  1.
</event>
<event>
 7    1  0.4675811E-010  0.4778728E+02  0.7816164E-02  0.1312668E+00
        -11   -1    0    0    0    0  0.00000000000E+00  0.00000000000E+00  0.45593999997E+02  0.45594000000E+02  0.51100000000E-03 0.  1.
         11   -1    0    0    0    0 -0.00000000000E+00 -0.00000000000E+00 -0.45593999997E+02  0.45594000000E+02  0.51100000000E-03 0. -1.
    9900012    2    1    2    0    0 -0.24508218700E+02  0.24188905797E+02 -0.26417169856E+02  0.47787276380E+02  0.20000024328E+02 0.  0.
        -12    1    1    2    0    0  0.24508218700E+02 -0.24188905797E+02  0.26417169856E+02  0.43400723620E+02  0.00000000000E+00 0.  1.
         11    1    3    3    0    0 -0.53188974408E+01  0.10872314515E+01 -0.11306784157E+01  0.55453743025E+01  0.51100000000E-03 0. -1.
        -11    1    3    3    0    0 -0.19215308861E+01  0.11143278875E+02 -0.31763790024E+01  0.11745396071E+02  0.51100000000E-03 0.  1.
         12    1    3    3    0    0 -0.17267790373E+02  0.11958395471E+02 -0.22110112438E+02  0.30496506007E+02  0.00000000000E+00 0. -1.
</event>
<event>
 7    1  0.4675811E-010  0.4778727E+02  0.7816164E-02  0.1312668E+00
        -11   -1    0    0    0    0  0.00000000000E+00  0.00000000000E+00  0.45593999997E+02  0.45594000000E+02  0.51100000000E-03 0.  1.
         11   -1    0    0    0    0 -0.00000000000E+00 -0.00000000000E+00 -0.45593999997E+02  0.45594000000E+02  0.51100000000E-03 0. -1.
    9900012    2    1    2    0    0  0.36250649278E+02  0.21808246801E+02  0.96909304620E+01  0.47787270343E+02  0.19999996801E+02 0.  0.
        -12    1    1    2    0    0 -0.36250649278E+02 -0.21808246801E+02 -0.96909304620E+01  0.43400729657E+02  0.00000000000E+00 0.  1.
         11    1    3    3    0    0  0.36773247860E+01  0.25618227645E+01  0.39355019880E+01  0.59643800698E+01  0.51100000000E-03 0. -1.
        -11    1    3    3    0    0  0.22959670517E+02  0.38600064093E+01  0.31676774151E+01  0.23496389088E+02  0.51100000000E-03 0.  1.
        -12    1    3    3    0    0  0.96136539751E+01  0.15386417627E+02  0.25877510589E+01  0.18326501185E+02  0.00000000000E+00 0.  1.
</event>
<event>
 7    1  0.4675811E-010  0.4778727E+02  0.7816164E-02  0.1312668E+00
        -11   -1    0    0    0    0  0.00000000000E+00  0.00000000000E+00  0.45593999997E+02  0.45594000000E+02  0.51100000000E-03 0. -1.
         11   -1    0    0    0    0 -0.00000000000E+00 -0.00000000000E+00 -0.45593999997E+02  0.45594000000E+02  0.51100000000E-03 0.  1.
    9900012    2    1    2    0    0  0.54177374134E+00  0.24309225366E+02  0.35949847357E+02  0.47787268650E+02  0.19999989085E+02 0.  0.
        -12    1    1    2    0    0 -0.54177374134E+00 -0.24309225366E+02 -0.35949847357E+02  0.43400731350E+02  0.00000000000E+00 0.  1.
         11    1    3    3    0    0  0.17578208398E+00  0.12316684678E+02  0.24009607926E+02  0.26985049450E+02  0.51100000000E-03 0. -1.
        -11    1    3    3    0    0  0.38319927539E+01  0.97903519672E+01  0.12843202664E+02  0.16597681014E+02  0.51100000000E-03 0.  1.
        -12    1    3    3    0    0 -0.34660010965E+01  0.22021887202E+01 -0.90296323274E+00  0.42045381863E+01  0.00000000000E+00 0.  1.
</event>
<event>
 7    1  0.4675811E-010  0.4778727E+02  0.7816164E-02  0.1312668E+00
        -11   -1    0    0    0    0  0.00000000000E+00  0.00000000000E+00  0.45593999997E+02  0.45594000000E+02  0.51100000000E-03 0.  1.
         11   -1    0    0    0    0 -0.00000000000E+00 -0.00000000000E+00 -0.45593999997E+02  0.45594000000E+02  0.51100000000E-03 0. -1.
    9900012    2    1    2    0    0 -0.21791679018E+02 -0.37476091610E+02 -0.20708996881E+01  0.47787270256E+02  0.19999996406E+02 0.  0.
        -12    1    1    2    0    0  0.21791679018E+02  0.37476091610E+02  0.20708996881E+01  0.43400729744E+02  0.00000000000E+00 0.  1.
         11    1    3    3    0    0 -0.16090249723E+02 -0.18034475822E+02  0.52088631452E+01  0.24723889456E+02  0.51100000000E-03 0. -1.
        -11    1    3    3    0    0 -0.37241064112E-01 -0.78591947991E+01  0.71643828238E+00  0.78918701117E+01  0.51100000000E-03 0.  1.
        -12    1    3    3    0    0 -0.56641882316E+01 -0.11582420988E+02 -0.79962011157E+01  0.15171510688E+02  0.00000000000E+00 0.  1.
</event>
<event>
 7    1  0.4675811E-010  0.4778727E+02  0.7816164E-02  0.1312668E+00
        -11   -1    0    0    0    0  0.00000000000E+00  0.00000000000E+00  0.45593999997E+02  0.45594000000E+02  0.51100000000E-03 0.  1.
         11   -1    0    0    0    0 -0.00000000000E+00 -0.00000000000E+00 -0.45593999997E+02  0.45594000000E+02  0.51100000000E-03 0. -1.
    9900012    2    1    2    0    0  0.29670472794E+01  0.74786352127E+01 -0.42648443021E+02  0.47787273666E+02  0.20000011952E+02 0.  0.
        -12    1    1    2    0    0 -0.29670472794E+01 -0.74786352127E+01  0.42648443021E+02  0.43400726334E+02  0.00000000000E+00 0.  1.
         11    1    3    3    0    0  0.12825266479E+01  0.91418093719E+00 -0.68055613654E+01  0.69854324954E+01  0.51100000000E-03 0. -1.
        -11    1    3    3    0    0 -0.51978252556E+01 -0.39384316560E+01 -0.85001346775E+01  0.10713585819E+02  0.51100000000E-03 0.  1.
        -12    1    3    3    0    0  0.68823458870E+01  0.10502885932E+02 -0.27342746978E+02  0.30088255352E+02  0.00000000000E+00 0.  1.
</event>
<event>
 7    1  0.4675811E-010  0.4778727E+02  0.7816164E-02  0.1312668E+00
        -11   -1    0    0    0    0  0.00000000000E+00  0.00000000000E+00  0.45593999997E+02  0.45594000000E+02  0.51100000000E-03 0. -1.
         11   -1    0    0    0    0 -0.00000000000E+00 -0.00000000000E+00 -0.45593999997E+02  0.45594000000E+02  0.51100000000E-03 0.  1.
    9900012    2    1    2    0    0 -0.39013259001E+02  0.55080738036E+01  0.18200278833E+02  0.47787269539E+02  0.19999993136E+02 0.  0.
        -12    1    1    2    0    0  0.39013259001E+02 -0.55080738036E+01 -0.18200278833E+02  0.43400730461E+02  0.00000000000E+00 0.  1.
         11    1    3    3    0    0 -0.11371888056E+02 -0.52502733856E+01  0.87789839924E+00  0.12556110642E+02  0.51100000000E-03 0. -1.
        -11    1    3    3    0    0  0.23835243836E+00 -0.52054925066E+00  0.12277578429E+00  0.58554040131E+00  0.51100000000E-03 0.  1.
         12    1    3    3    0    0 -0.27879723384E+02  0.11278896440E+02  0.17199604650E+02  0.34645618496E+02  0.00000000000E+00 0. -1.
</event>
<event>
 7    1  0.4675811E-010  0.4778727E+02  0.7816164E-02  0.1312668E+00
        -11   -1    0    0    0    0  0.00000000000E+00  0.00000000000E+00  0.45593999997E+02  0.45594000000E+02  0.51100000000E-03 0.  1.
         11   -1    0    0    0    0 -0.00000000000E+00 -0.00000000000E+00 -0.45593999997E+02  0.45594000000E+02  0.51100000000E-03 0. -1.
    9900012    2    1    2    0    0 -0.18747283399E+02  0.18942843270E+02 -0.34253921675E+02  0.47787273092E+02  0.20000009337E+02 0.  0.
        -12    1    1    2    0    0  0.18747283399E+02 -0.18942843270E+02  0.34253921675E+02  0.43400726908E+02  0.00000000000E+00 0.  1.
         11    1    3    3    0    0 -0.13200671315E+02  0.15818203417E+02 -0.18779658385E+02  0.27877389616E+02  0.51100000000E-03 0. -1.
        -11    1    3    3    0    0 -0.19943172299E+01  0.22706765186E+01  0.88386275777E+00  0.31487277909E+01  0.51100000000E-03 0.  1.
         12    1    3    3    0    0 -0.35522948544E+01  0.85396333461E+00 -0.16358126048E+02  0.16761155685E+02  0.00000000000E+00 0. -1.
</event>
<event>
 7    1  0.4675811E-010  0.4778727E+02  0.7816164E-02  0.1312668E+00
        -11   -1    0    0    0    0  0.00000000000E+00  0.00000000000E+00  0.45593999997E+02  0.45594000000E+02  0.51100000000E-03 0.  1.
         11   -1    0    0    0    0 -0.00000000000E+00 -0.00000000000E+00 -0.45593999997E+02  0.45594000000E+02  0.51100000000E-03 0. -1.
    9900012    2    1    2    0    0 -0.28279507172E+02 -0.30582456066E+02 -0.12190404754E+02  0.47787272898E+02  0.20000008451E+02 0.  0.
        -12    1    1    2    0    0  0.28279507172E+02  0.30582456066E+02  0.12190404754E+02  0.43400727102E+02  0.00000000000E+00 0.  1.
         11    1    3    3    0    0  0.15625919137E+01 -0.25926152065E+00 -0.33881594997E+00  0.16197859531E+01  0.51100000000E-03 0. -1.
        -11    1    3    3    0    0 -0.16227758795E+02 -0.16114965589E+02  0.60554446934E+00  0.22877914149E+02  0.51100000000E-03 0.  1.
         12    1    3    3    0    0 -0.13614340290E+02 -0.14208228957E+02 -0.12457133274E+02  0.23289572796E+02  0.00000000000E+00 0. -1.
</event>
<event>
 7    1  0.4675811E-010  0.4778731E+02  0.7816164E-02  0.1312668E+00
        -11   -1    0    0    0    0  0.00000000000E+00  0.00000000000E+00  0.45593999997E+02  0.45594000000E+02  0.51100000000E-03 0. -1.
         11   -1    0    0    0    0 -0.00000000000E+00 -0.00000000000E+00 -0.45593999997E+02  0.45594000000E+02  0.51100000000E-03 0.  1.
    9900012    2    1    2    0    0 -0.40056795132E+01  0.42828018603E+02 -0.57737053413E+01  0.47787305084E+02  0.20000155198E+02 0.  0.
        -12    1    1    2    0    0  0.40056795132E+01 -0.42828018603E+02  0.57737053413E+01  0.43400694916E+02  0.00000000000E+00 0.  1.
         11    1    3    3    0    0 -0.27244368266E+01  0.19183493516E+02 -0.42336947406E+01  0.19833132655E+02  0.51100000000E-03 0. -1.
        -11    1    3    3    0    0 -0.45905973917E+01  0.21414839008E+02 -0.52322120937E+01  0.22517658799E+02  0.51100000000E-03 0.  1.
        -12    1    3    3    0    0  0.33093547051E+01  0.22296860795E+01  0.36922014929E+01  0.54365136293E+01  0.00000000000E+00 0.  1.
</event>
<event>
 7    1  0.4675811E-010  0.4778727E+02  0.7816164E-02  0.1312668E+00
        -11   -1    0    0    0    0  0.00000000000E+00  0.00000000000E+00  0.45593999997E+02  0.45594000000E+02  0.51100000000E-03 0.  1.
         11   -1    0    0    0    0 -0.00000000000E+00 -0.00000000000E+00 -0.45593999997E+02  0.45594000000E+02  0.51100000000E-03 0. -1.
    9900012    2    1    2    0    0 -0.34902964906E+02 -0.13254398183E+02 -0.22129781157E+02  0.47787271383E+02  0.20000001544E+02 0.  0.
        -12    1    1    2    0    0  0.34902964906E+02  0.13254398183E+02  0.22129781157E+02  0.43400728617E+02  0.00000000000E+00 0.  1.
         11    1    3    3    0    0 -0.63592588628E+01 -0.58241934738E+01 -0.81740350270E+01  0.11881761308E+02  0.51100000000E-03 0. -1.
        -11    1    3    3    0    0 -0.42299802784E+00 -0.44148616505E+01 -0.38477813035E+01  0.58715715056E+01  0.51100000000E-03 0.  1.
        -12    1    3    3    0    0 -0.28120708015E+02 -0.30153430585E+01 -0.10107964827E+02  0.30033938569E+02  0.00000000000E+00 0.  1.
</event>
<event>
 7    1  0.4675811E-010  0.4778727E+02  0.7816164E-02  0.1312668E+00
        -11   -1    0    0    0    0  0.00000000000E+00  0.00000000000E+00  0.45593999997E+02  0.45594000000E+02  0.51100000000E-03 0. -1.
         11   -1    0    0    0    0 -0.00000000000E+00 -0.00000000000E+00 -0.45593999997E+02  0.45594000000E+02  0.51100000000E-03 0.  1.
    9900012    2    1    2    0    0  0.34247572422E+02 -0.15293487735E+02  0.21836577810E+02  0.47787272882E+02  0.20000008378E+02 0.  0.
        -12    1    1    2    0    0 -0.34247572422E+02  0.15293487735E+02 -0.21836577810E+02  0.43400727118E+02  0.00000000000E+00 0.  1.
         11    1    3    3    0    0  0.24923364220E+02 -0.12417267800E+01  0.14596905010E+02  0.28909956859E+02  0.51100000000E-03 0. -1.
        -11    1    3    3    0    0  0.39679509828E+01 -0.39852810408E+01  0.53433761736E+00  0.56491253241E+01  0.51100000000E-03 0.  1.
         12    1    3    3    0    0  0.53562572196E+01 -0.10066479914E+02  0.67053351829E+01  0.13228190699E+02  0.00000000000E+00 0. -1.
</event>
<event>
 7    1  0.4675811E-010  0.4778727E+02  0.7816164E-02  0.1312668E+00
        -11   -1    0    0    0    0  0.00000000000E+00  0.00000000000E+00  0.45593999997E+02  0.45594000000E+02  0.51100000000E-03 0.  1.
         11   -1    0    0    0    0 -0.00000000000E+00 -0.00000000000E+00 -0.45593999997E+02  0.45594000000E+02  0.51100000000E-03 0. -1.
    9900012    2    1    2    0    0  0.13086714543E+02 -0.35333507897E+02 -0.21538441181E+02  0.47787270439E+02  0.19999997242E+02 0.  0.
        -12    1    1    2    0    0 -0.13086714543E+02  0.35333507897E+02  0.21538441181E+02  0.43400729561E+02  0.00000000000E+00 0.  1.
         11    1    3    3    0    0  0.74327666177E+01 -0.16947346407E+02 -0.67070716673E+01  0.19683581494E+02  0.51100000000E-03 0. -1.
        -11    1    3    3    0    0 -0.44178884779E+01 -0.54996188668E+01 -0.71147244687E+01  0.10019124254E+02  0.51100000000E-03 0.  1.
         12    1    3    3    0    0  0.10071836403E+02 -0.12886542624E+02 -0.77166450453E+01  0.18084564692E+02  0.00000000000E+00 0. -1.
</event>
<event>
 7    1  0.4675811E-010  0.4778727E+02  0.7816164E-02  0.1312668E+00
        -11   -1    0    0    0    0  0.00000000000E+00  0.00000000000E+00  0.45593999997E+02  0.45594000000E+02  0.51100000000E-03 0.  1.
         11   -1    0    0    0    0 -0.00000000000E+00 -0.00000000000E+00 -0.45593999997E+02  0.45594000000E+02  0.51100000000E-03 0. -1.
    9900012    2    1    2    0    0  0.22757620387E+02 -0.35815860275E+02 -0.91070283910E+01  0.47787273058E+02  0.20000009182E+02 0.  0.
        -12    1    1    2    0    0 -0.22757620387E+02  0.35815860275E+02  0.91070283910E+01  0.43400726942E+02  0.00000000000E+00 0.  1.
         11    1    3    3    0    0  0.16244398787E+02 -0.34115517030E+02 -0.25286522161E+01  0.37870081548E+02  0.51100000000E-03 0. -1.
        -11    1    3    3    0    0 -0.31770112931E+00  0.89031541081E-01 -0.50518031704E+00  0.60338050740E+00  0.51100000000E-03 0.  1.
         12    1    3    3    0    0  0.68309227294E+01 -0.17893747863E+01 -0.60731958579E+01  0.93138110024E+01  0.00000000000E+00 0. -1.
</event>
<event>
 7    1  0.4675811E-010  0.4778725E+02  0.7816164E-02  0.1312668E+00
        -11   -1    0    0    0    0  0.00000000000E+00  0.00000000000E+00  0.45593999997E+02  0.45594000000E+02  0.51100000000E-03 0.  1.
         11   -1    0    0    0    0 -0.00000000000E+00 -0.00000000000E+00 -0.45593999997E+02  0.45594000000E+02  0.51100000000E-03 0. -1.
    9900012    2    1    2    0    0 -0.20090936449E+02 -0.26185139553E+02 -0.28183637428E+02  0.47787254851E+02  0.19999926168E+02 0.  0.
        -12    1    1    2    0    0  0.20090936449E+02  0.26185139553E+02  0.28183637428E+02  0.43400745149E+02  0.00000000000E+00 0.  1.
         11    1    3    3    0    0 -0.12877495104E+02 -0.11043196177E+02 -0.15411034750E+02  0.22919032577E+02  0.51100000000E-03 0. -1.
        -11    1    3    3    0    0 -0.67140905982E+01 -0.34944918551E+01  0.81955103517E-02  0.75690523392E+01  0.51100000000E-03 0.  1.
         12    1    3    3    0    0 -0.49935074760E+00 -0.11647451521E+02 -0.12780798189E+02  0.17299169935E+02  0.00000000000E+00 0. -1.
</event>
<event>
 7    1  0.4796213E-010  0.4778727E+02  0.7816164E-02  0.1312668E+00
        -11   -1    0    0    0    0  0.00000000000E+00  0.00000000000E+00  0.45593999997E+02  0.45594000000E+02  0.51100000000E-03 0. -1.
         11   -1    0    0    0    0 -0.00000000000E+00 -0.00000000000E+00 -0.45593999997E+02  0.45594000000E+02  0.51100000000E-03 0.  1.
    9900012    2    1    2    0    0  0.42650320634E+02  0.48219599123E+01  0.64282087608E+01  0.47787274021E+02  0.20000013572E+02 0.  0.
        -12    1    1    2    0    0 -0.42650320634E+02 -0.48219599123E+01 -0.64282087608E+01  0.43400725979E+02  0.00000000000E+00 0.  1.
         11    1    3    3    0    0  0.14859286941E+02 -0.20589025257E+01 -0.31496783907E+01  0.15328338534E+02  0.51100000000E-03 0. -1.
        -11    1    3    3    0    0  0.22692565909E+02  0.32184260739E+00  0.66221822814E+01  0.23641265377E+02  0.51100000000E-03 0.  1.
        -12    1    3    3    0    0  0.50984677850E+01  0.65590198306E+01  0.29557048700E+01  0.88176701102E+01  0.00000000000E+00 0.  1.
</event>
<event>
 7    1  0.4675811E-010  0.4778727E+02  0.7816164E-02  0.1312668E+00
        -11   -1    0    0    0    0  0.00000000000E+00  0.00000000000E+00  0.45593999997E+02  0.45594000000E+02  0.51100000000E-03 0. -1.
         11   -1    0    0    0    0 -0.00000000000E+00 -0.00000000000E+00 -0.45593999997E+02  0.45594000000E+02  0.51100000000E-03 0.  1.
    9900012    2    1    2    0    0  0.43134932835E+02 -0.14400166258E+01 -0.45746125548E+01  0.47787272373E+02  0.20000006057E+02 0.  0.
        -12    1    1    2    0    0 -0.43134932835E+02  0.14400166258E+01  0.45746125548E+01  0.43400727627E+02  0.00000000000E+00 0.  1.
         11    1    3    3    0    0  0.64547145179E+01  0.39971586064E+01  0.41910159192E+01  0.86720949677E+01  0.51100000000E-03 0. -1.
        -11    1    3    3    0    0  0.10631674822E+01  0.14521758145E+01 -0.82115203704E+00  0.19782392728E+01  0.51100000000E-03 0.  1.
        -12    1    3    3    0    0  0.35617050835E+02 -0.68893510468E+01 -0.79444764370E+01  0.37136938132E+02  0.00000000000E+00 0.  1.
</event>
<event>
 7    1  0.4675811E-010  0.4778727E+02  0.7816164E-02  0.1312668E+00
        -11   -1    0    0    0    0  0.00000000000E+00  0.00000000000E+00  0.45593999997E+02  0.45594000000E+02  0.51100000000E-03 0. -1.
         11   -1    0    0    0    0 -0.00000000000E+00 -0.00000000000E+00 -0.45593999997E+02  0.45594000000E+02  0.51100000000E-03 0.  1.
    9900012    2    1    2    0    0  0.19332824782E+02  0.33109441817E+01  0.38715662293E+02  0.47787274520E+02  0.20000015846E+02 0.  0.
        -12    1    1    2    0    0 -0.19332824782E+02 -0.33109441817E+01 -0.38715662293E+02  0.43400725480E+02  0.00000000000E+00 0.  1.
         11    1    3    3    0    0  0.15216521840E+02  0.75584486668E+00  0.16039918128E+02  0.22122224395E+02  0.51100000000E-03 0. -1.
        -11    1    3    3    0    0  0.22520379452E+00 -0.23041761429E+01  0.17807625291E+00  0.23219939404E+01  0.51100000000E-03 0.  1.
        -12    1    3    3    0    0  0.38910991474E+01  0.48592754579E+01  0.22497667912E+02  0.23343056184E+02  0.00000000000E+00 0.  1.
</event>
<event>
 7    1  0.4675811E-010  0.4778727E+02  0.7816164E-02  0.1312668E+00
        -11   -1    0    0    0    0  0.00000000000E+00  0.00000000000E+00  0.45593999997E+02  0.45594000000E+02  0.51100000000E-03 0. -1.
         11   -1    0    0    0    0 -0.00000000000E+00 -0.00000000000E+00 -0.45593999997E+02  0.45594000000E+02  0.51100000000E-03 0.  1.
    9900012    2    1    2    0    0  0.34602513091E+02  0.26170644433E+02  0.11776720090E+01  0.47787268974E+02  0.19999990560E+02 0.  0.
        -12    1    1    2    0    0 -0.34602513091E+02 -0.26170644433E+02 -0.11776720090E+01  0.43400731026E+02  0.00000000000E+00 0.  1.
         11    1    3    3    0    0  0.21971012848E+02  0.99944786340E+01 -0.59932610955E+00  0.24144858682E+02  0.51100000000E-03 0. -1.
        -11    1    3    3    0    0  0.10473519311E+02  0.12940079065E+02 -0.35742430327E+01  0.17026904196E+02  0.51100000000E-03 0.  1.
        -12    1    3    3    0    0  0.21579809312E+01  0.32360867340E+01  0.53512411512E+01  0.66155060962E+01  0.00000000000E+00 0.  1.
</event>
<event>
 7    1  0.4675811E-010  0.4778726E+02  0.7816164E-02  0.1312668E+00
        -11   -1    0    0    0    0  0.00000000000E+00  0.00000000000E+00  0.45593999997E+02  0.45594000000E+02  0.51100000000E-03 0.  1.
         11   -1    0    0    0    0 -0.00000000000E+00 -0.00000000000E+00 -0.45593999997E+02  0.45594000000E+02  0.51100000000E-03 0. -1.
    9900012    2    1    2    0    0  0.35953482887E+02  0.15380736603E+02 -0.18825615920E+02  0.47787264927E+02  0.19999972107E+02 0.  0.
        -12    1    1    2    0    0 -0.35953482887E+02 -0.15380736603E+02  0.18825615920E+02  0.43400735073E+02  0.00000000000E+00 0.  1.
         11    1    3    3    0    0  0.36740616507E+02  0.16406079197E+02 -0.16690325082E+02  0.43561442670E+02  0.51100000000E-03 0. -1.
        -11    1    3    3    0    0  0.12411759583E+01 -0.68100319796E+00 -0.15228510114E+01  0.20792687607E+01  0.51100000000E-03 0.  1.
         12    1    3    3    0    0 -0.20283095788E+01 -0.34433939656E+00 -0.61243982727E+00  0.21465534956E+01  0.00000000000E+00 0. -1.
</event>
<event>
 7    1  0.4675811E-010  0.4778727E+02  0.7816164E-02  0.1312668E+00
        -11   -1    0    0    0    0  0.00000000000E+00  0.00000000000E+00  0.45593999997E+02  0.45594000000E+02  0.51100000000E-03 0.  1.
         11   -1    0    0    0    0 -0.00000000000E+00 -0.00000000000E+00 -0.45593999997E+02  0.45594000000E+02  0.51100000000E-03 0. -1.
    9900012    2    1    2    0    0 -0.39330480199E+02 -0.13655002739E+02 -0.12258764065E+02  0.47787273406E+02  0.20000010768E+02 0.  0.
        -12    1    1    2    0    0  0.39330480199E+02  0.13655002739E+02  0.12258764065E+02  0.43400726594E+02  0.00000000000E+00 0.  1.
         11    1    3    3    0    0 -0.27561178288E+02 -0.98693703264E+01 -0.11474914768E+02  0.31443547645E+02  0.51100000000E-03 0. -1.
        -11    1    3    3    0    0 -0.45591889120E+01  0.39425788551E+00 -0.51876913112E+01  0.69176429669E+01  0.51100000000E-03 0.  1.
        -12    1    3    3    0    0 -0.72101129986E+01 -0.41798902981E+01  0.44038420149E+01  0.94260827946E+01  0.00000000000E+00 0.  1.
</event>
<event>
 7    1  0.4675811E-010  0.4778727E+02  0.7816164E-02  0.1312668E+00
        -11   -1    0    0    0    0  0.00000000000E+00  0.00000000000E+00  0.45593999997E+02  0.45594000000E+02  0.51100000000E-03 0. -1.
         11   -1    0    0    0    0 -0.00000000000E+00 -0.00000000000E+00 -0.45593999997E+02  0.45594000000E+02  0.51100000000E-03 0.  1.
    9900012    2    1    2    0    0 -0.37276794590E+02  0.21371428528E+02 -0.61094802688E+01  0.47787272801E+02  0.20000008010E+02 0.  0.
        -12    1    1    2    0    0  0.37276794590E+02 -0.21371428528E+02  0.61094802688E+01  0.43400727199E+02  0.00000000000E+00 0.  1.
         11    1    3    3    0    0 -0.20345011314E+02  0.16837496162E+02  0.13120349608E+00  0.26409051043E+02  0.51100000000E-03 0. -1.
        -11    1    3    3    0    0 -0.15359453267E+01  0.46704946327E+01 -0.48228239861E+00  0.49401664682E+01  0.51100000000E-03 0.  1.
        -12    1    3    3    0    0 -0.15395837949E+02 -0.13656226723E+00 -0.57584013663E+01  0.16438055290E+02  0.00000000000E+00 0.  1.
</event>
<event>
 7    1  0.4675811E-010  0.4778727E+02  0.7816164E-02  0.1312668E+00
        -11   -1    0    0    0    0  0.00000000000E+00  0.00000000000E+00  0.45593999997E+02  0.45594000000E+02  0.51100000000E-03 0.  1.
         11   -1    0    0    0    0 -0.00000000000E+00 -0.00000000000E+00 -0.45593999997E+02  0.45594000000E+02  0.51100000000E-03 0. -1.
    9900012    2    1    2    0    0  0.80765527090E+00 -0.37480427782E+02 -0.21867518772E+02  0.47787272460E+02  0.20000006455E+02 0.  0.
        -12    1    1    2    0    0 -0.80765527090E+00  0.37480427782E+02  0.21867518772E+02  0.43400727540E+02  0.00000000000E+00 0.  1.
         11    1    3    3    0    0 -0.99656420726E+00 -0.24793381865E+00  0.93138539079E+00  0.13863947508E+01  0.51100000000E-03 0. -1.
        -11    1    3    3    0    0 -0.31653453803E+01 -0.26000173194E+01  0.83332140479E+00  0.41801825634E+01  0.51100000000E-03 0.  1.
         12    1    3    3    0    0  0.49695648585E+01 -0.34632476644E+02 -0.23632225567E+02  0.42220695146E+02  0.00000000000E+00 0. -1.
</event>
<event>
 7    1  0.4675811E-010  0.4778727E+02  0.7816164E-02  0.1312668E+00
        -11   -1    0    0    0    0  0.00000000000E+00  0.00000000000E+00  0.45593999997E+02  0.45594000000E+02  0.51100000000E-03 0.  1.
         11   -1    0    0    0    0 -0.00000000000E+00 -0.00000000000E+00 -0.45593999997E+02  0.45594000000E+02  0.51100000000E-03 0. -1.
    9900012    2    1    2    0    0 -0.87619842652E+01 -0.32217091732E+02 -0.27729226051E+02  0.47787270222E+02  0.19999996248E+02 0.  0.
        -12    1    1    2    0    0  0.87619842652E+01  0.32217091732E+02  0.27729226051E+02  0.43400729778E+02  0.00000000000E+00 0.  1.
         11    1    3    3    0    0 -0.64849907184E+01 -0.11965075824E+02 -0.14090443203E+02  0.19589760948E+02  0.51100000000E-03 0. -1.
        -11    1    3    3    0    0 -0.49047482426E+01 -0.23202836173E+01  0.14547530958E+00  0.54278388622E+01  0.51100000000E-03 0.  1.
        -12    1    3    3    0    0  0.26277546958E+01 -0.17931732291E+02 -0.13784258158E+02  0.22769670412E+02  0.00000000000E+00 0.  1.
</event>
<event>
 7    1  0.4675811E-010  0.4778727E+02  0.7816164E-02  0.1312668E+00
        -11   -1    0    0    0    0  0.00000000000E+00  0.00000000000E+00  0.45593999997E+02  0.45594000000E+02  0.51100000000E-03 0. -1.
         11   -1    0    0    0    0 -0.00000000000E+00 -0.00000000000E+00 -0.45593999997E+02  0.45594000000E+02  0.51100000000E-03 0.  1.
    9900012    2    1    2    0    0 -0.37370656113E+02  0.12728484704E+02  0.18028949050E+02  0.47787271147E+02  0.20000000467E+02 0.  0.
        -12    1    1    2    0    0  0.37370656113E+02 -0.12728484704E+02 -0.18028949050E+02  0.43400728853E+02  0.00000000000E+00 0.  1.
         11    1    3    3    0    0 -0.87118494441E+01  0.11829328347E+01  0.62562369170E+01  0.10790558440E+02  0.51100000000E-03 0. -1.
        -11    1    3    3    0    0 -0.11729447325E+02 -0.35125535391E+01  0.58961531168E+01  0.13589797230E+02  0.51100000000E-03 0.  1.
         12    1    3    3    0    0 -0.16929359344E+02  0.15058105408E+02  0.58765590159E+01  0.23406915477E+02  0.00000000000E+00 0. -1.
</event>
<event>
 7    1  0.4675811E-010  0.4778727E+02  0.7816164E-02  0.1312668E+00
        -11   -1    0    0    0    0  0.00000000000E+00  0.00000000000E+00  0.45593999997E+02  0.45594000000E+02  0.51100000000E-03 0.  1.
         11   -1    0    0    0    0 -0.00000000000E+00 -0.00000000000E+00 -0.45593999997E+02  0.45594000000E+02  0.51100000000E-03 0. -1.
    9900012    2    1    2    0    0  0.88562251331E+01  0.35474634502E+02 -0.23382488474E+02  0.47787272081E+02  0.20000004726E+02 0.  0.
        -12    1    1    2    0    0 -0.88562251331E+01 -0.35474634502E+02  0.23382488474E+02  0.43400727919E+02  0.00000000000E+00 0.  1.
         11    1    3    3    0    0  0.12090386779E+01  0.28214376246E+01 -0.51774635680E+01  0.60190044072E+01  0.51100000000E-03 0. -1.
        -11    1    3    3    0    0  0.55278188197E+01  0.43321803633E+01 -0.99754181180E+01  0.12199735017E+02  0.51100000000E-03 0.  1.
         12    1    3    3    0    0  0.21193676355E+01  0.28321016514E+02 -0.82296067881E+01  0.29568532656E+02  0.00000000000E+00 0. -1.
</event>
<event>
 7    1  0.4675811E-010  0.4778724E+02  0.7816164E-02  0.1312668E+00
        -11   -1    0    0    0    0  0.00000000000E+00  0.00000000000E+00  0.45593999997E+02  0.45594000000E+02  0.51100000000E-03 0.  1.
         11   -1    0    0    0    0 -0.00000000000E+00 -0.00000000000E+00 -0.45593999997E+02  0.45594000000E+02  0.51100000000E-03 0. -1.
    9900012    2    1    2    0    0  0.58672412145E+01 -0.71316353215E+01 -0.42406857619E+02  0.47787236010E+02  0.19999840262E+02 0.  0.
        -12    1    1    2    0    0 -0.58672412145E+01  0.71316353215E+01  0.42406857619E+02  0.43400763990E+02  0.00000000000E+00 0.  1.
         11    1    3    3    0    0 -0.25551181054E+01  0.23924834259E+00 -0.11295428344E+02  0.11583288395E+02  0.51100000000E-03 0. -1.
        -11    1    3    3    0    0 -0.11327539621E+01  0.33151551302E+01 -0.28551750302E+01  0.45194479520E+01  0.51100000000E-03 0.  1.
         12    1    3    3    0    0  0.95551132820E+01 -0.10686038794E+02 -0.28256254244E+02  0.31684499663E+02  0.00000000000E+00 0. -1.
</event>
<event>
 7    1  0.4675811E-010  0.4778727E+02  0.7816164E-02  0.1312668E+00
        -11   -1    0    0    0    0  0.00000000000E+00  0.00000000000E+00  0.45593999997E+02  0.45594000000E+02  0.51100000000E-03 0.  1.
         11   -1    0    0    0    0 -0.00000000000E+00 -0.00000000000E+00 -0.45593999997E+02  0.45594000000E+02  0.51100000000E-03 0. -1.
    9900012    2    1    2    0    0 -0.90802295582E+01  0.49124439513E+01 -0.42154961149E+02  0.47787269317E+02  0.19999992123E+02 0.  0.
        -12    1    1    2    0    0  0.90802295582E+01 -0.49124439513E+01  0.42154961149E+02  0.43400730683E+02  0.00000000000E+00 0.  1.
         11    1    3    3    0    0 -0.45655560608E+01 -0.51467182015E+00 -0.10714403748E+02  0.11657943093E+02  0.51100000000E-03 0. -1.
        -11    1    3    3    0    0 -0.71426332207E+01  0.35809824529E+01 -0.48527492426E+01  0.93482522499E+01  0.51100000000E-03 0.  1.
         12    1    3    3    0    0  0.26279597234E+01  0.18461333185E+01 -0.26587808158E+02  0.26781073974E+02  0.00000000000E+00 0. -1.
</event>
<event>
 7    1  0.4675811E-010  0.4778728E+02  0.7816164E-02  0.1312668E+00
        -11   -1    0    0    0    0  0.00000000000E+00  0.00000000000E+00  0.45593999997E+02  0.45594000000E+02  0.51100000000E-03 0.  1.
         11   -1    0    0    0    0 -0.00000000000E+00 -0.00000000000E+00 -0.45593999997E+02  0.45594000000E+02  0.51100000000E-03 0. -1.
    9900012    2    1    2    0    0  0.36927030251E+02  0.21847364909E+02 -0.65352315653E+01  0.47787283782E+02  0.20000058077E+02 0.  0.
        -12    1    1    2    0    0 -0.36927030251E+02 -0.21847364909E+02  0.65352315653E+01  0.43400716218E+02  0.00000000000E+00 0.  1.
         11    1    3    3    0    0  0.43914073274E+01  0.52364739245E+01 -0.15197190709E+01  0.70010473354E+01  0.51100000000E-03 0. -1.
        -11    1    3    3    0    0  0.12190382675E+02 -0.20712119017E+01  0.13564042563E+01  0.12439259676E+02  0.51100000000E-03 0.  1.
         12    1    3    3    0    0  0.20345240248E+02  0.18682102886E+02 -0.63719167507E+01  0.28346976771E+02  0.00000000000E+00 0. -1.
</event>
<event>
 7    1  0.4675811E-010  0.4778727E+02  0.7816164E-02  0.1312668E+00
        -11   -1    0    0    0    0  0.00000000000E+00  0.00000000000E+00  0.45593999997E+02  0.45594000000E+02  0.51100000000E-03 0.  1.
         11   -1    0    0    0    0 -0.00000000000E+00 -0.00000000000E+00 -0.45593999997E+02  0.45594000000E+02  0.51100000000E-03 0. -1.
    9900012    2    1    2    0    0  0.10372048034E+02  0.38061123832E+02 -0.18094044003E+02  0.47787274705E+02  0.20000016688E+02 0.  0.
        -12    1    1    2    0    0 -0.10372048034E+02 -0.38061123832E+02  0.18094044003E+02  0.43400725295E+02  0.00000000000E+00 0.  1.
         11    1    3    3    0    0  0.20731757178E+01  0.13344654926E+02 -0.89682627692E-01  0.13505032983E+02  0.51100000000E-03 0. -1.
        -11    1    3    3    0    0  0.80175660395E+01  0.60997870020E+01 -0.34454555762E+01  0.10647062086E+02  0.51100000000E-03 0.  1.
         12    1    3    3    0    0  0.28130627716E+00  0.18616681904E+02 -0.14558905799E+02  0.23635179636E+02  0.00000000000E+00 0. -1.
</event>
<event>
 7    1  0.4675811E-010  0.4778725E+02  0.7816164E-02  0.1312668E+00
        -11   -1    0    0    0    0  0.00000000000E+00  0.00000000000E+00  0.45593999997E+02  0.45594000000E+02  0.51100000000E-03 0.  1.
         11   -1    0    0    0    0 -0.00000000000E+00 -0.00000000000E+00 -0.45593999997E+02  0.45594000000E+02  0.51100000000E-03 0. -1.
    9900012    2    1    2    0    0  0.20514381901E+02  0.84375721612E+01 -0.37304052131E+02  0.47787253530E+02  0.19999920144E+02 0.  0.
        -12    1    1    2    0    0 -0.20514381901E+02 -0.84375721612E+01  0.37304052131E+02  0.43400746470E+02  0.00000000000E+00 0.  1.
         11    1    3    3    0    0  0.13669977207E+02  0.72001803038E+01 -0.12338903450E+02  0.19772693592E+02  0.51100000000E-03 0. -1.
        -11    1    3    3    0    0  0.60320964316E+01 -0.29904945397E+01 -0.77351698631E+01  0.10254857289E+02  0.51100000000E-03 0.  1.
        -12    1    3    3    0    0  0.81230826184E+00  0.42278863971E+01 -0.17229978818E+02  0.17759702649E+02  0.00000000000E+00 0.  1.
</event>
<event>
 7    1  0.4675811E-010  0.4778727E+02  0.7816164E-02  0.1312668E+00
        -11   -1    0    0    0    0  0.00000000000E+00  0.00000000000E+00  0.45593999997E+02  0.45594000000E+02  0.51100000000E-03 0. -1.
         11   -1    0    0    0    0 -0.00000000000E+00 -0.00000000000E+00 -0.45593999997E+02  0.45594000000E+02  0.51100000000E-03 0.  1.
    9900012    2    1    2    0    0  0.41228520893E+02 -0.12507846770E+02  0.52332080502E+01  0.47787266915E+02  0.19999981170E+02 0.  0.
        -12    1    1    2    0    0 -0.41228520893E+02  0.12507846770E+02 -0.52332080502E+01  0.43400733085E+02  0.00000000000E+00 0.  1.
         11    1    3    3    0    0  0.23007131346E+02 -0.80817598982E+01  0.69182075319E+01  0.25347673099E+02  0.51100000000E-03 0. -1.
        -11    1    3    3    0    0  0.17842173997E+01 -0.78539623561E+00  0.41795770578E+01  0.46118481783E+01  0.51100000000E-03 0.  1.
        -12    1    3    3    0    0  0.16437172148E+02 -0.36406906358E+01 -0.58645765394E+01  0.17827745637E+02  0.00000000000E+00 0.  1.
</event>
<event>
 7    1  0.4675811E-010  0.4778728E+02  0.7816164E-02  0.1312668E+00
        -11   -1    0    0    0    0  0.00000000000E+00  0.00000000000E+00  0.45593999997E+02  0.45594000000E+02  0.51100000000E-03 0.  1.
         11   -1    0    0    0    0 -0.00000000000E+00 -0.00000000000E+00 -0.45593999997E+02  0.45594000000E+02  0.51100000000E-03 0. -1.
    9900012    2    1    2    0    0 -0.39025759949E+01 -0.29816047710E+02 -0.31295300869E+02  0.47787278152E+02  0.20000032408E+02 0.  0.
        -12    1    1    2    0    0  0.39025759949E+01  0.29816047710E+02  0.31295300869E+02  0.43400721848E+02  0.00000000000E+00 0.  1.
         11    1    3    3    0    0 -0.12053202979E+01 -0.17113539441E+02 -0.17015792645E+02  0.24163261966E+02  0.51100000000E-03 0. -1.
        -11    1    3    3    0    0 -0.15049378683E+01 -0.12986406097E+02 -0.16521870573E+02  0.21068549755E+02  0.51100000000E-03 0.  1.
        -12    1    3    3    0    0 -0.11923178287E+01  0.28389782799E+00  0.22423623487E+01  0.25554664318E+01  0.00000000000E+00 0.  1.
</event>
<event>
 7    1  0.4675811E-010  0.4778727E+02  0.7816164E-02  0.1312668E+00
        -11   -1    0    0    0    0  0.00000000000E+00  0.00000000000E+00  0.45593999997E+02  0.45594000000E+02  0.51100000000E-03 0. -1.
         11   -1    0    0    0    0 -0.00000000000E+00 -0.00000000000E+00 -0.45593999997E+02  0.45594000000E+02  0.51100000000E-03 0.  1.
    9900012    2    1    2    0    0  0.37458244657E+02 -0.17357400378E+02  0.13387458773E+02  0.47787268519E+02  0.19999988487E+02 0.  0.
        -12    1    1    2    0    0 -0.37458244657E+02  0.17357400378E+02 -0.13387458773E+02  0.43400731481E+02  0.00000000000E+00 0.  1.
         11    1    3    3    0    0  0.16742033473E+01  0.19140707530E+01  0.26910634804E+01  0.37024919462E+01  0.51100000000E-03 0.  1.
        -11    1    3    3    0    0  0.12362917512E+02 -0.34788014895E+01  0.91977483732E+01  0.15796909970E+02  0.51100000000E-03 0. -1.
        -12    1    3    3    0    0  0.23421123798E+02 -0.15792669641E+02  0.14986469199E+01  0.28287866603E+02  0.00000000000E+00 0.  1.
</event>
<event>
 7    1  0.4675811E-010  0.4778727E+02  0.7816164E-02  0.1312668E+00
        -11   -1    0    0    0    0  0.00000000000E+00  0.00000000000E+00  0.45593999997E+02  0.45594000000E+02  0.51100000000E-03 0.  1.
         11   -1    0    0    0    0 -0.00000000000E+00 -0.00000000000E+00 -0.45593999997E+02  0.45594000000E+02  0.51100000000E-03 0. -1.
    9900012    2    1    2    0    0 -0.28864992671E+02 -0.10892666417E+02 -0.30525163069E+02  0.47787267703E+02  0.19999984765E+02 0.  0.
        -12    1    1    2    0    0  0.28864992671E+02  0.10892666417E+02  0.30525163069E+02  0.43400732297E+02  0.00000000000E+00 0.  1.
         11    1    3    3    0    0 -0.20576957873E+02 -0.14423997515E+02 -0.19146903760E+02  0.31592195611E+02  0.51100000000E-03 0. -1.
        -11    1    3    3    0    0 -0.61054926109E+01 -0.12774900985E+01 -0.59025506767E+01  0.85877311163E+01  0.51100000000E-03 0.  1.
        -12    1    3    3    0    0 -0.21825421864E+01  0.48088211970E+01 -0.54757086324E+01  0.76073409761E+01  0.00000000000E+00 0.  1.
</event>
<event>
 7    1  0.4675811E-010  0.4778728E+02  0.7816164E-02  0.1312668E+00
        -11   -1    0    0    0    0  0.00000000000E+00  0.00000000000E+00  0.45593999997E+02  0.45594000000E+02  0.51100000000E-03 0. -1.
         11   -1    0    0    0    0 -0.00000000000E+00 -0.00000000000E+00 -0.45593999997E+02  0.45594000000E+02  0.51100000000E-03 0.  1.
    9900012    2    1    2    0    0  0.17922497063E+02  0.29370689756E+02  0.26453146266E+02  0.47787282667E+02  0.20000052990E+02 0.  0.
        -12    1    1    2    0    0 -0.17922497063E+02 -0.29370689756E+02 -0.26453146266E+02  0.43400717333E+02  0.00000000000E+00 0.  1.
         11    1    3    3    0    0  0.11257808054E+02  0.79382564127E+01  0.14283344358E+02  0.19843590486E+02  0.51100000000E-03 0. -1.
        -11    1    3    3    0    0  0.89442462927E+01  0.11960209034E+02  0.99668988907E+01  0.17955088851E+02  0.51100000000E-03 0.  1.
        -12    1    3    3    0    0 -0.22795572839E+01  0.94722243097E+01  0.22029030165E+01  0.99886033300E+01  0.00000000000E+00 0.  1.
</event>
<event>
 7    1  0.4675811E-010  0.4778727E+02  0.7816164E-02  0.1312668E+00
        -11   -1    0    0    0    0  0.00000000000E+00  0.00000000000E+00  0.45593999997E+02  0.45594000000E+02  0.51100000000E-03 0.  1.
         11   -1    0    0    0    0 -0.00000000000E+00 -0.00000000000E+00 -0.45593999997E+02  0.45594000000E+02  0.51100000000E-03 0. -1.
    9900012    2    1    2    0    0 -0.60477116580E+01  0.18895680115E+02 -0.38600536586E+02  0.47787274568E+02  0.20000016066E+02 0.  0.
        -12    1    1    2    0    0  0.60477116580E+01 -0.18895680115E+02  0.38600536586E+02  0.43400725432E+02  0.00000000000E+00 0.  1.
         11    1    3    3    0    0 -0.23114975962E+01  0.23210260933E+01 -0.10290106628E+02  0.10798910961E+02  0.51100000000E-03 0. -1.
        -11    1    3    3    0    0  0.51505194221E+01  0.35311239048E+01 -0.24832088857E+01  0.67203432189E+01  0.51100000000E-03 0.  1.
        -12    1    3    3    0    0 -0.88867334838E+01  0.13043530117E+02 -0.25827221072E+02  0.30268020389E+02  0.00000000000E+00 0.  1.
</event>
<event>
 7    1  0.4675811E-010  0.4778727E+02  0.7816164E-02  0.1312668E+00
        -11   -1    0    0    0    0  0.00000000000E+00  0.00000000000E+00  0.45593999997E+02  0.45594000000E+02  0.51100000000E-03 0.  1.
         11   -1    0    0    0    0 -0.00000000000E+00 -0.00000000000E+00 -0.45593999997E+02  0.45594000000E+02  0.51100000000E-03 0. -1.
    9900012    2    1    2    0    0  0.16124843424E+02 -0.39578328725E+02  0.75609807101E+01  0.47787272939E+02  0.20000008637E+02 0.  0.
        -12    1    1    2    0    0 -0.16124843424E+02  0.39578328725E+02 -0.75609807101E+01  0.43400727061E+02  0.00000000000E+00 0.  1.
         11    1    3    3    0    0 -0.96430913401E+00 -0.25708650228E+01 -0.41977660474E+00  0.27776701983E+01  0.51100000000E-03 0. -1.
        -11    1    3    3    0    0  0.11576191895E+02 -0.12336979948E+02 -0.34507227233E+01  0.17266058630E+02  0.51100000000E-03 0.  1.
         12    1    3    3    0    0  0.55129606629E+01 -0.24670483754E+02  0.11431480038E+02  0.27743544110E+02  0.00000000000E+00 0. -1.
</event>
<event>
 7    1  0.4675811E-010  0.4778727E+02  0.7816164E-02  0.1312668E+00
        -11   -1    0    0    0    0  0.00000000000E+00  0.00000000000E+00  0.45593999997E+02  0.45594000000E+02  0.51100000000E-03 0. -1.
         11   -1    0    0    0    0 -0.00000000000E+00 -0.00000000000E+00 -0.45593999997E+02  0.45594000000E+02  0.51100000000E-03 0.  1.
    9900012    2    1    2    0    0  0.16219445518E+02 -0.62348390717E+01  0.39770334235E+02  0.47787272860E+02  0.20000008278E+02 0.  0.
        -12    1    1    2    0    0 -0.16219445518E+02  0.62348390717E+01 -0.39770334235E+02  0.43400727140E+02  0.00000000000E+00 0.  1.
         11    1    3    3    0    0  0.23431538043E+01  0.20254271235E+01  0.11345906370E+02  0.11761050820E+02  0.51100000000E-03 0. -1.
        -11    1    3    3    0    0 -0.18411848097E+01 -0.11927337865E+01  0.12070642028E+02  0.12268372941E+02  0.51100000000E-03 0.  1.
         12    1    3    3    0    0  0.15717476523E+02 -0.70675324087E+01  0.16353785836E+02  0.23757849098E+02  0.00000000000E+00 0. -1.
</event>
<event>
 7    1  0.4675811E-010  0.4778727E+02  0.7816164E-02  0.1312668E+00
        -11   -1    0    0    0    0  0.00000000000E+00  0.00000000000E+00  0.45593999997E+02  0.45594000000E+02  0.51100000000E-03 0.  1.
         11   -1    0    0    0    0 -0.00000000000E+00 -0.00000000000E+00 -0.45593999997E+02  0.45594000000E+02  0.51100000000E-03 0. -1.
    9900012    2    1    2    0    0  0.36018649358E+02  0.66272678233E+01 -0.23288613036E+02  0.47787271002E+02  0.19999999808E+02 0.  0.
        -12    1    1    2    0    0 -0.36018649358E+02 -0.66272678233E+01  0.23288613036E+02  0.43400728998E+02  0.00000000000E+00 0.  1.
         11    1    3    3    0    0  0.16543476349E+02  0.10458521223E+00 -0.43327249235E+01  0.17101755854E+02  0.51100000000E-03 0. -1.
        -11    1    3    3    0    0  0.58506981950E+01 -0.34593375713E+01 -0.82465412931E+01  0.10686586422E+02  0.51100000000E-03 0.  1.
         12    1    3    3    0    0  0.13624474814E+02  0.99820201825E+01 -0.10709346820E+02  0.19998928726E+02  0.00000000000E+00 0. -1.
</event>
<event>
 7    1  0.4675811E-010  0.4778727E+02  0.7816164E-02  0.1312668E+00
        -11   -1    0    0    0    0  0.00000000000E+00  0.00000000000E+00  0.45593999997E+02  0.45594000000E+02  0.51100000000E-03 0. -1.
         11   -1    0    0    0    0 -0.00000000000E+00 -0.00000000000E+00 -0.45593999997E+02  0.45594000000E+02  0.51100000000E-03 0.  1.
    9900012    2    1    2    0    0  0.41935982445E+02 -0.14787461001E+01  0.11081977106E+02  0.47787268091E+02  0.19999986534E+02 0.  0.
        -12    1    1    2    0    0 -0.41935982445E+02  0.14787461001E+01 -0.11081977106E+02  0.43400731909E+02  0.00000000000E+00 0.  1.
         11    1    3    3    0    0  0.93922966993E+01  0.14742341685E+01  0.29999408378E+01  0.99693655245E+01  0.51100000000E-03 0. -1.
        -11    1    3    3    0    0  0.18096580393E+02 -0.10172939524E+02  0.53437813106E+01  0.21436672303E+02  0.51100000000E-03 0.  1.
        -12    1    3    3    0    0  0.14447105353E+02  0.72199592552E+01  0.27382549576E+01  0.16381230263E+02  0.00000000000E+00 0.  1.
</event>
<event>
 7    1  0.4675811E-010  0.4778728E+02  0.7816164E-02  0.1312668E+00
        -11   -1    0    0    0    0  0.00000000000E+00  0.00000000000E+00  0.45593999997E+02  0.45594000000E+02  0.51100000000E-03 0.  1.
         11   -1    0    0    0    0 -0.00000000000E+00 -0.00000000000E+00 -0.45593999997E+02  0.45594000000E+02  0.51100000000E-03 0. -1.
    9900012    2    1    2    0    0  0.22405854658E+02  0.36085710519E+01 -0.36994307827E+02  0.47787275126E+02  0.20000018610E+02 0.  0.
        -12    1    1    2    0    0 -0.22405854658E+02 -0.36085710519E+01  0.36994307827E+02  0.43400724874E+02  0.00000000000E+00 0.  1.
         11    1    3    3    0    0  0.78262027290E+01  0.73333403531E+01 -0.95670346263E+01  0.14372038189E+02  0.51100000000E-03 0. -1.
        -11    1    3    3    0    0  0.92050954832E+01  0.15083849989E+01 -0.70241239946E+01  0.11676785787E+02  0.51100000000E-03 0.  1.
        -12    1    3    3    0    0  0.53745564462E+01 -0.52331543001E+01 -0.20403149206E+02  0.21738451151E+02  0.00000000000E+00 0.  1.
</event>
<event>
 7    1  0.4675811E-010  0.4778729E+02  0.7816164E-02  0.1312668E+00
        -11   -1    0    0    0    0  0.00000000000E+00  0.00000000000E+00  0.45593999997E+02  0.45594000000E+02  0.51100000000E-03 0.  1.
         11   -1    0    0    0    0 -0.00000000000E+00 -0.00000000000E+00 -0.45593999997E+02  0.45594000000E+02  0.51100000000E-03 0. -1.
    9900012    2    1    2    0    0 -0.23197594678E+02 -0.20766664276E+02 -0.30236376463E+02  0.47787294872E+02  0.20000108640E+02 0.  0.
        -12    1    1    2    0    0  0.23197594678E+02  0.20766664276E+02  0.30236376463E+02  0.43400705128E+02  0.00000000000E+00 0.  1.
         11    1    3    3    0    0 -0.11518328362E+02 -0.13359909354E+02 -0.19398823615E+02  0.26219714417E+02  0.51100000000E-03 0. -1.
        -11    1    3    3    0    0 -0.14300309413E+02 -0.65969934185E+01 -0.81722607879E+01  0.17742745507E+02  0.51100000000E-03 0.  1.
        -12    1    3    3    0    0  0.26210430981E+01 -0.80976150394E+00 -0.26652920602E+01  0.38248349482E+01  0.00000000000E+00 0.  1.
</event>
<event>
 7    1  0.4675811E-010  0.4778727E+02  0.7816164E-02  0.1312668E+00
        -11   -1    0    0    0    0  0.00000000000E+00  0.00000000000E+00  0.45593999997E+02  0.45594000000E+02  0.51100000000E-03 0.  1.
         11   -1    0    0    0    0 -0.00000000000E+00 -0.00000000000E+00 -0.45593999997E+02  0.45594000000E+02  0.51100000000E-03 0. -1.
    9900012    2    1    2    0    0  0.25728610777E+02  0.33124879623E+02 -0.11153657380E+02  0.47787272639E+02  0.20000007270E+02 0.  0.
        -12    1    1    2    0    0 -0.25728610777E+02 -0.33124879623E+02  0.11153657380E+02  0.43400727361E+02  0.00000000000E+00 0.  1.
         11    1    3    3    0    0  0.96957123657E+01  0.12044373383E+02 -0.57703061513E+01  0.16503642077E+02  0.51100000000E-03 0. -1.
        -11    1    3    3    0    0  0.26990066276E+01  0.14470828752E+02 -0.70257427653E+01  0.16311057085E+02  0.51100000000E-03 0.  1.
         12    1    3    3    0    0  0.13333891783E+02  0.66096774882E+01  0.16423915371E+01  0.14972573478E+02  0.00000000000E+00 0. -1.
</event>
<event>
 7    1  0.4675811E-010  0.4778727E+02  0.7816164E-02  0.1312668E+00
        -11   -1    0    0    0    0  0.00000000000E+00  0.00000000000E+00  0.45593999997E+02  0.45594000000E+02  0.51100000000E-03 0.  1.
         11   -1    0    0    0    0 -0.00000000000E+00 -0.00000000000E+00 -0.45593999997E+02  0.45594000000E+02  0.51100000000E-03 0. -1.
    9900012    2    1    2    0    0  0.14396572584E+02  0.40263325781E+02  0.74314689918E+01  0.47787269171E+02  0.19999991458E+02 0.  0.
        -12    1    1    2    0    0 -0.14396572584E+02 -0.40263325781E+02 -0.74314689918E+01  0.43400730829E+02  0.00000000000E+00 0.  1.
         11    1    3    3    0    0  0.77599493777E+01  0.21288219727E+02  0.78930082139E+01  0.23993846970E+02  0.51100000000E-03 0. -1.
        -11    1    3    3    0    0  0.48570205196E+01  0.17917718224E+01  0.32653350433E+01  0.61207440558E+01  0.51100000000E-03 0.  1.
         12    1    3    3    0    0  0.17796026870E+01  0.17183334231E+02 -0.37268742654E+01  0.17672678145E+02  0.00000000000E+00 0. -1.
</event>
<event>
 7    1  0.4675811E-010  0.4778727E+02  0.7816164E-02  0.1312668E+00
        -11   -1    0    0    0    0  0.00000000000E+00  0.00000000000E+00  0.45593999997E+02  0.45594000000E+02  0.51100000000E-03 0. -1.
         11   -1    0    0    0    0 -0.00000000000E+00 -0.00000000000E+00 -0.45593999997E+02  0.45594000000E+02  0.51100000000E-03 0.  1.
    9900012    2    1    2    0    0  0.45329365522E+01  0.35957510956E+02  0.23877460567E+02  0.47787271538E+02  0.20000002249E+02 0.  0.
        -12    1    1    2    0    0 -0.45329365522E+01 -0.35957510956E+02 -0.23877460567E+02  0.43400728462E+02  0.00000000000E+00 0.  1.
         11    1    3    3    0    0  0.50967649833E+01  0.30404375396E+01  0.38663038387E+00  0.59473319263E+01  0.51100000000E-03 0. -1.
        -11    1    3    3    0    0  0.20390357317E+01  0.56793725124E+01  0.91151848825E+01  0.10931584265E+02  0.51100000000E-03 0.  1.
         12    1    3    3    0    0 -0.26028641628E+01  0.27237700904E+02  0.14375645300E+02  0.30908355346E+02  0.00000000000E+00 0. -1.
</event>
<event>
 7    1  0.4675811E-010  0.4778728E+02  0.7816164E-02  0.1312668E+00
        -11   -1    0    0    0    0  0.00000000000E+00  0.00000000000E+00  0.45593999997E+02  0.45594000000E+02  0.51100000000E-03 0. -1.
         11   -1    0    0    0    0 -0.00000000000E+00 -0.00000000000E+00 -0.45593999997E+02  0.45594000000E+02  0.51100000000E-03 0.  1.
    9900012    2    1    2    0    0 -0.41824010237E+02  0.64889043728E+00 -0.11573846697E+02  0.47787276291E+02  0.20000023921E+02 0.  0.
        -12    1    1    2    0    0  0.41824010237E+02 -0.64889043728E+00  0.11573846697E+02  0.43400723709E+02  0.00000000000E+00 0.  1.
         11    1    3    3    0    0 -0.29900095170E+02 -0.19566963078E+01 -0.51483752152E+01  0.30403126800E+02  0.51100000000E-03 0. -1.
        -11    1    3    3    0    0 -0.40357045587E+01 -0.15095169495E+01  0.23326324360E+01  0.48996660140E+01  0.51100000000E-03 0.  1.
        -12    1    3    3    0    0 -0.78882105084E+01  0.41151036946E+01 -0.87581039182E+01  0.12484483477E+02  0.00000000000E+00 0.  1.
</event>
<event>
 7    1  0.4675811E-010  0.4778727E+02  0.7816164E-02  0.1312668E+00
        -11   -1    0    0    0    0  0.00000000000E+00  0.00000000000E+00  0.45593999997E+02  0.45594000000E+02  0.51100000000E-03 0. -1.
         11   -1    0    0    0    0 -0.00000000000E+00 -0.00000000000E+00 -0.45593999997E+02  0.45594000000E+02  0.51100000000E-03 0.  1.
    9900012    2    1    2    0    0  0.20671463064E+02  0.19806357286E+02  0.32619352508E+02  0.47787270373E+02  0.19999996937E+02 0.  0.
        -12    1    1    2    0    0 -0.20671463064E+02 -0.19806357286E+02 -0.32619352508E+02  0.43400729627E+02  0.00000000000E+00 0.  1.
         11    1    3    3    0    0  0.11751700518E+01  0.61671590240E+01  0.30309198252E+01  0.69714668704E+01  0.51100000000E-03 0. -1.
        -11    1    3    3    0    0  0.86105538010E+01  0.12845059776E+02  0.24007883471E+02  0.28557234923E+02  0.51100000000E-03 0.  1.
         12    1    3    3    0    0  0.10885739212E+02  0.79413848624E+00  0.55805492115E+01  0.12258568580E+02  0.00000000000E+00 0. -1.
</event>
<event>
 7    1  0.4675811E-010  0.4778727E+02  0.7816164E-02  0.1312668E+00
        -11   -1    0    0    0    0  0.00000000000E+00  0.00000000000E+00  0.45593999997E+02  0.45594000000E+02  0.51100000000E-03 0.  1.
         11   -1    0    0    0    0 -0.00000000000E+00 -0.00000000000E+00 -0.45593999997E+02  0.45594000000E+02  0.51100000000E-03 0. -1.
    9900012    2    1    2    0    0 -0.55430683577E+01 -0.19950884581E+02 -0.38142623256E+02  0.47787272918E+02  0.20000008541E+02 0.  0.
        -12    1    1    2    0    0  0.55430683577E+01  0.19950884581E+02  0.38142623256E+02  0.43400727082E+02  0.00000000000E+00 0.  1.
         11    1    3    3    0    0  0.18375009964E+00 -0.12159246602E+02 -0.15407670704E+02  0.19628483355E+02  0.51100000000E-03 0. -1.
        -11    1    3    3    0    0 -0.19106899901E+01 -0.72270125110E+01 -0.23104262178E+02  0.24283479511E+02  0.51100000000E-03 0.  1.
        -12    1    3    3    0    0 -0.38161284672E+01 -0.56462546812E+00  0.36930962663E+00  0.38753100518E+01  0.00000000000E+00 0.  1.
</event>
<event>
 7    1  0.4675811E-010  0.4778727E+02  0.7816164E-02  0.1312668E+00
        -11   -1    0    0    0    0  0.00000000000E+00  0.00000000000E+00  0.45593999997E+02  0.45594000000E+02  0.51100000000E-03 0. -1.
         11   -1    0    0    0    0 -0.00000000000E+00 -0.00000000000E+00 -0.45593999997E+02  0.45594000000E+02  0.51100000000E-03 0.  1.
    9900012    2    1    2    0    0  0.23287305239E+02  0.11127088789E+02  0.34892877885E+02  0.47787267087E+02  0.19999981958E+02 0.  0.
        -12    1    1    2    0    0 -0.23287305239E+02 -0.11127088789E+02 -0.34892877885E+02  0.43400732913E+02  0.00000000000E+00 0.  1.
         11    1    3    3    0    0  0.42982420685E+01  0.32018051806E+01  0.67613758329E+01  0.86280151083E+01  0.51100000000E-03 0. -1.
        -11    1    3    3    0    0  0.16028862836E+02  0.40774275042E+01  0.78553561138E+01  0.18310010344E+02  0.51100000000E-03 0.  1.
         12    1    3    3    0    0  0.29602003345E+01  0.38478561046E+01  0.20276145939E+02  0.20849241635E+02  0.00000000000E+00 0. -1.
</event>
<event>
 7    1  0.4675811E-010  0.4778727E+02  0.7816164E-02  0.1312668E+00
        -11   -1    0    0    0    0  0.00000000000E+00  0.00000000000E+00  0.45593999997E+02  0.45594000000E+02  0.51100000000E-03 0. -1.
         11   -1    0    0    0    0 -0.00000000000E+00 -0.00000000000E+00 -0.45593999997E+02  0.45594000000E+02  0.51100000000E-03 0.  1.
    9900012    2    1    2    0    0 -0.21682310148E+02  0.23926698332E+02  0.29000235364E+02  0.47787272845E+02  0.20000008208E+02 0.  0.
        -12    1    1    2    0    0  0.21682310148E+02 -0.23926698332E+02 -0.29000235364E+02  0.43400727155E+02  0.00000000000E+00 0.  1.
         11    1    3    3    0    0 -0.15703209791E+02  0.18584488758E+02  0.24691102556E+02  0.34664456808E+02  0.51100000000E-03 0.  1.
        -11    1    3    3    0    0 -0.19186331264E+01  0.59667265218E+01  0.60034193470E+01  0.86789413281E+01  0.51100000000E-03 0. -1.
        -12    1    3    3    0    0 -0.40604672311E+01 -0.62451694695E+00 -0.16942865387E+01  0.44438747088E+01  0.00000000000E+00 0.  1.
</event>
<event>
 7    1  0.4675811E-010  0.4778728E+02  0.7816164E-02  0.1312668E+00
        -11   -1    0    0    0    0  0.00000000000E+00  0.00000000000E+00  0.45593999997E+02  0.45594000000E+02  0.51100000000E-03 0.  1.
         11   -1    0    0    0    0 -0.00000000000E+00 -0.00000000000E+00 -0.45593999997E+02  0.45594000000E+02  0.51100000000E-03 0. -1.
    9900012    2    1    2    0    0 -0.15461509283E+02 -0.29313737925E+02 -0.28022649328E+02  0.47787281390E+02  0.20000047171E+02 0.  0.
        -12    1    1    2    0    0  0.15461509283E+02  0.29313737925E+02  0.28022649328E+02  0.43400718610E+02  0.00000000000E+00 0.  1.
         11    1    3    3    0    0 -0.96247954853E+01 -0.13609547674E+02 -0.18192445595E+02  0.24674309575E+02  0.51100000000E-03 0. -1.
        -11    1    3    3    0    0 -0.28230378556E+01  0.14353698458E+00 -0.58505286560E+01  0.64976019743E+01  0.51100000000E-03 0.  1.
        -12    1    3    3    0    0 -0.30136759419E+01 -0.15847727236E+02 -0.39796750770E+01  0.16615369841E+02  0.00000000000E+00 0.  1.
</event>
<event>
 7    1  0.4675811E-010  0.4778727E+02  0.7816164E-02  0.1312668E+00
        -11   -1    0    0    0    0  0.00000000000E+00  0.00000000000E+00  0.45593999997E+02  0.45594000000E+02  0.51100000000E-03 0.  1.
         11   -1    0    0    0    0 -0.00000000000E+00 -0.00000000000E+00 -0.45593999997E+02  0.45594000000E+02  0.51100000000E-03 0. -1.
    9900012    2    1    2    0    0 -0.33996390491E+02  0.25642567472E+02 -0.83861369454E+01  0.47787272749E+02  0.20000007774E+02 0.  0.
        -12    1    1    2    0    0  0.33996390491E+02 -0.25642567472E+02  0.83861369454E+01  0.43400727251E+02  0.00000000000E+00 0.  1.
         11    1    3    3    0    0 -0.20812661333E+01  0.22998102216E+01 -0.23050059478E+01  0.38644337817E+01  0.51100000000E-03 0. -1.
        -11    1    3    3    0    0 -0.18542302629E+02  0.13900578790E+02  0.55644435412E+01  0.23832878753E+02  0.51100000000E-03 0.  1.
        -12    1    3    3    0    0 -0.13372821729E+02  0.94421784611E+01 -0.11645574539E+02  0.20089960214E+02  0.00000000000E+00 0.  1.
</event>
<event>
 7    1  0.4675811E-010  0.4778727E+02  0.7816164E-02  0.1312668E+00
        -11   -1    0    0    0    0  0.00000000000E+00  0.00000000000E+00  0.45593999997E+02  0.45594000000E+02  0.51100000000E-03 0.  1.
         11   -1    0    0    0    0 -0.00000000000E+00 -0.00000000000E+00 -0.45593999997E+02  0.45594000000E+02  0.51100000000E-03 0. -1.
    9900012    2    1    2    0    0  0.31935988430E+02  0.19950566922E+02 -0.21579874627E+02  0.47787268827E+02  0.19999989888E+02 0.  0.
        -12    1    1    2    0    0 -0.31935988430E+02 -0.19950566922E+02  0.21579874627E+02  0.43400731173E+02  0.00000000000E+00 0.  1.
         11    1    3    3    0    0  0.47155206795E+01  0.45459863390E+01 -0.10969761653E+02  0.12776454831E+02  0.51100000000E-03 0. -1.
        -11    1    3    3    0    0  0.40398862894E+01 -0.74563197326E+00 -0.45238347597E+01  0.61107879578E+01  0.51100000000E-03 0.  1.
        -12    1    3    3    0    0  0.23180581461E+02  0.16150212556E+02 -0.60862782142E+01  0.28900026038E+02  0.00000000000E+00 0.  1.
</event>
<event>
 7    1  0.4675811E-010  0.4778726E+02  0.7816164E-02  0.1312668E+00
        -11   -1    0    0    0    0  0.00000000000E+00  0.00000000000E+00  0.45593999997E+02  0.45594000000E+02  0.51100000000E-03 0. -1.
         11   -1    0    0    0    0 -0.00000000000E+00 -0.00000000000E+00 -0.45593999997E+02  0.45594000000E+02  0.51100000000E-03 0.  1.
    9900012    2    1    2    0    0  0.11351405837E+02  0.28162968567E+02  0.31009950035E+02  0.47787260212E+02  0.19999950611E+02 0.  0.
        -12    1    1    2    0    0 -0.11351405837E+02 -0.28162968567E+02 -0.31009950035E+02  0.43400739788E+02  0.00000000000E+00 0.  1.
         11    1    3    3    0    0  0.22579745224E+01  0.61072610132E+00  0.10365125932E+02  0.10625783320E+02  0.51100000000E-03 0. -1.
        -11    1    3    3    0    0 -0.22938773439E+01  0.29222117454E+01  0.31953420218E+01  0.49001434317E+01  0.51100000000E-03 0.  1.
         12    1    3    3    0    0  0.11387308658E+02  0.24630030720E+02  0.17449482081E+02  0.32261333460E+02  0.00000000000E+00 0. -1.
</event>
<event>
 7    1  0.4675811E-010  0.4778727E+02  0.7816164E-02  0.1312668E+00
        -11   -1    0    0    0    0  0.00000000000E+00  0.00000000000E+00  0.45593999997E+02  0.45594000000E+02  0.51100000000E-03 0. -1.
         11   -1    0    0    0    0 -0.00000000000E+00 -0.00000000000E+00 -0.45593999997E+02  0.45594000000E+02  0.51100000000E-03 0.  1.
    9900012    2    1    2    0    0  0.41443696711E+02  0.51872896890E+01 -0.11795573659E+02  0.47787268101E+02  0.19999986581E+02 0.  0.
        -12    1    1    2    0    0 -0.41443696711E+02 -0.51872896890E+01  0.11795573659E+02  0.43400731899E+02  0.00000000000E+00 0.  1.
         11    1    3    3    0    0  0.62543434594E+01  0.61994915174E+01  0.13993492242E+00  0.88073883317E+01  0.51100000000E-03 0. -1.
        -11    1    3    3    0    0  0.80502955403E+01 -0.41252671797E+01 -0.64701096085E+01  0.11121483993E+02  0.51100000000E-03 0.  1.
         12    1    3    3    0    0  0.27139057711E+02  0.31130653513E+01 -0.54653989730E+01  0.27858395777E+02  0.00000000000E+00 0. -1.
</event>
<event>
 7    1  0.4675811E-010  0.4778727E+02  0.7816164E-02  0.1312668E+00
        -11   -1    0    0    0    0  0.00000000000E+00  0.00000000000E+00  0.45593999997E+02  0.45594000000E+02  0.51100000000E-03 0.  1.
         11   -1    0    0    0    0 -0.00000000000E+00 -0.00000000000E+00 -0.45593999997E+02  0.45594000000E+02  0.51100000000E-03 0. -1.
    9900012    2    1    2    0    0  0.35915396407E+02  0.20493878065E+02 -0.13179851566E+02  0.47787271613E+02  0.20000002593E+02 0.  0.
        -12    1    1    2    0    0 -0.35915396407E+02 -0.20493878065E+02  0.13179851566E+02  0.43400728387E+02  0.00000000000E+00 0.  1.
         11    1    3    3    0    0  0.34951819629E+01  0.33169672818E+01  0.71222739765E+00  0.48709174731E+01  0.51100000000E-03 0. -1.
        -11    1    3    3    0    0 -0.13787822751E+01 -0.12936231494E+01 -0.16261453933E+01  0.24937623214E+01  0.51100000000E-03 0.  1.
         12    1    3    3    0    0  0.33798996719E+02  0.18470533933E+02 -0.12265933570E+02  0.40422591819E+02  0.00000000000E+00 0. -1.
</event>
<event>
 7    1  0.4675811E-010  0.4778727E+02  0.7816164E-02  0.1312668E+00
        -11   -1    0    0    0    0  0.00000000000E+00  0.00000000000E+00  0.45593999997E+02  0.45594000000E+02  0.51100000000E-03 0. -1.
         11   -1    0    0    0    0 -0.00000000000E+00 -0.00000000000E+00 -0.45593999997E+02  0.45594000000E+02  0.51100000000E-03 0.  1.
    9900012    2    1    2    0    0  0.42796702879E+02 -0.23302396718E+01  0.68290090654E+01  0.47787272367E+02  0.20000006032E+02 0.  0.
        -12    1    1    2    0    0 -0.42796702879E+02  0.23302396718E+01 -0.68290090654E+01  0.43400727633E+02  0.00000000000E+00 0.  1.
         11    1    3    3    0    0  0.13097439294E+02 -0.16811769797E+01  0.79316115544E+01  0.15403886984E+02  0.51100000000E-03 0. -1.
        -11    1    3    3    0    0  0.17521763478E+02 -0.27090057811E+01  0.52553730186E+01  0.18492426924E+02  0.51100000000E-03 0.  1.
        -12    1    3    3    0    0  0.12177500107E+02  0.20599430890E+01 -0.63579755076E+01  0.13890958460E+02  0.00000000000E+00 0.  1.
</event>
<event>
 7    1  0.4675811E-010  0.4778727E+02  0.7816164E-02  0.1312668E+00
        -11   -1    0    0    0    0  0.00000000000E+00  0.00000000000E+00  0.45593999997E+02  0.45594000000E+02  0.51100000000E-03 0.  1.
         11   -1    0    0    0    0 -0.00000000000E+00 -0.00000000000E+00 -0.45593999997E+02  0.45594000000E+02  0.51100000000E-03 0. -1.
    9900012    2    1    2    0    0 -0.11055597554E+02  0.23706678527E+01 -0.41901994548E+02  0.47787269010E+02  0.19999990725E+02 0.  0.
        -12    1    1    2    0    0  0.11055597554E+02 -0.23706678527E+01  0.41901994548E+02  0.43400730990E+02  0.00000000000E+00 0.  1.
         11    1    3    3    0    0 -0.79586353350E+01  0.64578491838E+01 -0.74631921312E+01  0.12678443498E+02  0.51100000000E-03 0. -1.
        -11    1    3    3    0    0  0.72796195800E+00 -0.11422294514E+01 -0.28758213112E+01  0.31788307924E+01  0.51100000000E-03 0.  1.
         12    1    3    3    0    0 -0.38249241773E+01 -0.29449518796E+01 -0.31562981106E+02  0.31929994720E+02  0.00000000000E+00 0. -1.
</event>
<event>
 7    1  0.4675811E-010  0.4778730E+02  0.7816164E-02  0.1312668E+00
        -11   -1    0    0    0    0  0.00000000000E+00  0.00000000000E+00  0.45593999997E+02  0.45594000000E+02  0.51100000000E-03 0.  1.
         11   -1    0    0    0    0 -0.00000000000E+00 -0.00000000000E+00 -0.45593999997E+02  0.45594000000E+02  0.51100000000E-03 0. -1.
    9900012    2    1    2    0    0  0.36222896821E+02  0.85826000325E+01 -0.22312811207E+02  0.47787299298E+02  0.20000128819E+02 0.  0.
        -12    1    1    2    0    0 -0.36222896821E+02 -0.85826000325E+01  0.22312811207E+02  0.43400700702E+02  0.00000000000E+00 0.  1.
         11    1    3    3    0    0  0.76098086067E+01  0.27298799816E+00 -0.17487410602E+01  0.78129255106E+01  0.51100000000E-03 0. -1.
        -11    1    3    3    0    0  0.25588923205E+02  0.11143430868E+02 -0.22052492556E+02  0.35570795191E+02  0.51100000000E-03 0.  1.
        -12    1    3    3    0    0  0.30241650093E+01 -0.28338188336E+01  0.14884224094E+01  0.44035785963E+01  0.00000000000E+00 0.  1.
</event>
<event>
 7    1  0.4675811E-010  0.4778727E+02  0.7816164E-02  0.1312668E+00
        -11   -1    0    0    0    0  0.00000000000E+00  0.00000000000E+00  0.45593999997E+02  0.45594000000E+02  0.51100000000E-03 0.  1.
         11   -1    0    0    0    0 -0.00000000000E+00 -0.00000000000E+00 -0.45593999997E+02  0.45594000000E+02  0.51100000000E-03 0. -1.
    9900012    2    1    2    0    0 -0.12081445306E+02 -0.33368903131E+01 -0.41551497987E+02  0.47787272557E+02  0.20000006896E+02 0.  0.
        -12    1    1    2    0    0  0.12081445306E+02  0.33368903131E+01  0.41551497987E+02  0.43400727443E+02  0.00000000000E+00 0.  1.
         11    1    3    3    0    0  0.19574434999E+01  0.28063150112E+01 -0.40139354084E+01  0.52743404063E+01  0.51100000000E-03 0. -1.
        -11    1    3    3    0    0 -0.43618327952E+01 -0.10010517977E+01 -0.26798858159E+02  0.27169955629E+02  0.51100000000E-03 0.  1.
         12    1    3    3    0    0 -0.96770560106E+01 -0.51421535265E+01 -0.10738704420E+02  0.15342976521E+02  0.00000000000E+00 0. -1.
</event>
<event>
 7    1  0.4675811E-010  0.4778727E+02  0.7816164E-02  0.1312668E+00
        -11   -1    0    0    0    0  0.00000000000E+00  0.00000000000E+00  0.45593999997E+02  0.45594000000E+02  0.51100000000E-03 0. -1.
         11   -1    0    0    0    0 -0.00000000000E+00 -0.00000000000E+00 -0.45593999997E+02  0.45594000000E+02  0.51100000000E-03 0.  1.
    9900012    2    1    2    0    0 -0.71442110949E+01 -0.17319977093E+02  0.39148459598E+02  0.47787271348E+02  0.20000001382E+02 0.  0.
        -12    1    1    2    0    0  0.71442110949E+01  0.17319977093E+02 -0.39148459598E+02  0.43400728652E+02  0.00000000000E+00 0.  1.
         11    1    3    3    0    0 -0.11893693210E+01 -0.33412976333E+01  0.18018485597E+02  0.18364223172E+02  0.51100000000E-03 0. -1.
        -11    1    3    3    0    0 -0.14930478363E+01 -0.15205759036E+02  0.18849661303E+02  0.24264254186E+02  0.51100000000E-03 0.  1.
        -12    1    3    3    0    0 -0.44617939376E+01  0.12270795760E+01  0.22803126984E+01  0.51587939899E+01  0.00000000000E+00 0.  1.
</event>
<event>
 7    1  0.4675811E-010  0.4778728E+02  0.7816164E-02  0.1312668E+00
        -11   -1    0    0    0    0  0.00000000000E+00  0.00000000000E+00  0.45593999997E+02  0.45594000000E+02  0.51100000000E-03 0.  1.
         11   -1    0    0    0    0 -0.00000000000E+00 -0.00000000000E+00 -0.45593999997E+02  0.45594000000E+02  0.51100000000E-03 0. -1.
    9900012    2    1    2    0    0 -0.32691783247E+02 -0.38394426340E+01 -0.28286542576E+02  0.47787279931E+02  0.20000040516E+02 0.  0.
        -12    1    1    2    0    0  0.32691783247E+02  0.38394426340E+01  0.28286542576E+02  0.43400720069E+02  0.00000000000E+00 0.  1.
         11    1    3    3    0    0 -0.10858720618E+02  0.99227542012E+00 -0.16615930563E+02  0.19874243953E+02  0.51100000000E-03 0. -1.
        -11    1    3    3    0    0 -0.16303765918E+02  0.21532081394E+01 -0.77475973208E+01  0.18178953570E+02  0.51100000000E-03 0.  1.
         12    1    3    3    0    0 -0.55292967116E+01 -0.69849261934E+01 -0.39230146928E+01  0.97340824083E+01  0.00000000000E+00 0. -1.
</event>
<event>
 7    1  0.4675811E-010  0.4778727E+02  0.7816164E-02  0.1312668E+00
        -11   -1    0    0    0    0  0.00000000000E+00  0.00000000000E+00  0.45593999997E+02  0.45594000000E+02  0.51100000000E-03 0.  1.
         11   -1    0    0    0    0 -0.00000000000E+00 -0.00000000000E+00 -0.45593999997E+02  0.45594000000E+02  0.51100000000E-03 0. -1.
    9900012    2    1    2    0    0  0.19550788038E+01  0.31666869795E+02 -0.29614359591E+02  0.47787271093E+02  0.20000000220E+02 0.  0.
        -12    1    1    2    0    0 -0.19550788038E+01 -0.31666869795E+02  0.29614359591E+02  0.43400728907E+02  0.00000000000E+00 0.  1.
         11    1    3    3    0    0 -0.97587186263E+00  0.10970690337E+02 -0.12039406818E+02  0.16317343202E+02  0.51100000000E-03 0. -1.
        -11    1    3    3    0    0  0.18879038331E+01  0.19078335002E+02 -0.65218657916E+01  0.20250476069E+02  0.51100000000E-03 0.  1.
        -12    1    3    3    0    0  0.10430468333E+01  0.16178444548E+01 -0.11053086981E+02  0.11219451822E+02  0.00000000000E+00 0.  1.
</event>
<event>
 7    1  0.4675811E-010  0.4778725E+02  0.7816164E-02  0.1312668E+00
        -11   -1    0    0    0    0  0.00000000000E+00  0.00000000000E+00  0.45593999997E+02  0.45594000000E+02  0.51100000000E-03 0. -1.
         11   -1    0    0    0    0 -0.00000000000E+00 -0.00000000000E+00 -0.45593999997E+02  0.45594000000E+02  0.51100000000E-03 0.  1.
    9900012    2    1    2    0    0  0.12993230656E+02  0.36225110780E+02  0.20063451716E+02  0.47787253593E+02  0.19999920432E+02 0.  0.
        -12    1    1    2    0    0 -0.12993230656E+02 -0.36225110780E+02 -0.20063451716E+02  0.43400746407E+02  0.00000000000E+00 0.  1.
         11    1    3    3    0    0  0.10807891493E+02  0.19850225011E+02  0.67260190118E+01  0.23581375777E+02  0.51100000000E-03 0. -1.
        -11    1    3    3    0    0  0.10917731830E+00  0.10704755898E+02  0.13585548237E+01  0.10791171855E+02  0.51100000000E-03 0.  1.
        -12    1    3    3    0    0  0.20761618449E+01  0.56701298705E+01  0.11978877880E+02  0.13414705961E+02  0.00000000000E+00 0.  1.
</event>
<event>
 7    1  0.4675811E-010  0.4778727E+02  0.7816164E-02  0.1312668E+00
        -11   -1    0    0    0    0  0.00000000000E+00  0.00000000000E+00  0.45593999997E+02  0.45594000000E+02  0.51100000000E-03 0. -1.
         11   -1    0    0    0    0 -0.00000000000E+00 -0.00000000000E+00 -0.45593999997E+02  0.45594000000E+02  0.51100000000E-03 0.  1.
    9900012    2    1    2    0    0 -0.40650820528E+02 -0.10124336840E+02  0.11341597482E+02  0.47787271441E+02  0.20000001808E+02 0.  0.
        -12    1    1    2    0    0  0.40650820528E+02  0.10124336840E+02 -0.11341597482E+02  0.43400728559E+02  0.00000000000E+00 0.  1.
         11    1    3    3    0    0 -0.24662569589E+02 -0.29397031812E+01 -0.82026488583E-01  0.24837288945E+02  0.51100000000E-03 0. -1.
        -11    1    3    3    0    0 -0.28048215267E+00  0.17913400808E+01  0.10127542278E+01  0.20768343482E+01  0.51100000000E-03 0.  1.
         12    1    3    3    0    0 -0.15707768786E+02 -0.89759737393E+01  0.10410869743E+02  0.20873148147E+02  0.00000000000E+00 0. -1.
</event>
<event>
 7    1  0.4772759E-010  0.4778727E+02  0.7816164E-02  0.1312668E+00
        -11   -1    0    0    0    0  0.00000000000E+00  0.00000000000E+00  0.45593999997E+02  0.45594000000E+02  0.51100000000E-03 0.  1.
         11   -1    0    0    0    0 -0.00000000000E+00 -0.00000000000E+00 -0.45593999997E+02  0.45594000000E+02  0.51100000000E-03 0. -1.
    9900012    2    1    2    0    0  0.29612212641E+02 -0.27954353949E+02 -0.15009798125E+02  0.47787273256E+02  0.20000010081E+02 0.  0.
        -12    1    1    2    0    0 -0.29612212641E+02  0.27954353949E+02  0.15009798125E+02  0.43400726744E+02  0.00000000000E+00 0.  1.
         11    1    3    3    0    0  0.25354595994E+02 -0.17749111016E+02 -0.12120205255E+02  0.33238319084E+02  0.51100000000E-03 0.  1.
        -11    1    3    3    0    0  0.48800978722E+01 -0.10588391142E+02 -0.47199452356E+01  0.12578046967E+02  0.51100000000E-03 0. -1.
        -12    1    3    3    0    0 -0.62248122532E+00  0.38314820954E+00  0.18303523650E+01  0.19709072039E+01  0.00000000000E+00 0.  1.
</event>
<event>
 7    1  0.4675811E-010  0.4778727E+02  0.7816164E-02  0.1312668E+00
        -11   -1    0    0    0    0  0.00000000000E+00  0.00000000000E+00  0.45593999997E+02  0.45594000000E+02  0.51100000000E-03 0.  1.
         11   -1    0    0    0    0 -0.00000000000E+00 -0.00000000000E+00 -0.45593999997E+02  0.45594000000E+02  0.51100000000E-03 0. -1.
    9900012    2    1    2    0    0  0.13250858933E+02 -0.40286844823E+02 -0.92199981257E+01  0.47787268512E+02  0.19999988452E+02 0.  0.
        -12    1    1    2    0    0 -0.13250858933E+02  0.40286844823E+02  0.92199981257E+01  0.43400731488E+02  0.00000000000E+00 0.  1.
         11    1    3    3    0    0  0.82110807939E+01 -0.31465973085E+02 -0.13748234266E+02  0.35306419469E+02  0.51100000000E-03 0. -1.
        -11    1    3    3    0    0 -0.12481685873E+01 -0.14331178295E+01  0.42506490930E+00  0.19474167438E+01  0.51100000000E-03 0.  1.
        -12    1    3    3    0    0  0.62879467262E+01 -0.73877539085E+01  0.41031712312E+01  0.10533432299E+02  0.00000000000E+00 0.  1.
</event>
<event>
 7    1  0.4675811E-010  0.4778727E+02  0.7816164E-02  0.1312668E+00
        -11   -1    0    0    0    0  0.00000000000E+00  0.00000000000E+00  0.45593999997E+02  0.45594000000E+02  0.51100000000E-03 0.  1.
         11   -1    0    0    0    0 -0.00000000000E+00 -0.00000000000E+00 -0.45593999997E+02  0.45594000000E+02  0.51100000000E-03 0. -1.
    9900012    2    1    2    0    0  0.27842062538E+02  0.14940884861E+02 -0.29752527717E+02  0.47787269680E+02  0.19999993778E+02 0.  0.
        -12    1    1    2    0    0 -0.27842062538E+02 -0.14940884861E+02  0.29752527717E+02  0.43400730320E+02  0.00000000000E+00 0.  1.
         11    1    3    3    0    0  0.15650784107E+02  0.39965043787E+01 -0.92925079284E+01  0.18635176261E+02  0.51100000000E-03 0. -1.
        -11    1    3    3    0    0  0.40324522097E+01  0.53870263980E+00  0.77041145071E+00  0.41405803243E+01  0.51100000000E-03 0.  1.
         12    1    3    3    0    0  0.81588262207E+01  0.10405677843E+02 -0.21230431239E+02  0.25011513094E+02  0.00000000000E+00 0. -1.
</event>
<event>
 7    1  0.4675811E-010  0.4778727E+02  0.7816164E-02  0.1312668E+00
        -11   -1    0    0    0    0  0.00000000000E+00  0.00000000000E+00  0.45593999997E+02  0.45594000000E+02  0.51100000000E-03 0.  1.
         11   -1    0    0    0    0 -0.00000000000E+00 -0.00000000000E+00 -0.45593999997E+02  0.45594000000E+02  0.51100000000E-03 0. -1.
    9900012    2    1    2    0    0  0.36244391657E+02  0.50437786959E+01 -0.23335120777E+02  0.47787268534E+02  0.19999988554E+02 0.  0.
        -12    1    1    2    0    0 -0.36244391657E+02 -0.50437786959E+01  0.23335120777E+02  0.43400731466E+02  0.00000000000E+00 0.  1.
         11    1    3    3    0    0  0.85993175039E+01  0.74268184750E+00 -0.16044310202E+02  0.18218664276E+02  0.51100000000E-03 0.  1.
        -11    1    3    3    0    0  0.71167475095E+01 -0.91437548070E+00 -0.21169725402E-01  0.71752788136E+01  0.51100000000E-03 0. -1.
         12    1    3    3    0    0  0.20528326644E+02  0.52154723291E+01 -0.72696408488E+01  0.22393325445E+02  0.00000000000E+00 0. -1.
</event>
<event>
 7    1  0.4675811E-010  0.4778727E+02  0.7816164E-02  0.1312668E+00
        -11   -1    0    0    0    0  0.00000000000E+00  0.00000000000E+00  0.45593999997E+02  0.45594000000E+02  0.51100000000E-03 0.  1.
         11   -1    0    0    0    0 -0.00000000000E+00 -0.00000000000E+00 -0.45593999997E+02  0.45594000000E+02  0.51100000000E-03 0. -1.
    9900012    2    1    2    0    0 -0.28649249725E+02  0.11551426545E+02 -0.30486201492E+02  0.47787269056E+02  0.19999990934E+02 0.  0.
        -12    1    1    2    0    0  0.28649249725E+02 -0.11551426545E+02  0.30486201492E+02  0.43400730944E+02  0.00000000000E+00 0.  1.
         11    1    3    3    0    0 -0.79231841132E-01 -0.36612225277E+00 -0.26770061683E+01  0.27030881367E+01  0.51100000000E-03 0. -1.
        -11    1    3    3    0    0 -0.19494364363E+02  0.11541323216E+00 -0.10124660602E+02  0.21967073422E+02  0.51100000000E-03 0.  1.
        -12    1    3    3    0    0 -0.90756535210E+01  0.11802135565E+02 -0.17684534722E+02  0.23117107498E+02  0.00000000000E+00 0.  1.
</event>
<event>
 7    1  0.4675811E-010  0.4778727E+02  0.7816164E-02  0.1312668E+00
        -11   -1    0    0    0    0  0.00000000000E+00  0.00000000000E+00  0.45593999997E+02  0.45594000000E+02  0.51100000000E-03 0.  1.
         11   -1    0    0    0    0 -0.00000000000E+00 -0.00000000000E+00 -0.45593999997E+02  0.45594000000E+02  0.51100000000E-03 0. -1.
    9900012    2    1    2    0    0 -0.22634877274E+02  0.23502308662E+02 -0.28616901901E+02  0.47787271250E+02  0.20000000937E+02 0.  0.
        -12    1    1    2    0    0  0.22634877274E+02 -0.23502308662E+02  0.28616901901E+02  0.43400728750E+02  0.00000000000E+00 0.  1.
         11    1    3    3    0    0 -0.27535515955E+01  0.47644186477E+01 -0.36229836544E+00  0.55147975308E+01  0.51100000000E-03 0. -1.
        -11    1    3    3    0    0 -0.50296256610E+01 -0.23410427475E+01 -0.37181940444E+01  0.66785165005E+01  0.51100000000E-03 0.  1.
         12    1    3    3    0    0 -0.14851700017E+02  0.21078932762E+02 -0.24536409491E+02  0.35593957219E+02  0.00000000000E+00 0. -1.
</event>
<event>
 7    1  0.4675811E-010  0.4778727E+02  0.7816164E-02  0.1312668E+00
        -11   -1    0    0    0    0  0.00000000000E+00  0.00000000000E+00  0.45593999997E+02  0.45594000000E+02  0.51100000000E-03 0.  1.
         11   -1    0    0    0    0 -0.00000000000E+00 -0.00000000000E+00 -0.45593999997E+02  0.45594000000E+02  0.51100000000E-03 0. -1.
    9900012    2    1    2    0    0 -0.28949821725E+02  0.22531958814E+02 -0.23191420175E+02  0.47787270564E+02  0.19999997808E+02 0.  0.
        -12    1    1    2    0    0  0.28949821725E+02 -0.22531958814E+02  0.23191420175E+02  0.43400729436E+02  0.00000000000E+00 0.  1.
         11    1    3    3    0    0 -0.12520579513E+02 -0.55395076060E+00 -0.10431997946E+02  0.16306389980E+02  0.51100000000E-03 0. -1.
        -11    1    3    3    0    0 -0.13800242170E+01  0.16670014821E+01 -0.26451099213E+01  0.34175967488E+01  0.51100000000E-03 0.  1.
        -12    1    3    3    0    0 -0.15049217995E+02  0.21418908093E+02 -0.10114312307E+02  0.28063283835E+02  0.00000000000E+00 0.  1.
</event>
<event>
 7    1  0.4675811E-010  0.4778726E+02  0.7816164E-02  0.1312668E+00
        -11   -1    0    0    0    0  0.00000000000E+00  0.00000000000E+00  0.45593999997E+02  0.45594000000E+02  0.51100000000E-03 0.  1.
         11   -1    0    0    0    0 -0.00000000000E+00 -0.00000000000E+00 -0.45593999997E+02  0.45594000000E+02  0.51100000000E-03 0. -1.
    9900012    2    1    2    0    0 -0.36534582972E+02 -0.82230415101E+01 -0.21936950734E+02  0.47787263000E+02  0.19999963322E+02 0.  0.
        -12    1    1    2    0    0  0.36534582972E+02  0.82230415101E+01  0.21936950734E+02  0.43400737000E+02  0.00000000000E+00 0.  1.
         11    1    3    3    0    0  0.11578723987E+01 -0.24794077564E+01 -0.22285238717E+01  0.35290863155E+01  0.51100000000E-03 0. -1.
        -11    1    3    3    0    0  0.68789431103E+00 -0.58230277022E+00 -0.48831103313E+00  0.10250478162E+01  0.51100000000E-03 0.  1.
         12    1    3    3    0    0 -0.38380349682E+02 -0.51613309835E+01 -0.19220115829E+02  0.43233128868E+02  0.00000000000E+00 0. -1.
</event>
<event>
 7    1  0.4675811E-010  0.4778727E+02  0.7816164E-02  0.1312668E+00
        -11   -1    0    0    0    0  0.00000000000E+00  0.00000000000E+00  0.45593999997E+02  0.45594000000E+02  0.51100000000E-03 0. -1.
         11   -1    0    0    0    0 -0.00000000000E+00 -0.00000000000E+00 -0.45593999997E+02  0.45594000000E+02  0.51100000000E-03 0.  1.
    9900012    2    1    2    0    0  0.12067786651E+02  0.73217409948E+01  0.41041248021E+02  0.47787269534E+02  0.19999993114E+02 0.  0.
        -12    1    1    2    0    0 -0.12067786651E+02 -0.73217409948E+01 -0.41041248021E+02  0.43400730466E+02  0.00000000000E+00 0.  1.
         11    1    3    3    0    0  0.14434938748E+01  0.47984283417E+01  0.93807125291E+01  0.10635147245E+02  0.51100000000E-03 0. -1.
        -11    1    3    3    0    0  0.91761189591E+00  0.32088052634E+01 -0.65690915648E+00  0.34014662589E+01  0.51100000000E-03 0.  1.
         12    1    3    3    0    0  0.97066808804E+01 -0.68549261033E+00  0.32317444648E+02  0.33750656030E+02  0.00000000000E+00 0. -1.
</event>
<event>
 7    1  0.4675811E-010  0.4778728E+02  0.7816164E-02  0.1312668E+00
        -11   -1    0    0    0    0  0.00000000000E+00  0.00000000000E+00  0.45593999997E+02  0.45594000000E+02  0.51100000000E-03 0.  1.
         11   -1    0    0    0    0 -0.00000000000E+00 -0.00000000000E+00 -0.45593999997E+02  0.45594000000E+02  0.51100000000E-03 0. -1.
    9900012    2    1    2    0    0  0.27392073870E+02 -0.31913107484E+02 -0.10716840200E+02  0.47787276457E+02  0.20000024676E+02 0.  0.
        -12    1    1    2    0    0 -0.27392073870E+02  0.31913107484E+02  0.10716840200E+02  0.43400723543E+02  0.00000000000E+00 0.  1.
         11    1    3    3    0    0  0.38273291790E+01 -0.11848542253E+02 -0.81115541394E+00  0.12477755228E+02  0.51100000000E-03 0. -1.
        -11    1    3    3    0    0  0.30105929420E+01 -0.59447048734E+01  0.29112158896E+01  0.72717511035E+01  0.51100000000E-03 0.  1.
         12    1    3    3    0    0  0.20554151749E+02 -0.14119860358E+02 -0.12816900675E+02  0.28037770125E+02  0.00000000000E+00 0. -1.
</event>
<event>
 7    1  0.4675811E-010  0.4778727E+02  0.7816164E-02  0.1312668E+00
        -11   -1    0    0    0    0  0.00000000000E+00  0.00000000000E+00  0.45593999997E+02  0.45594000000E+02  0.51100000000E-03 0.  1.
         11   -1    0    0    0    0 -0.00000000000E+00 -0.00000000000E+00 -0.45593999997E+02  0.45594000000E+02  0.51100000000E-03 0. -1.
    9900012    2    1    2    0    0  0.25460631410E+02  0.69494269589E+01 -0.34454102616E+02  0.47787268740E+02  0.19999989491E+02 0.  0.
        -12    1    1    2    0    0 -0.25460631410E+02 -0.69494269589E+01  0.34454102616E+02  0.43400731260E+02  0.00000000000E+00 0.  1.
         11    1    3    3    0    0  0.65107358634E+01  0.25203365321E+01 -0.33844484209E+01  0.77586254641E+01  0.51100000000E-03 0. -1.
        -11    1    3    3    0    0  0.18667882525E+02 -0.60751080922E+00 -0.17672905897E+02  0.25713624997E+02  0.51100000000E-03 0.  1.
        -12    1    3    3    0    0  0.28201302113E+00  0.50366012360E+01 -0.13396748298E+02  0.14315018279E+02  0.00000000000E+00 0.  1.
</event>
<event>
 7    1  0.4675811E-010  0.4778723E+02  0.7816164E-02  0.1312668E+00
        -11   -1    0    0    0    0  0.00000000000E+00  0.00000000000E+00  0.45593999997E+02  0.45594000000E+02  0.51100000000E-03 0.  1.
         11   -1    0    0    0    0 -0.00000000000E+00 -0.00000000000E+00 -0.45593999997E+02  0.45594000000E+02  0.51100000000E-03 0. -1.
    9900012    2    1    2    0    0  0.15241017960E+02  0.50813726033E+01 -0.40317706797E+02  0.47787234369E+02  0.19999832783E+02 0.  0.
        -12    1    1    2    0    0 -0.15241017960E+02 -0.50813726033E+01  0.40317706797E+02  0.43400765631E+02  0.00000000000E+00 0.  1.
         11    1    3    3    0    0  0.78440819447E+01 -0.54723199153E+00 -0.86006157836E+01  0.11653311826E+02  0.51100000000E-03 0. -1.
        -11    1    3    3    0    0  0.83374910353E+01 -0.64155054369E+00 -0.26904310769E+02  0.28173875879E+02  0.51100000000E-03 0.  1.
        -12    1    3    3    0    0 -0.94055502007E+00  0.62701551385E+01 -0.48127802443E+01  0.79600466636E+01  0.00000000000E+00 0.  1.
</event>
<event>
 7    1  0.4675811E-010  0.4778728E+02  0.7816164E-02  0.1312668E+00
        -11   -1    0    0    0    0  0.00000000000E+00  0.00000000000E+00  0.45593999997E+02  0.45594000000E+02  0.51100000000E-03 0.  1.
         11   -1    0    0    0    0 -0.00000000000E+00 -0.00000000000E+00 -0.45593999997E+02  0.45594000000E+02  0.51100000000E-03 0. -1.
    9900012    2    1    2    0    0  0.13790950499E+02  0.75276405633E+01 -0.40456977102E+02  0.47787277836E+02  0.20000030966E+02 0.  0.
        -12    1    1    2    0    0 -0.13790950499E+02 -0.75276405633E+01  0.40456977102E+02  0.43400722164E+02  0.00000000000E+00 0.  1.
         11    1    3    3    0    0 -0.51036348796E+00 -0.27756590212E+01 -0.40325459815E+01  0.49220098787E+01  0.51100000000E-03 0.  1.
        -11    1    3    3    0    0  0.23475408348E+00  0.68598594355E+00 -0.17042448479E+02  0.17057864363E+02  0.51100000000E-03 0. -1.
         12    1    3    3    0    0  0.14066559903E+02  0.96173136410E+01 -0.19381982641E+02  0.25807403594E+02  0.00000000000E+00 0. -1.
</event>
<event>
 7    1  0.5719713E-010  0.4778727E+02  0.7816164E-02  0.1312668E+00
        -11   -1    0    0    0    0  0.00000000000E+00  0.00000000000E+00  0.45593999997E+02  0.45594000000E+02  0.51100000000E-03 0. -1.
         11   -1    0    0    0    0 -0.00000000000E+00 -0.00000000000E+00 -0.45593999997E+02  0.45594000000E+02  0.51100000000E-03 0.  1.
    9900012    2    1    2    0    0 -0.28349867134E+02  0.12654398764E+01  0.32837584666E+02  0.47787271074E+02  0.20000000134E+02 0.  0.
        -12    1    1    2    0    0  0.28349867134E+02 -0.12654398764E+01 -0.32837584666E+02  0.43400728926E+02  0.00000000000E+00 0.  1.
         11    1    3    3    0    0 -0.20760321822E+02  0.71634089916E+01  0.22997707832E+02  0.31799370376E+02  0.51100000000E-03 0. -1.
        -11    1    3    3    0    0 -0.57384881091E+01 -0.95164772782E+00  0.13213747111E+01  0.59650574653E+01  0.51100000000E-03 0.  1.
         12    1    3    3    0    0 -0.18510572027E+01 -0.49463213873E+01  0.85185021234E+01  0.10022843232E+02  0.00000000000E+00 0. -1.
</event>
<event>
 7    1  0.4675811E-010  0.4778727E+02  0.7816164E-02  0.1312668E+00
        -11   -1    0    0    0    0  0.00000000000E+00  0.00000000000E+00  0.45593999997E+02  0.45594000000E+02  0.51100000000E-03 0.  1.
         11   -1    0    0    0    0 -0.00000000000E+00 -0.00000000000E+00 -0.45593999997E+02  0.45594000000E+02  0.51100000000E-03 0. -1.
    9900012    2    1    2    0    0  0.17053598257E+02  0.68147251383E+01 -0.39323755165E+02  0.47787269448E+02  0.19999992720E+02 0.  0.
        -12    1    1    2    0    0 -0.17053598257E+02 -0.68147251383E+01  0.39323755165E+02  0.43400730552E+02  0.00000000000E+00 0.  1.
         11    1    3    3    0    0  0.12134269418E+02  0.71189658345E+01 -0.16476213500E+02  0.21665312840E+02  0.51100000000E-03 0. -1.
        -11    1    3    3    0    0  0.51446988897E+01 -0.97359672906E+00 -0.25710909316E+01  0.58332089022E+01  0.51100000000E-03 0.  1.
        -12    1    3    3    0    0 -0.22537005106E+00  0.66935603283E+00 -0.20276450733E+02  0.20288747706E+02  0.00000000000E+00 0.  1.
</event>
<event>
 7    1  0.4675811E-010  0.4778727E+02  0.7816164E-02  0.1312668E+00
        -11   -1    0    0    0    0  0.00000000000E+00  0.00000000000E+00  0.45593999997E+02  0.45594000000E+02  0.51100000000E-03 0. -1.
         11   -1    0    0    0    0 -0.00000000000E+00 -0.00000000000E+00 -0.45593999997E+02  0.45594000000E+02  0.51100000000E-03 0.  1.
    9900012    2    1    2    0    0 -0.28030480392E+02  0.16750957116E+02  0.28588830527E+02  0.47787266986E+02  0.19999981495E+02 0.  0.
        -12    1    1    2    0    0  0.28030480392E+02 -0.16750957116E+02 -0.28588830527E+02  0.43400733014E+02  0.00000000000E+00 0.  1.
         11    1    3    3    0    0 -0.33881855021E+00  0.67957233346E+00  0.45680413674E-01  0.76072565863E+00  0.51100000000E-03 0. -1.
        -11    1    3    3    0    0  0.84292964140E+00 -0.19507212809E+01 -0.83358250534E+00  0.22826966400E+01  0.51100000000E-03 0.  1.
        -12    1    3    3    0    0 -0.28534591483E+02  0.18022106064E+02  0.29376732618E+02  0.44743844687E+02  0.00000000000E+00 0.  1.
</event>
<event>
 7    1  0.4675811E-010  0.4778727E+02  0.7816164E-02  0.1312668E+00
        -11   -1    0    0    0    0  0.00000000000E+00  0.00000000000E+00  0.45593999997E+02  0.45594000000E+02  0.51100000000E-03 0.  1.
         11   -1    0    0    0    0 -0.00000000000E+00 -0.00000000000E+00 -0.45593999997E+02  0.45594000000E+02  0.51100000000E-03 0. -1.
    9900012    2    1    2    0    0 -0.29338910598E+02  0.13334468162E+02 -0.29069629692E+02  0.47787273201E+02  0.20000009834E+02 0.  0.
        -12    1    1    2    0    0  0.29338910598E+02 -0.13334468162E+02  0.29069629692E+02  0.43400726799E+02  0.00000000000E+00 0.  1.
         11    1    3    3    0    0 -0.11703873652E+01 -0.19943205636E+01 -0.83501177431E+01  0.86643861687E+01  0.51100000000E-03 0. -1.
        -11    1    3    3    0    0 -0.97022527040E+01  0.18028866095E+01 -0.92258384120E+01  0.13509263575E+02  0.51100000000E-03 0.  1.
        -12    1    3    3    0    0 -0.18466270529E+02  0.13525902116E+02 -0.11493673537E+02  0.25613623458E+02  0.00000000000E+00 0.  1.
</event>
<event>
 7    1  0.4675811E-010  0.4778727E+02  0.7816164E-02  0.1312668E+00
        -11   -1    0    0    0    0  0.00000000000E+00  0.00000000000E+00  0.45593999997E+02  0.45594000000E+02  0.51100000000E-03 0.  1.
         11   -1    0    0    0    0 -0.00000000000E+00 -0.00000000000E+00 -0.45593999997E+02  0.45594000000E+02  0.51100000000E-03 0. -1.
    9900012    2    1    2    0    0 -0.28531224328E+02  0.18759532805E+02 -0.26789408827E+02  0.47787271227E+02  0.20000000835E+02 0.  0.
        -12    1    1    2    0    0  0.28531224328E+02 -0.18759532805E+02  0.26789408827E+02  0.43400728773E+02  0.00000000000E+00 0.  1.
         11    1    3    3    0    0 -0.17281318768E+01  0.36462201101E+01 -0.19987775874E+00  0.40399643878E+01  0.51100000000E-03 0. -1.
        -11    1    3    3    0    0 -0.41745514969E+01 -0.34661545797E+01 -0.34656686927E+01  0.64383202405E+01  0.51100000000E-03 0.  1.
         12    1    3    3    0    0 -0.22628540954E+02  0.18579467274E+02 -0.23123862376E+02  0.37308986599E+02  0.00000000000E+00 0. -1.
</event>
<event>
 7    1  0.4675811E-010  0.4778727E+02  0.7816164E-02  0.1312668E+00
        -11   -1    0    0    0    0  0.00000000000E+00  0.00000000000E+00  0.45593999997E+02  0.45594000000E+02  0.51100000000E-03 0.  1.
         11   -1    0    0    0    0 -0.00000000000E+00 -0.00000000000E+00 -0.45593999997E+02  0.45594000000E+02  0.51100000000E-03 0. -1.
    9900012    2    1    2    0    0  0.13807125314E+02 -0.23904738768E+02 -0.33489554584E+02  0.47787268310E+02  0.19999987532E+02 0.  0.
        -12    1    1    2    0    0 -0.13807125314E+02  0.23904738768E+02  0.33489554584E+02  0.43400731690E+02  0.00000000000E+00 0.  1.
         11    1    3    3    0    0  0.71962755665E+01 -0.11876615935E+02 -0.27849280572E+02  0.31119492552E+02  0.51100000000E-03 0. -1.
        -11    1    3    3    0    0  0.60333440686E+01 -0.40339523098E+01 -0.45823962625E+01  0.85832608987E+01  0.51100000000E-03 0.  1.
        -12    1    3    3    0    0  0.57750567888E+00 -0.79941705238E+01 -0.10578777497E+01  0.80845148591E+01  0.00000000000E+00 0.  1.
</event>
<event>
 7    1  0.4675811E-010  0.4778727E+02  0.7816164E-02  0.1312668E+00
        -11   -1    0    0    0    0  0.00000000000E+00  0.00000000000E+00  0.45593999997E+02  0.45594000000E+02  0.51100000000E-03 0.  1.
         11   -1    0    0    0    0 -0.00000000000E+00 -0.00000000000E+00 -0.45593999997E+02  0.45594000000E+02  0.51100000000E-03 0. -1.
    9900012    2    1    2    0    0 -0.16035177777E+02  0.21864248440E+02 -0.33888802212E+02  0.47787271877E+02  0.20000003797E+02 0.  0.
        -12    1    1    2    0    0  0.16035177777E+02 -0.21864248440E+02  0.33888802212E+02  0.43400728123E+02  0.00000000000E+00 0.  1.
         11    1    3    3    0    0 -0.11167001558E+01 -0.72651750138E+00 -0.13212510786E+01  0.18763132978E+01  0.51100000000E-03 0. -1.
        -11    1    3    3    0    0 -0.95542703149E+00  0.48045866903E+01 -0.18821106143E+02  0.19448160088E+02  0.51100000000E-03 0.  1.
         12    1    3    3    0    0 -0.13963050590E+02  0.17786179251E+02 -0.13746444991E+02  0.26462798492E+02  0.00000000000E+00 0. -1.
</event>
<event>
 7    1  0.4675811E-010  0.4778727E+02  0.7816164E-02  0.1312668E+00
        -11   -1    0    0    0    0  0.00000000000E+00  0.00000000000E+00  0.45593999997E+02  0.45594000000E+02  0.51100000000E-03 0.  1.
         11   -1    0    0    0    0 -0.00000000000E+00 -0.00000000000E+00 -0.45593999997E+02  0.45594000000E+02  0.51100000000E-03 0. -1.
    9900012    2    1    2    0    0 -0.33380465689E+02 -0.98023830774E+01 -0.25947662234E+02  0.47787269833E+02  0.19999994477E+02 0.  0.
        -12    1    1    2    0    0  0.33380465689E+02  0.98023830774E+01  0.25947662234E+02  0.43400730167E+02  0.00000000000E+00 0.  1.
         11    1    3    3    0    0 -0.12756993864E+02 -0.85725377981E+01 -0.56050469375E+01  0.16359885335E+02  0.51100000000E-03 0. -1.
        -11    1    3    3    0    0 -0.61944505027E+01 -0.45278071809E+01 -0.21381616981E+01  0.79651736080E+01  0.51100000000E-03 0.  1.
         12    1    3    3    0    0 -0.14429021323E+02  0.32979619016E+01 -0.18204453598E+02  0.23462210890E+02  0.00000000000E+00 0. -1.
</event>
<event>
 7    1  0.4675811E-010  0.4778727E+02  0.7816164E-02  0.1312668E+00
        -11   -1    0    0    0    0  0.00000000000E+00  0.00000000000E+00  0.45593999997E+02  0.45594000000E+02  0.51100000000E-03 0.  1.
         11   -1    0    0    0    0 -0.00000000000E+00 -0.00000000000E+00 -0.45593999997E+02  0.45594000000E+02  0.51100000000E-03 0. -1.
    9900012    2    1    2    0    0  0.38314341484E+02  0.85634754176E+01  0.18501383217E+02  0.47787273559E+02  0.20000011467E+02 0.  0.
        -12    1    1    2    0    0 -0.38314341484E+02 -0.85634754176E+01 -0.18501383217E+02  0.43400726441E+02  0.00000000000E+00 0.  1.
         11    1    3    3    0    0  0.13559278634E+02  0.19552648079E+01  0.11766377689E+01  0.13749966336E+02  0.51100000000E-03 0. -1.
        -11    1    3    3    0    0  0.99507926603E+01  0.84259567629E+01  0.30482702432E+01  0.13390555391E+02  0.51100000000E-03 0.  1.
         12    1    3    3    0    0  0.14804270190E+02 -0.18177461532E+01  0.14276475205E+02  0.20646751832E+02  0.00000000000E+00 0. -1.
</event>
<event>
 7    1  0.4675811E-010  0.4778728E+02  0.7816164E-02  0.1312668E+00
        -11   -1    0    0    0    0  0.00000000000E+00  0.00000000000E+00  0.45593999997E+02  0.45594000000E+02  0.51100000000E-03 0. -1.
         11   -1    0    0    0    0 -0.00000000000E+00 -0.00000000000E+00 -0.45593999997E+02  0.45594000000E+02  0.51100000000E-03 0.  1.
    9900012    2    1    2    0    0  0.25434281472E+02 -0.29613640180E+02  0.18967140910E+02  0.47787276584E+02  0.20000025258E+02 0.  0.
        -12    1    1    2    0    0 -0.25434281472E+02  0.29613640180E+02 -0.18967140910E+02  0.43400723416E+02  0.00000000000E+00 0.  1.
         11    1    3    3    0    0  0.65873171107E+01 -0.56674537850E+01  0.53812337228E+01  0.10221078992E+02  0.51100000000E-03 0. -1.
        -11    1    3    3    0    0  0.14902731901E+02 -0.11324663125E+02  0.15374673444E+02  0.24222303705E+02  0.51100000000E-03 0.  1.
         12    1    3    3    0    0  0.39442324606E+01 -0.12621523270E+02 -0.17887662565E+01  0.13343893887E+02  0.00000000000E+00 0. -1.
</event>
<event>
 7    1  0.4675811E-010  0.4778727E+02  0.7816164E-02  0.1312668E+00
        -11   -1    0    0    0    0  0.00000000000E+00  0.00000000000E+00  0.45593999997E+02  0.45594000000E+02  0.51100000000E-03 0.  1.
         11   -1    0    0    0    0 -0.00000000000E+00 -0.00000000000E+00 -0.45593999997E+02  0.45594000000E+02  0.51100000000E-03 0. -1.
    9900012    2    1    2    0    0 -0.40164077695E+02 -0.15562708600E+02  0.53171693353E+01  0.47787270446E+02  0.19999997272E+02 0.  0.
        -12    1    1    2    0    0  0.40164077695E+02  0.15562708600E+02 -0.53171693353E+01  0.43400729554E+02  0.00000000000E+00 0.  1.
         11    1    3    3    0    0 -0.19033335087E+02 -0.84211937318E+01  0.38406946060E+01  0.21164481655E+02  0.51100000000E-03 0. -1.
        -11    1    3    3    0    0 -0.22247734216E+01 -0.32493399524E+01 -0.49073717411E+01  0.62920683857E+01  0.51100000000E-03 0.  1.
        -12    1    3    3    0    0 -0.18905969186E+02 -0.38921749160E+01  0.63838464703E+01  0.20330720406E+02  0.00000000000E+00 0.  1.
</event>
<event>
 7    1  0.4675811E-010  0.4778727E+02  0.7816164E-02  0.1312668E+00
        -11   -1    0    0    0    0  0.00000000000E+00  0.00000000000E+00  0.45593999997E+02  0.45594000000E+02  0.51100000000E-03 0.  1.
         11   -1    0    0    0    0 -0.00000000000E+00 -0.00000000000E+00 -0.45593999997E+02  0.45594000000E+02  0.51100000000E-03 0. -1.
    9900012    2    1    2    0    0 -0.55996234833E+01  0.52303824366E+01 -0.42718972018E+02  0.47787271275E+02  0.20000001053E+02 0.  0.
        -12    1    1    2    0    0  0.55996234833E+01 -0.52303824366E+01  0.42718972018E+02  0.43400728725E+02  0.00000000000E+00 0.  1.
         11    1    3    3    0    0  0.29156264677E+00  0.31198800154E+01 -0.40683426601E+00  0.31597744332E+01  0.51100000000E-03 0. -1.
        -11    1    3    3    0    0  0.31237852978E+01  0.42527512966E+00 -0.33484466406E+01  0.45990204053E+01  0.51100000000E-03 0.  1.
         12    1    3    3    0    0 -0.90149714279E+01  0.16852272915E+01 -0.38963691111E+02  0.40028476437E+02  0.00000000000E+00 0. -1.
</event>
<event>
 7    1  0.4675811E-010  0.4778727E+02  0.7816164E-02  0.1312668E+00
        -11   -1    0    0    0    0  0.00000000000E+00  0.00000000000E+00  0.45593999997E+02  0.45594000000E+02  0.51100000000E-03 0.  1.
         11   -1    0    0    0    0 -0.00000000000E+00 -0.00000000000E+00 -0.45593999997E+02  0.45594000000E+02  0.51100000000E-03 0. -1.
    9900012    2    1    2    0    0 -0.41494010314E+02  0.40673520507E+01 -0.12055152610E+02  0.47787274786E+02  0.20000017061E+02 0.  0.
        -12    1    1    2    0    0  0.41494010314E+02 -0.40673520507E+01  0.12055152610E+02  0.43400725214E+02  0.00000000000E+00 0.  1.
         11    1    3    3    0    0 -0.82789743271E+01  0.46310633861E+01 -0.24575117129E+01  0.97993636566E+01  0.51100000000E-03 0. -1.
        -11    1    3    3    0    0 -0.23425505047E+02 -0.18562625311E+01  0.97762121427E+00  0.23519263186E+02  0.51100000000E-03 0.  1.
        -12    1    3    3    0    0 -0.97895309393E+01  0.12925511957E+01 -0.10575262111E+02  0.14468647944E+02  0.00000000000E+00 0.  1.
</event>
<event>
 7    1  0.4675811E-010  0.4778728E+02  0.7816164E-02  0.1312668E+00
        -11   -1    0    0    0    0  0.00000000000E+00  0.00000000000E+00  0.45593999997E+02  0.45594000000E+02  0.51100000000E-03 0.  1.
         11   -1    0    0    0    0 -0.00000000000E+00 -0.00000000000E+00 -0.45593999997E+02  0.45594000000E+02  0.51100000000E-03 0. -1.
    9900012    2    1    2    0    0  0.13496065885E+02 -0.37127212285E+02 -0.17973550871E+02  0.47787283216E+02  0.20000055496E+02 0.  0.
        -12    1    1    2    0    0 -0.13496065885E+02  0.37127212285E+02  0.17973550871E+02  0.43400716784E+02  0.00000000000E+00 0.  1.
         11    1    3    3    0    0  0.65493531281E+01 -0.11831585354E+02 -0.19777137907E+01  0.13667179317E+02  0.51100000000E-03 0. -1.
        -11    1    3    3    0    0  0.12639137585E+01 -0.24040317200E+02 -0.11075401428E+02  0.26499034815E+02  0.51100000000E-03 0.  1.
        -12    1    3    3    0    0  0.56827989982E+01 -0.12553097309E+01 -0.49204356521E+01  0.76210690839E+01  0.00000000000E+00 0.  1.
</event>
<event>
 7    1  0.4675811E-010  0.4778727E+02  0.7816164E-02  0.1312668E+00
        -11   -1    0    0    0    0  0.00000000000E+00  0.00000000000E+00  0.45593999997E+02  0.45594000000E+02  0.51100000000E-03 0.  1.
         11   -1    0    0    0    0 -0.00000000000E+00 -0.00000000000E+00 -0.45593999997E+02  0.45594000000E+02  0.51100000000E-03 0. -1.
    9900012    2    1    2    0    0  0.21496082394E+02  0.34728073364E+02 -0.14680010151E+02  0.47787270330E+02  0.19999996743E+02 0.  0.
        -12    1    1    2    0    0 -0.21496082394E+02 -0.34728073364E+02  0.14680010151E+02  0.43400729670E+02  0.00000000000E+00 0.  1.
         11    1    3    3    0    0 -0.49248278187E+00  0.87612016433E+01  0.80581242124E-01  0.87754023909E+01  0.51100000000E-03 0.  1.
        -11    1    3    3    0    0  0.10643150386E+02  0.21335846454E+02 -0.92273671545E+01  0.25566370468E+02  0.51100000000E-03 0. -1.
         12    1    3    3    0    0  0.11345414789E+02  0.46310252665E+01 -0.55332242391E+01  0.13445497471E+02  0.00000000000E+00 0. -1.
</event>
<event>
 7    1  0.4675811E-010  0.4778727E+02  0.7816164E-02  0.1312668E+00
        -11   -1    0    0    0    0  0.00000000000E+00  0.00000000000E+00  0.45593999997E+02  0.45594000000E+02  0.51100000000E-03 0.  1.
         11   -1    0    0    0    0 -0.00000000000E+00 -0.00000000000E+00 -0.45593999997E+02  0.45594000000E+02  0.51100000000E-03 0. -1.
    9900012    2    1    2    0    0 -0.31245447534E+02 -0.60938463447E+01 -0.29499323474E+02  0.47787273735E+02  0.20000012269E+02 0.  0.
        -12    1    1    2    0    0  0.31245447534E+02  0.60938463447E+01  0.29499323474E+02  0.43400726265E+02  0.00000000000E+00 0.  1.
         11    1    3    3    0    0 -0.13340876732E+02 -0.83016978534E+01 -0.11025379371E+02  0.19195212158E+02  0.51100000000E-03 0. -1.
        -11    1    3    3    0    0 -0.10947271696E+01 -0.37616409720E+01 -0.42210098348E+01  0.57589317295E+01  0.51100000000E-03 0.  1.
         12    1    3    3    0    0 -0.16809843632E+02  0.59694924807E+01 -0.14252934267E+02  0.22833129848E+02  0.00000000000E+00 0. -1.
</event>
<event>
 7    1  0.4675811E-010  0.4778727E+02  0.7816164E-02  0.1312668E+00
        -11   -1    0    0    0    0  0.00000000000E+00  0.00000000000E+00  0.45593999997E+02  0.45594000000E+02  0.51100000000E-03 0. -1.
         11   -1    0    0    0    0 -0.00000000000E+00 -0.00000000000E+00 -0.45593999997E+02  0.45594000000E+02  0.51100000000E-03 0.  1.
    9900012    2    1    2    0    0 -0.29757535520E+02 -0.23364971308E+02  0.21264779687E+02  0.47787266601E+02  0.19999979739E+02 0.  0.
        -12    1    1    2    0    0  0.29757535520E+02  0.23364971308E+02 -0.21264779687E+02  0.43400733399E+02  0.00000000000E+00 0.  1.
         11    1    3    3    0    0 -0.34724217094E+01 -0.31291429046E+01  0.56410705258E+01  0.73260442794E+01  0.51100000000E-03 0. -1.
        -11    1    3    3    0    0 -0.21058494926E+01 -0.71153653577E+01 -0.21300672439E+01  0.77201174203E+01  0.51100000000E-03 0.  1.
        -12    1    3    3    0    0 -0.24179264318E+02 -0.13120463046E+02  0.17753776405E+02  0.32741104901E+02  0.00000000000E+00 0.  1.
</event>
<event>
 7    1  0.4675811E-010  0.4778726E+02  0.7816164E-02  0.1312668E+00
        -11   -1    0    0    0    0  0.00000000000E+00  0.00000000000E+00  0.45593999997E+02  0.45594000000E+02  0.51100000000E-03 0.  1.
         11   -1    0    0    0    0 -0.00000000000E+00 -0.00000000000E+00 -0.45593999997E+02  0.45594000000E+02  0.51100000000E-03 0. -1.
    9900012    2    1    2    0    0 -0.14927906953E+02 -0.33212962194E+02  0.23615270373E+02  0.47787259701E+02  0.19999948282E+02 0.  0.
        -12    1    1    2    0    0  0.14927906953E+02  0.33212962194E+02 -0.23615270373E+02  0.43400740299E+02  0.00000000000E+00 0.  1.
         11    1    3    3    0    0 -0.13273795590E+02 -0.23457761543E+02  0.73570263431E+01  0.27938970326E+02  0.51100000000E-03 0. -1.
        -11    1    3    3    0    0 -0.31110990982E+01 -0.30070994899E+01  0.47256247325E+01  0.64072704262E+01  0.51100000000E-03 0.  1.
         12    1    3    3    0    0  0.14569877349E+01 -0.67481011605E+01  0.11532619298E+02  0.13441018949E+02  0.00000000000E+00 0. -1.
</event>
<event>
 7    1  0.4675811E-010  0.4778727E+02  0.7816164E-02  0.1312668E+00
        -11   -1    0    0    0    0  0.00000000000E+00  0.00000000000E+00  0.45593999997E+02  0.45594000000E+02  0.51100000000E-03 0.  1.
         11   -1    0    0    0    0 -0.00000000000E+00 -0.00000000000E+00 -0.45593999997E+02  0.45594000000E+02  0.51100000000E-03 0. -1.
    9900012    2    1    2    0    0  0.72810805735E+01 -0.42155822609E+02 -0.73140865189E+01  0.47787269871E+02  0.19999994650E+02 0.  0.
        -12    1    1    2    0    0 -0.72810805735E+01  0.42155822609E+02  0.73140865189E+01  0.43400730129E+02  0.00000000000E+00 0.  1.
         11    1    3    3    0    0  0.20660742632E+01 -0.50827570012E+01 -0.27685029026E+01  0.61455423013E+01  0.51100000000E-03 0. -1.
        -11    1    3    3    0    0  0.45188882262E+01 -0.12792020001E+01 -0.34444438706E+01  0.58241653820E+01  0.51100000000E-03 0.  1.
        -12    1    3    3    0    0  0.69611808407E+00 -0.35793863607E+02 -0.11011397457E+01  0.35817562188E+02  0.00000000000E+00 0.  1.
</event>
<event>
 7    1  0.4675811E-010  0.4778727E+02  0.7816164E-02  0.1312668E+00
        -11   -1    0    0    0    0  0.00000000000E+00  0.00000000000E+00  0.45593999997E+02  0.45594000000E+02  0.51100000000E-03 0.  1.
         11   -1    0    0    0    0 -0.00000000000E+00 -0.00000000000E+00 -0.45593999997E+02  0.45594000000E+02  0.51100000000E-03 0. -1.
    9900012    2    1    2    0    0 -0.14887016314E+02  0.19067085687E+02 -0.36033959356E+02  0.47787271455E+02  0.20000001872E+02 0.  0.
        -12    1    1    2    0    0  0.14887016314E+02 -0.19067085687E+02  0.36033959356E+02  0.43400728545E+02  0.00000000000E+00 0.  1.
         11    1    3    3    0    0 -0.77208774202E+01  0.14573856217E+01 -0.11974445205E+02  0.14322124815E+02  0.51100000000E-03 0. -1.
        -11    1    3    3    0    0 -0.76145089528E+01  0.28746051485E+01 -0.57837580967E+01  0.99847863940E+01  0.51100000000E-03 0.  1.
         12    1    3    3    0    0  0.44837005881E+00  0.14735094917E+02 -0.18275756055E+02  0.23480360246E+02  0.00000000000E+00 0. -1.
</event>
<event>
 7    1  0.4675811E-010  0.4778727E+02  0.7816164E-02  0.1312668E+00
        -11   -1    0    0    0    0  0.00000000000E+00  0.00000000000E+00  0.45593999997E+02  0.45594000000E+02  0.51100000000E-03 0. -1.
         11   -1    0    0    0    0 -0.00000000000E+00 -0.00000000000E+00 -0.45593999997E+02  0.45594000000E+02  0.51100000000E-03 0.  1.
    9900012    2    1    2    0    0 -0.83171387471E+01 -0.39056124753E+02 -0.17001986692E+02  0.47787271560E+02  0.20000002349E+02 0.  0.
        -12    1    1    2    0    0  0.83171387471E+01  0.39056124753E+02  0.17001986692E+02  0.43400728440E+02  0.00000000000E+00 0.  1.
         11    1    3    3    0    0 -0.26877156641E+00 -0.12924492759E+02 -0.51492672833E+01  0.13915089114E+02  0.51100000000E-03 0. -1.
        -11    1    3    3    0    0  0.29099242290E+01 -0.10881080895E+02 -0.98923494680E+01  0.14990802471E+02  0.51100000000E-03 0.  1.
        -12    1    3    3    0    0 -0.10958291410E+02 -0.15250551100E+02 -0.19603699403E+01  0.18881379976E+02  0.00000000000E+00 0.  1.
</event>
<event>
 7    1  0.4675811E-010  0.4778727E+02  0.7816164E-02  0.1312668E+00
        -11   -1    0    0    0    0  0.00000000000E+00  0.00000000000E+00  0.45593999997E+02  0.45594000000E+02  0.51100000000E-03 0. -1.
         11   -1    0    0    0    0 -0.00000000000E+00 -0.00000000000E+00 -0.45593999997E+02  0.45594000000E+02  0.51100000000E-03 0.  1.
    9900012    2    1    2    0    0  0.15978685592E+02  0.21045343303E+02  0.34429620041E+02  0.47787267239E+02  0.19999982650E+02 0.  0.
        -12    1    1    2    0    0 -0.15978685592E+02 -0.21045343303E+02 -0.34429620041E+02  0.43400732761E+02  0.00000000000E+00 0.  1.
         11    1    3    3    0    0  0.14643085957E+02  0.95577439685E+01  0.28730897747E+02  0.33633835965E+02  0.51100000000E-03 0. -1.
        -11    1    3    3    0    0  0.85512269306E+00  0.61263829180E+01  0.61866914018E+01  0.87486543675E+01  0.51100000000E-03 0.  1.
        -12    1    3    3    0    0  0.48047694210E+00  0.53612164165E+01 -0.48796910798E+00  0.54047769063E+01  0.00000000000E+00 0.  1.
</event>
<event>
 7    1  0.4675811E-010  0.4778727E+02  0.7816164E-02  0.1312668E+00
        -11   -1    0    0    0    0  0.00000000000E+00  0.00000000000E+00  0.45593999997E+02  0.45594000000E+02  0.51100000000E-03 0. -1.
         11   -1    0    0    0    0 -0.00000000000E+00 -0.00000000000E+00 -0.45593999997E+02  0.45594000000E+02  0.51100000000E-03 0.  1.
    9900012    2    1    2    0    0 -0.35503009180E+02 -0.12434832339E+01  0.24932173847E+02  0.47787271848E+02  0.20000003663E+02 0.  0.
        -12    1    1    2    0    0  0.35503009180E+02  0.12434832339E+01 -0.24932173847E+02  0.43400728152E+02  0.00000000000E+00 0.  1.
         11    1    3    3    0    0 -0.84000706209E+01 -0.70606855685E+01  0.77826048895E+01  0.13453007332E+02  0.51100000000E-03 0. -1.
        -11    1    3    3    0    0 -0.49145496854E+01 -0.25671685977E+01  0.58517850643E+01  0.80614230703E+01  0.51100000000E-03 0.  1.
        -12    1    3    3    0    0 -0.22188388874E+02  0.83843709323E+01  0.11297783893E+02  0.26272841446E+02  0.00000000000E+00 0.  1.
</event>
<event>
 7    1  0.4675811E-010  0.4778729E+02  0.7816164E-02  0.1312668E+00
        -11   -1    0    0    0    0  0.00000000000E+00  0.00000000000E+00  0.45593999997E+02  0.45594000000E+02  0.51100000000E-03 0.  1.
         11   -1    0    0    0    0 -0.00000000000E+00 -0.00000000000E+00 -0.45593999997E+02  0.45594000000E+02  0.51100000000E-03 0. -1.
    9900012    2    1    2    0    0 -0.20643765800E+02  0.30666707501E+02 -0.22737850970E+02  0.47787287078E+02  0.20000073104E+02 0.  0.
        -12    1    1    2    0    0  0.20643765800E+02 -0.30666707501E+02  0.22737850970E+02  0.43400712922E+02  0.00000000000E+00 0.  1.
         11    1    3    3    0    0 -0.82715021589E+01  0.15460169084E+02 -0.11377928991E+02  0.20901957910E+02  0.51100000000E-03 0. -1.
        -11    1    3    3    0    0 -0.41064547809E+01  0.14113523515E+02 -0.28518070035E+01  0.14972886172E+02  0.51100000000E-03 0.  1.
        -12    1    3    3    0    0 -0.82658088607E+01  0.10930149020E+01 -0.85081149753E+01  0.11912442996E+02  0.00000000000E+00 0.  1.
</event>
<event>
 7    1  0.4675811E-010  0.4778730E+02  0.7816164E-02  0.1312668E+00
        -11   -1    0    0    0    0  0.00000000000E+00  0.00000000000E+00  0.45593999997E+02  0.45594000000E+02  0.51100000000E-03 0.  1.
         11   -1    0    0    0    0 -0.00000000000E+00 -0.00000000000E+00 -0.45593999997E+02  0.45594000000E+02  0.51100000000E-03 0. -1.
    9900012    2    1    2    0    0 -0.24543581671E+02 -0.25188824257E+02 -0.25431412223E+02  0.47787297282E+02  0.20000119628E+02 0.  0.
        -12    1    1    2    0    0  0.24543581671E+02  0.25188824257E+02  0.25431412223E+02  0.43400702718E+02  0.00000000000E+00 0.  1.
         11    1    3    3    0    0 -0.73408787435E+01 -0.41318557133E+01 -0.10984935592E+02  0.13843032275E+02  0.51100000000E-03 0. -1.
        -11    1    3    3    0    0 -0.35774525270E+00 -0.25075950752E+01 -0.75388072020E+01  0.79529635367E+01  0.51100000000E-03 0.  1.
         12    1    3    3    0    0 -0.16844957675E+02 -0.18549373469E+02 -0.69076694296E+01  0.25991301470E+02  0.00000000000E+00 0. -1.
</event>
<event>
 7    1  0.4675811E-010  0.4778728E+02  0.7816164E-02  0.1312668E+00
        -11   -1    0    0    0    0  0.00000000000E+00  0.00000000000E+00  0.45593999997E+02  0.45594000000E+02  0.51100000000E-03 0.  1.
         11   -1    0    0    0    0 -0.00000000000E+00 -0.00000000000E+00 -0.45593999997E+02  0.45594000000E+02  0.51100000000E-03 0. -1.
    9900012    2    1    2    0    0 -0.16776992933E+01 -0.36373285310E+02 -0.23617626011E+02  0.47787276302E+02  0.20000023970E+02 0.  0.
        -12    1    1    2    0    0  0.16776992933E+01  0.36373285310E+02  0.23617626011E+02  0.43400723698E+02  0.00000000000E+00 0.  1.
         11    1    3    3    0    0  0.53083333783E+01 -0.13727555391E+02 -0.11619882468E+02  0.18752222511E+02  0.51100000000E-03 0. -1.
        -11    1    3    3    0    0  0.54289809920E+00 -0.13768740267E+01  0.19965495579E+01  0.24853029654E+01  0.51100000000E-03 0.  1.
         12    1    3    3    0    0 -0.75289307708E+01 -0.21268855892E+02 -0.13994293100E+02  0.26549750825E+02  0.00000000000E+00 0. -1.
</event>
<event>
 7    1  0.4675811E-010  0.4778727E+02  0.7816164E-02  0.1312668E+00
        -11   -1    0    0    0    0  0.00000000000E+00  0.00000000000E+00  0.45593999997E+02  0.45594000000E+02  0.51100000000E-03 0.  1.
         11   -1    0    0    0    0 -0.00000000000E+00 -0.00000000000E+00 -0.45593999997E+02  0.45594000000E+02  0.51100000000E-03 0. -1.
    9900012    2    1    2    0    0  0.36036080786E+02  0.14643307913E+02 -0.19250913598E+02  0.47787271211E+02  0.20000000760E+02 0.  0.
        -12    1    1    2    0    0 -0.36036080786E+02 -0.14643307913E+02  0.19250913598E+02  0.43400728789E+02  0.00000000000E+00 0.  1.
         11    1    3    3    0    0  0.54669535886E+01 -0.11290583530E+01  0.21767294667E+01  0.59917030748E+01  0.51100000000E-03 0. -1.
        -11    1    3    3    0    0  0.10374927074E+02  0.79212321828E+00 -0.89555914152E+01  0.13728408095E+02  0.51100000000E-03 0.  1.
         12    1    3    3    0    0  0.20194200123E+02  0.14980243048E+02 -0.12472051650E+02  0.28067160041E+02  0.00000000000E+00 0. -1.
</event>
<event>
 7    1  0.4675811E-010  0.4778727E+02  0.7816164E-02  0.1312668E+00
        -11   -1    0    0    0    0  0.00000000000E+00  0.00000000000E+00  0.45593999997E+02  0.45594000000E+02  0.51100000000E-03 0. -1.
         11   -1    0    0    0    0 -0.00000000000E+00 -0.00000000000E+00 -0.45593999997E+02  0.45594000000E+02  0.51100000000E-03 0.  1.
    9900012    2    1    2    0    0  0.41078541293E+02 -0.43229920074E+00 -0.13999628247E+02  0.47787273873E+02  0.20000012896E+02 0.  0.
        -12    1    1    2    0    0 -0.41078541293E+02  0.43229920074E+00  0.13999628247E+02  0.43400726127E+02  0.00000000000E+00 0.  1.
         11    1    3    3    0    0  0.16548862483E+02  0.64874112327E+01 -0.12765599890E+02  0.21884055721E+02  0.51100000000E-03 0.  1.
        -11    1    3    3    0    0  0.96195505848E+01 -0.28642449414E+01 -0.26666781308E+01  0.10385125182E+02  0.51100000000E-03 0. -1.
        -12    1    3    3    0    0  0.14910128225E+02 -0.40554654921E+01  0.14326497741E+01  0.15518092970E+02  0.00000000000E+00 0.  1.
</event>
<event>
 7    1  0.4675811E-010  0.4778727E+02  0.7816164E-02  0.1312668E+00
        -11   -1    0    0    0    0  0.00000000000E+00  0.00000000000E+00  0.45593999997E+02  0.45594000000E+02  0.51100000000E-03 0.  1.
         11   -1    0    0    0    0 -0.00000000000E+00 -0.00000000000E+00 -0.45593999997E+02  0.45594000000E+02  0.51100000000E-03 0. -1.
    9900012    2    1    2    0    0 -0.27468613082E+01  0.17784069343E+02 -0.39494370340E+02  0.47787266619E+02  0.19999979825E+02 0.  0.
        -12    1    1    2    0    0  0.27468613082E+01 -0.17784069343E+02  0.39494370340E+02  0.43400733381E+02  0.00000000000E+00 0.  1.
         11    1    3    3    0    0  0.18733108406E+01  0.39234626980E+01 -0.15888031350E+02  0.16472170272E+02  0.51100000000E-03 0. -1.
        -11    1    3    3    0    0 -0.61802455935E+01  0.35545571132E+01 -0.18255788992E+02  0.19598575047E+02  0.51100000000E-03 0.  1.
        -12    1    3    3    0    0  0.15600734448E+01  0.10306049532E+02 -0.53505499976E+01  0.11716521301E+02  0.00000000000E+00 0.  1.
</event>
<event>
 7    1  0.4675811E-010  0.4778727E+02  0.7816164E-02  0.1312668E+00
        -11   -1    0    0    0    0  0.00000000000E+00  0.00000000000E+00  0.45593999997E+02  0.45594000000E+02  0.51100000000E-03 0.  1.
         11   -1    0    0    0    0 -0.00000000000E+00 -0.00000000000E+00 -0.45593999997E+02  0.45594000000E+02  0.51100000000E-03 0. -1.
    9900012    2    1    2    0    0  0.30582519825E+02  0.24439567938E+02 -0.18736069035E+02  0.47787270943E+02  0.19999999536E+02 0.  0.
        -12    1    1    2    0    0 -0.30582519825E+02 -0.24439567938E+02  0.18736069035E+02  0.43400729057E+02  0.00000000000E+00 0.  1.
         11    1    3    3    0    0  0.57002507543E+01  0.18978251642E+01 -0.50653475282E+01  0.78582660211E+01  0.51100000000E-03 0. -1.
        -11    1    3    3    0    0 -0.18642455933E+00  0.14019782291E+01  0.28712877748E+01  0.32007172349E+01  0.51100000000E-03 0.  1.
         12    1    3    3    0    0  0.25068693630E+02  0.21139764545E+02 -0.16542009281E+02  0.36728287687E+02  0.00000000000E+00 0. -1.
</event>
<event>
 7    1  0.4675811E-010  0.4778727E+02  0.7816164E-02  0.1312668E+00
        -11   -1    0    0    0    0  0.00000000000E+00  0.00000000000E+00  0.45593999997E+02  0.45594000000E+02  0.51100000000E-03 0. -1.
         11   -1    0    0    0    0 -0.00000000000E+00 -0.00000000000E+00 -0.45593999997E+02  0.45594000000E+02  0.51100000000E-03 0.  1.
    9900012    2    1    2    0    0 -0.30259846341E+02 -0.28676211004E+02  0.12068138531E+02  0.47787270217E+02  0.19999996228E+02 0.  0.
        -12    1    1    2    0    0  0.30259846341E+02  0.28676211004E+02 -0.12068138531E+02  0.43400729783E+02  0.00000000000E+00 0.  1.
         11    1    3    3    0    0 -0.44949159824E+01  0.28969793489E+00  0.91336392879E+00  0.45959143280E+01  0.51100000000E-03 0. -1.
        -11    1    3    3    0    0 -0.46779983243E+01 -0.12778432806E+02 -0.16083976644E+01  0.13702516433E+02  0.51100000000E-03 0.  1.
         12    1    3    3    0    0 -0.21086932034E+02 -0.16187476133E+02  0.12763172266E+02  0.29488839456E+02  0.00000000000E+00 0. -1.
</event>
<event>
 7    1  0.4675811E-010  0.4778727E+02  0.7816164E-02  0.1312668E+00
        -11   -1    0    0    0    0  0.00000000000E+00  0.00000000000E+00  0.45593999997E+02  0.45594000000E+02  0.51100000000E-03 0.  1.
         11   -1    0    0    0    0 -0.00000000000E+00 -0.00000000000E+00 -0.45593999997E+02  0.45594000000E+02  0.51100000000E-03 0. -1.
    9900012    2    1    2    0    0  0.39098067985E+02  0.10358512571E+02 -0.15737387701E+02  0.47787273341E+02  0.20000010471E+02 0.  0.
        -12    1    1    2    0    0 -0.39098067985E+02 -0.10358512571E+02  0.15737387701E+02  0.43400726659E+02  0.00000000000E+00 0.  1.
         11    1    3    3    0    0  0.10964481570E+02  0.13522738187E+01 -0.11856307742E+02  0.16205571082E+02  0.51100000000E-03 0. -1.
        -11    1    3    3    0    0  0.18520787534E+02  0.64650332476E+01 -0.74985699462E+01  0.21001066099E+02  0.51100000000E-03 0.  1.
        -12    1    3    3    0    0  0.96127988812E+01  0.25412055045E+01  0.36174899866E+01  0.10580636160E+02  0.00000000000E+00 0.  1.
</event>
<event>
 7    1  0.4675811E-010  0.4778726E+02  0.7816164E-02  0.1312668E+00
        -11   -1    0    0    0    0  0.00000000000E+00  0.00000000000E+00  0.45593999997E+02  0.45594000000E+02  0.51100000000E-03 0.  1.
         11   -1    0    0    0    0 -0.00000000000E+00 -0.00000000000E+00 -0.45593999997E+02  0.45594000000E+02  0.51100000000E-03 0. -1.
    9900012    2    1    2    0    0 -0.18462684220E+01 -0.75329368687E+01 -0.42702113718E+02  0.47787258521E+02  0.19999942901E+02 0.  0.
        -12    1    1    2    0    0  0.18462684220E+01  0.75329368687E+01  0.42702113718E+02  0.43400741479E+02  0.00000000000E+00 0.  1.
         11    1    3    3    0    0 -0.12208908678E+01 -0.65134691301E+01 -0.37242569520E+02  0.37827567187E+02  0.51100000000E-03 0. -1.
        -11    1    3    3    0    0  0.29770863184E+01  0.19966725167E+01 -0.28901109135E+01  0.46046156669E+01  0.51100000000E-03 0.  1.
        -12    1    3    3    0    0 -0.36024638727E+01 -0.30161402553E+01 -0.25694332848E+01  0.53550756670E+01  0.00000000000E+00 0.  1.
</event>
<event>
 7    1  0.4675811E-010  0.4778727E+02  0.7816164E-02  0.1312668E+00
        -11   -1    0    0    0    0  0.00000000000E+00  0.00000000000E+00  0.45593999997E+02  0.45594000000E+02  0.51100000000E-03 0.  1.
         11   -1    0    0    0    0 -0.00000000000E+00 -0.00000000000E+00 -0.45593999997E+02  0.45594000000E+02  0.51100000000E-03 0. -1.
    9900012    2    1    2    0    0  0.24854401849E+02 -0.34908663408E+02 -0.68751202075E+01  0.47787270167E+02  0.19999995998E+02 0.  0.
        -12    1    1    2    0    0 -0.24854401849E+02  0.34908663408E+02  0.68751202075E+01  0.43400729833E+02  0.00000000000E+00 0.  1.
         11    1    3    3    0    0 -0.28636834663E+00 -0.36127988337E+01 -0.12836160056E+00  0.36264030670E+01  0.51100000000E-03 0. -1.
        -11    1    3    3    0    0  0.14062073525E+01 -0.11796549620E+02  0.23804939371E+01  0.12116218622E+02  0.51100000000E-03 0.  1.
         12    1    3    3    0    0  0.23734562843E+02 -0.19499314954E+02 -0.91272525440E+01  0.32044648477E+02  0.00000000000E+00 0. -1.
</event>
<event>
 7    1  0.4675811E-010  0.4778727E+02  0.7816164E-02  0.1312668E+00
        -11   -1    0    0    0    0  0.00000000000E+00  0.00000000000E+00  0.45593999997E+02  0.45594000000E+02  0.51100000000E-03 0.  1.
         11   -1    0    0    0    0 -0.00000000000E+00 -0.00000000000E+00 -0.45593999997E+02  0.45594000000E+02  0.51100000000E-03 0. -1.
    9900012    2    1    2    0    0 -0.40539859204E+02 -0.40858309458E+01 -0.14948216160E+02  0.47787269993E+02  0.19999995207E+02 0.  0.
        -12    1    1    2    0    0  0.40539859204E+02  0.40858309458E+01  0.14948216160E+02  0.43400730007E+02  0.00000000000E+00 0.  1.
         11    1    3    3    0    0 -0.13240819384E+02 -0.20231767631E+01 -0.45950297932E+01  0.14160750024E+02  0.51100000000E-03 0. -1.
        -11    1    3    3    0    0  0.15882672700E+00 -0.18670259784E+01  0.26493195692E+01  0.32449817217E+01  0.51100000000E-03 0.  1.
         12    1    3    3    0    0 -0.27457866547E+02 -0.19562820441E+00 -0.13002505936E+02  0.30381538248E+02  0.00000000000E+00 0. -1.
</event>
<event>
 7    1  0.4675811E-010  0.4778726E+02  0.7816164E-02  0.1312668E+00
        -11   -1    0    0    0    0  0.00000000000E+00  0.00000000000E+00  0.45593999997E+02  0.45594000000E+02  0.51100000000E-03 0.  1.
         11   -1    0    0    0    0 -0.00000000000E+00 -0.00000000000E+00 -0.45593999997E+02  0.45594000000E+02  0.51100000000E-03 0. -1.
    9900012    2    1    2    0    0  0.35574884977E+02 -0.14521373597E+02 -0.20178737033E+02  0.47787260830E+02  0.19999953428E+02 0.  0.
        -12    1    1    2    0    0 -0.35574884977E+02  0.14521373597E+02  0.20178737033E+02  0.43400739170E+02  0.00000000000E+00 0.  1.
         11    1    3    3    0    0  0.79085126192E+01 -0.39547313379E+00 -0.67779498479E+01  0.10423126942E+02  0.51100000000E-03 0. -1.
        -11    1    3    3    0    0  0.13846887993E+02  0.88447680898E+00 -0.20783990693E+01  0.14029909097E+02  0.51100000000E-03 0.  1.
        -12    1    3    3    0    0  0.13819484365E+02 -0.15010377272E+02 -0.11322388116E+02  0.23334224791E+02  0.00000000000E+00 0.  1.
</event>
<event>
 7    1  0.4675811E-010  0.4778727E+02  0.7816164E-02  0.1312668E+00
        -11   -1    0    0    0    0  0.00000000000E+00  0.00000000000E+00  0.45593999997E+02  0.45594000000E+02  0.51100000000E-03 0.  1.
         11   -1    0    0    0    0 -0.00000000000E+00 -0.00000000000E+00 -0.45593999997E+02  0.45594000000E+02  0.51100000000E-03 0. -1.
    9900012    2    1    2    0    0  0.18625529185E+02 -0.14449827787E+02 -0.36440571981E+02  0.47787272508E+02  0.20000006674E+02 0.  0.
        -12    1    1    2    0    0 -0.18625529185E+02  0.14449827787E+02  0.36440571981E+02  0.43400727492E+02  0.00000000000E+00 0.  1.
         11    1    3    3    0    0  0.73342067530E+01 -0.15947957420E+01 -0.17629673255E+02  0.19160880499E+02  0.51100000000E-03 0. -1.
        -11    1    3    3    0    0  0.71794461868E+01  0.75919972776E+00 -0.78966764911E+01  0.10699454736E+02  0.51100000000E-03 0.  1.
         12    1    3    3    0    0  0.41118762452E+01 -0.13614231772E+02 -0.10914222236E+02  0.17926937274E+02  0.00000000000E+00 0. -1.
</event>
<event>
 7    1  0.4675811E-010  0.4778727E+02  0.7816164E-02  0.1312668E+00
        -11   -1    0    0    0    0  0.00000000000E+00  0.00000000000E+00  0.45593999997E+02  0.45594000000E+02  0.51100000000E-03 0.  1.
         11   -1    0    0    0    0 -0.00000000000E+00 -0.00000000000E+00 -0.45593999997E+02  0.45594000000E+02  0.51100000000E-03 0. -1.
    9900012    2    1    2    0    0  0.39610391552E+02 -0.17714307458E+02 -0.91859002717E+00  0.47787267111E+02  0.19999982066E+02 0.  0.
        -12    1    1    2    0    0 -0.39610391552E+02  0.17714307458E+02  0.91859002717E+00  0.43400732889E+02  0.00000000000E+00 0.  1.
         11    1    3    3    0    0  0.10445502057E+02  0.13203380435E+01  0.18393481657E+01  0.10688077830E+02  0.51100000000E-03 0. -1.
        -11    1    3    3    0    0  0.38078067691E+01 -0.31799677612E+01  0.40781787941E+01  0.64220814298E+01  0.51100000000E-03 0.  1.
         12    1    3    3    0    0  0.25357082727E+02 -0.15854677740E+02 -0.68361169870E+01  0.30677107851E+02  0.00000000000E+00 0. -1.
</event>
<event>
 7    1  0.4675811E-010  0.4778727E+02  0.7816164E-02  0.1312668E+00
        -11   -1    0    0    0    0  0.00000000000E+00  0.00000000000E+00  0.45593999997E+02  0.45594000000E+02  0.51100000000E-03 0.  1.
         11   -1    0    0    0    0 -0.00000000000E+00 -0.00000000000E+00 -0.45593999997E+02  0.45594000000E+02  0.51100000000E-03 0. -1.
    9900012    2    1    2    0    0 -0.20557933398E+02  0.38058920118E+02 -0.35374369268E+01  0.47787268599E+02  0.19999988851E+02 0.  0.
        -12    1    1    2    0    0  0.20557933398E+02 -0.38058920118E+02  0.35374369268E+01  0.43400731401E+02  0.00000000000E+00 0.  1.
         11    1    3    3    0    0 -0.11714415158E+02  0.13708572895E+02 -0.29806044902E+01  0.18276665360E+02  0.51100000000E-03 0. -1.
        -11    1    3    3    0    0 -0.21714157602E+01  0.15044558309E+02 -0.65904600491E+01  0.16567677720E+02  0.51100000000E-03 0.  1.
         12    1    3    3    0    0 -0.66721024798E+01  0.93057889141E+01  0.60336276126E+01  0.12942925519E+02  0.00000000000E+00 0. -1.
</event>
<event>
 7    1  0.4675811E-010  0.4778728E+02  0.7816164E-02  0.1312668E+00
        -11   -1    0    0    0    0  0.00000000000E+00  0.00000000000E+00  0.45593999997E+02  0.45594000000E+02  0.51100000000E-03 0. -1.
         11   -1    0    0    0    0 -0.00000000000E+00 -0.00000000000E+00 -0.45593999997E+02  0.45594000000E+02  0.51100000000E-03 0.  1.
    9900012    2    1    2    0    0 -0.28845591150E+02  0.32341714257E+02 -0.23596319642E+01  0.47787280273E+02  0.20000042075E+02 0.  0.
        -12    1    1    2    0    0  0.28845591150E+02 -0.32341714257E+02  0.23596319642E+01  0.43400719727E+02  0.00000000000E+00 0.  1.
         11    1    3    3    0    0 -0.22131919662E+02  0.24936698356E+02 -0.15232827804E+01  0.33376356654E+02  0.51100000000E-03 0. -1.
        -11    1    3    3    0    0 -0.28763489897E+01  0.92094854711E+01 -0.23115036894E+01  0.99212426500E+01  0.51100000000E-03 0.  1.
         12    1    3    3    0    0 -0.38373224982E+01 -0.18044695699E+01  0.14751545056E+01  0.44896809686E+01  0.00000000000E+00 0. -1.
</event>
<event>
 7    1  0.4675811E-010  0.4778725E+02  0.7816164E-02  0.1312668E+00
        -11   -1    0    0    0    0  0.00000000000E+00  0.00000000000E+00  0.45593999997E+02  0.45594000000E+02  0.51100000000E-03 0. -1.
         11   -1    0    0    0    0 -0.00000000000E+00 -0.00000000000E+00 -0.45593999997E+02  0.45594000000E+02  0.51100000000E-03 0.  1.
    9900012    2    1    2    0    0 -0.13561373915E+02  0.39531847518E+02  0.11702450177E+02  0.47787249190E+02  0.19999900358E+02 0.  0.
        -12    1    1    2    0    0  0.13561373915E+02 -0.39531847518E+02 -0.11702450177E+02  0.43400750810E+02  0.00000000000E+00 0.  1.
         11    1    3    3    0    0 -0.39056854372E+01  0.57329830879E+01  0.68615262930E+01  0.97571521025E+01  0.51100000000E-03 0. -1.
        -11    1    3    3    0    0 -0.10550418955E+02  0.14303477219E+02 -0.55401972656E+00  0.17782230985E+02  0.51100000000E-03 0.  1.
        -12    1    3    3    0    0  0.89473047733E+00  0.19495387211E+02  0.53949436109E+01  0.20247866102E+02  0.00000000000E+00 0.  1.
</event>
<event>
 7    1  0.4675811E-010  0.4778728E+02  0.7816164E-02  0.1312668E+00
        -11   -1    0    0    0    0  0.00000000000E+00  0.00000000000E+00  0.45593999997E+02  0.45594000000E+02  0.51100000000E-03 0.  1.
         11   -1    0    0    0    0 -0.00000000000E+00 -0.00000000000E+00 -0.45593999997E+02  0.45594000000E+02  0.51100000000E-03 0. -1.
    9900012    2    1    2    0    0 -0.38912220086E+02  0.17637377391E+02  0.76410003574E+01  0.47787276046E+02  0.20000022805E+02 0.  0.
        -12    1    1    2    0    0  0.38912220086E+02 -0.17637377391E+02 -0.76410003574E+01  0.43400723954E+02  0.00000000000E+00 0.  1.
         11    1    3    3    0    0 -0.12687791682E+02  0.47783238957E+01 -0.49030613019E+01  0.14417088729E+02  0.51100000000E-03 0.  1.
        -11    1    3    3    0    0 -0.17583951609E+02  0.43295295399E+01  0.40608119850E+01  0.18558835482E+02  0.51100000000E-03 0. -1.
        -12    1    3    3    0    0 -0.86404767954E+01  0.85295239550E+01  0.84832496743E+01  0.14811351835E+02  0.00000000000E+00 0.  1.
</event>
<event>
 7    1  0.4675811E-010  0.4778728E+02  0.7816164E-02  0.1312668E+00
        -11   -1    0    0    0    0  0.00000000000E+00  0.00000000000E+00  0.45593999997E+02  0.45594000000E+02  0.51100000000E-03 0. -1.
         11   -1    0    0    0    0 -0.00000000000E+00 -0.00000000000E+00 -0.45593999997E+02  0.45594000000E+02  0.51100000000E-03 0.  1.
    9900012    2    1    2    0    0  0.30087564424E+02 -0.23565439056E+02  0.20567728954E+02  0.47787275061E+02  0.20000018314E+02 0.  0.
        -12    1    1    2    0    0 -0.30087564424E+02  0.23565439056E+02 -0.20567728954E+02  0.43400724939E+02  0.00000000000E+00 0.  1.
         11    1    3    3    0    0  0.15164616920E+02 -0.10443467265E+02  0.15981262894E+01  0.18482035136E+02  0.51100000000E-03 0. -1.
        -11    1    3    3    0    0 -0.11557320498E+01 -0.25305559664E+01  0.96416117767E+00  0.29443228607E+01  0.51100000000E-03 0.  1.
         12    1    3    3    0    0  0.16078679554E+02 -0.10591415825E+02  0.18005441487E+02  0.26360917065E+02  0.00000000000E+00 0. -1.
</event>
<event>
 7    1  0.4675811E-010  0.4778728E+02  0.7816164E-02  0.1312668E+00
        -11   -1    0    0    0    0  0.00000000000E+00  0.00000000000E+00  0.45593999997E+02  0.45594000000E+02  0.51100000000E-03 0.  1.
         11   -1    0    0    0    0 -0.00000000000E+00 -0.00000000000E+00 -0.45593999997E+02  0.45594000000E+02  0.51100000000E-03 0. -1.
    9900012    2    1    2    0    0  0.52239364858E+01  0.42555425441E+02 -0.67356275458E+01  0.47787280821E+02  0.20000044573E+02 0.  0.
        -12    1    1    2    0    0 -0.52239364858E+01 -0.42555425441E+02  0.67356275458E+01  0.43400719179E+02  0.00000000000E+00 0.  1.
         11    1    3    3    0    0 -0.11156416226E-01  0.79191757277E+01 -0.51027936868E+00  0.79356067170E+01  0.51100000000E-03 0. -1.
        -11    1    3    3    0    0  0.10122206368E+02  0.12778218587E+02  0.95943117238E+00  0.16329802217E+02  0.51100000000E-03 0.  1.
         12    1    3    3    0    0 -0.48871134661E+01  0.21858031126E+02 -0.71847793495E+01  0.23521871887E+02  0.00000000000E+00 0. -1.
</event>
<event>
 7    1  0.4675811E-010  0.4778727E+02  0.7816164E-02  0.1312668E+00
        -11   -1    0    0    0    0  0.00000000000E+00  0.00000000000E+00  0.45593999997E+02  0.45594000000E+02  0.51100000000E-03 0. -1.
         11   -1    0    0    0    0 -0.00000000000E+00 -0.00000000000E+00 -0.45593999997E+02  0.45594000000E+02  0.51100000000E-03 0.  1.
    9900012    2    1    2    0    0 -0.15756129175E+02  0.27859131027E+02  0.29312740320E+02  0.47787268056E+02  0.19999986376E+02 0.  0.
        -12    1    1    2    0    0  0.15756129175E+02 -0.27859131027E+02 -0.29312740320E+02  0.43400731944E+02  0.00000000000E+00 0.  1.
         11    1    3    3    0    0 -0.64531203755E+00  0.11882283005E+02  0.61799124587E+01  0.13408817819E+02  0.51100000000E-03 0. -1.
        -11    1    3    3    0    0 -0.71049958669E+00  0.24230347723E+01 -0.13844505187E+01  0.28796893357E+01  0.51100000000E-03 0.  1.
         12    1    3    3    0    0 -0.14400317551E+02  0.13553813249E+02  0.24517278380E+02  0.31498760902E+02  0.00000000000E+00 0. -1.
</event>
<event>
 7    1  0.4675811E-010  0.4778727E+02  0.7816164E-02  0.1312668E+00
        -11   -1    0    0    0    0  0.00000000000E+00  0.00000000000E+00  0.45593999997E+02  0.45594000000E+02  0.51100000000E-03 0. -1.
         11   -1    0    0    0    0 -0.00000000000E+00 -0.00000000000E+00 -0.45593999997E+02  0.45594000000E+02  0.51100000000E-03 0.  1.
    9900012    2    1    2    0    0  0.28404390084E+01  0.34917924797E+02  0.25618237007E+02  0.47787266904E+02  0.19999981123E+02 0.  0.
        -12    1    1    2    0    0 -0.28404390084E+01 -0.34917924797E+02 -0.25618237007E+02  0.43400733096E+02  0.00000000000E+00 0.  1.
         11    1    3    3    0    0 -0.52092771853E+01  0.14721495955E+02  0.12548854214E+02  0.20033291150E+02  0.51100000000E-03 0. -1.
        -11    1    3    3    0    0  0.27426367770E+01  0.89129555674E+01  0.12058689305E+02  0.15243845363E+02  0.51100000000E-03 0.  1.
         12    1    3    3    0    0  0.53070794167E+01  0.11283473274E+02  0.10106934881E+01  0.12510130391E+02  0.00000000000E+00 0. -1.
</event>
<event>
 7    1  0.4675811E-010  0.4778727E+02  0.7816164E-02  0.1312668E+00
        -11   -1    0    0    0    0  0.00000000000E+00  0.00000000000E+00  0.45593999997E+02  0.45594000000E+02  0.51100000000E-03 0. -1.
         11   -1    0    0    0    0 -0.00000000000E+00 -0.00000000000E+00 -0.45593999997E+02  0.45594000000E+02  0.51100000000E-03 0.  1.
    9900012    2    1    2    0    0 -0.23118338207E+02  0.20622575493E+02 -0.30395315320E+02  0.47787269881E+02  0.19999994698E+02 0.  0.
        -12    1    1    2    0    0  0.23118338207E+02 -0.20622575493E+02  0.30395315320E+02  0.43400730119E+02  0.00000000000E+00 0.  1.
         11    1    3    3    0    0 -0.82101078670E+01  0.14316302690E+02 -0.18916447487E+02  0.25103672634E+02  0.51100000000E-03 0. -1.
        -11    1    3    3    0    0  0.42158017533E+00  0.40043951966E+01 -0.18178150911E+01  0.44178459345E+01  0.51100000000E-03 0.  1.
         12    1    3    3    0    0 -0.15329810516E+02  0.23018776058E+01 -0.96610527420E+01  0.18265751313E+02  0.00000000000E+00 0. -1.
</event>
<event>
 7    1  0.4675811E-010  0.4778727E+02  0.7816164E-02  0.1312668E+00
        -11   -1    0    0    0    0  0.00000000000E+00  0.00000000000E+00  0.45593999997E+02  0.45594000000E+02  0.51100000000E-03 0. -1.
         11   -1    0    0    0    0 -0.00000000000E+00 -0.00000000000E+00 -0.45593999997E+02  0.45594000000E+02  0.51100000000E-03 0.  1.
    9900012    2    1    2    0    0  0.61369393306E+01 -0.38353103265E+02  0.19364939059E+02  0.47787269371E+02  0.19999992371E+02 0.  0.
        -12    1    1    2    0    0 -0.61369393306E+01  0.38353103265E+02 -0.19364939059E+02  0.43400730629E+02  0.00000000000E+00 0.  1.
         11    1    3    3    0    0  0.10505166803E+02 -0.24335724004E+02  0.17413157326E+02  0.31714413768E+02  0.51100000000E-03 0. -1.
        -11    1    3    3    0    0  0.80146968977E+00 -0.10948011353E+01 -0.11895966307E+01  0.18044621344E+01  0.51100000000E-03 0.  1.
         12    1    3    3    0    0 -0.51696971618E+01 -0.12922578125E+02  0.31413783635E+01  0.14268393468E+02  0.00000000000E+00 0. -1.
</event>
<event>
 7    1  0.4675811E-010  0.4778727E+02  0.7816164E-02  0.1312668E+00
        -11   -1    0    0    0    0  0.00000000000E+00  0.00000000000E+00  0.45593999997E+02  0.45594000000E+02  0.51100000000E-03 0.  1.
         11   -1    0    0    0    0 -0.00000000000E+00 -0.00000000000E+00 -0.45593999997E+02  0.45594000000E+02  0.51100000000E-03 0. -1.
    9900012    2    1    2    0    0 -0.73923618701E+01 -0.41948455007E+02 -0.83248592050E+01  0.47787272215E+02  0.20000005335E+02 0.  0.
        -12    1    1    2    0    0  0.73923618701E+01  0.41948455007E+02  0.83248592050E+01  0.43400727785E+02  0.00000000000E+00 0.  1.
         11    1    3    3    0    0 -0.65530579447E+01 -0.16120665670E+02 -0.94063430188E-01  0.17401933176E+02  0.51100000000E-03 0. -1.
        -11    1    3    3    0    0 -0.22210220270E+01 -0.28807244930E-01 -0.34614854640E+01  0.41128640362E+01  0.51100000000E-03 0.  1.
         12    1    3    3    0    0  0.13817181016E+01 -0.25798982092E+02 -0.47693103108E+01  0.26272475002E+02  0.00000000000E+00 0. -1.
</event>
<event>
 7    1  0.4675811E-010  0.4778727E+02  0.7816164E-02  0.1312668E+00
        -11   -1    0    0    0    0  0.00000000000E+00  0.00000000000E+00  0.45593999997E+02  0.45594000000E+02  0.51100000000E-03 0.  1.
         11   -1    0    0    0    0 -0.00000000000E+00 -0.00000000000E+00 -0.45593999997E+02  0.45594000000E+02  0.51100000000E-03 0. -1.
    9900012    2    1    2    0    0 -0.58139456012E+01 -0.39639454458E+02 -0.16689366576E+02  0.47787271090E+02  0.20000000207E+02 0.  0.
        -12    1    1    2    0    0  0.58139456012E+01  0.39639454458E+02  0.16689366576E+02  0.43400728910E+02  0.00000000000E+00 0.  1.
         11    1    3    3    0    0 -0.16237175414E+01 -0.22156541709E+02 -0.97337095581E+00  0.22237271650E+02  0.51100000000E-03 0. -1.
        -11    1    3    3    0    0 -0.20274056014E+01 -0.15001856003E+02 -0.79138604873E+01  0.17082015252E+02  0.51100000000E-03 0.  1.
        -12    1    3    3    0    0 -0.21628224584E+01 -0.24810567468E+01 -0.78021351332E+01  0.84679841878E+01  0.00000000000E+00 0.  1.
</event>
<event>
 7    1  0.4675811E-010  0.4778727E+02  0.7816164E-02  0.1312668E+00
        -11   -1    0    0    0    0  0.00000000000E+00  0.00000000000E+00  0.45593999997E+02  0.45594000000E+02  0.51100000000E-03 0.  1.
         11   -1    0    0    0    0 -0.00000000000E+00 -0.00000000000E+00 -0.45593999997E+02  0.45594000000E+02  0.51100000000E-03 0. -1.
    9900012    2    1    2    0    0 -0.29859038785E+02 -0.28860123376E+02 -0.12615634948E+02  0.47787272315E+02  0.20000005794E+02 0.  0.
        -12    1    1    2    0    0  0.29859038785E+02  0.28860123376E+02  0.12615634948E+02  0.43400727685E+02  0.00000000000E+00 0.  1.
         11    1    3    3    0    0 -0.71045054477E+01 -0.14985329571E+02  0.31463969905E+00  0.16587136535E+02  0.51100000000E-03 0.  1.
        -11    1    3    3    0    0 -0.70508242733E+01 -0.93286021712E+01 -0.78363020258E+01  0.14076383453E+02  0.51100000000E-03 0. -1.
         12    1    3    3    0    0 -0.15703709064E+02 -0.45461916334E+01 -0.50939726209E+01  0.17123752328E+02  0.00000000000E+00 0. -1.
</event>
<event>
 7    1  0.4675811E-010  0.4778727E+02  0.7816164E-02  0.1312668E+00
        -11   -1    0    0    0    0  0.00000000000E+00  0.00000000000E+00  0.45593999997E+02  0.45594000000E+02  0.51100000000E-03 0.  1.
         11   -1    0    0    0    0 -0.00000000000E+00 -0.00000000000E+00 -0.45593999997E+02  0.45594000000E+02  0.51100000000E-03 0. -1.
    9900012    2    1    2    0    0 -0.15591999646E+02 -0.40493189849E+02  0.90248261104E+00  0.47787270145E+02  0.19999995899E+02 0.  0.
        -12    1    1    2    0    0  0.15591999646E+02  0.40493189849E+02 -0.90248261104E+00  0.43400729855E+02  0.00000000000E+00 0.  1.
         11    1    3    3    0    0 -0.12389002239E+02 -0.35703425719E+02  0.47463056510E+01  0.38088704391E+02  0.51100000000E-03 0. -1.
        -11    1    3    3    0    0 -0.34069143901E+01 -0.22388297669E+01 -0.53522566645E+01  0.67280068409E+01  0.51100000000E-03 0.  1.
        -12    1    3    3    0    0  0.20391698368E+00 -0.25509343628E+01  0.15084336246E+01  0.29705589136E+01  0.00000000000E+00 0.  1.
</event>
<event>
 7    1  0.4675811E-010  0.4778729E+02  0.7816164E-02  0.1312668E+00
        -11   -1    0    0    0    0  0.00000000000E+00  0.00000000000E+00  0.45593999997E+02  0.45594000000E+02  0.51100000000E-03 0.  1.
         11   -1    0    0    0    0 -0.00000000000E+00 -0.00000000000E+00 -0.45593999997E+02  0.45594000000E+02  0.51100000000E-03 0. -1.
    9900012    2    1    2    0    0 -0.12838465875E+02  0.40913340933E+02 -0.67003245494E+01  0.47787285474E+02  0.20000065790E+02 0.  0.
        -12    1    1    2    0    0  0.12838465875E+02 -0.40913340933E+02  0.67003245494E+01  0.43400714526E+02  0.00000000000E+00 0.  1.
         11    1    3    3    0    0 -0.66957850159E+01  0.78311693164E+01 -0.12422838819E+01  0.10378054700E+02  0.51100000000E-03 0. -1.
        -11    1    3    3    0    0 -0.60408014475E+01  0.19973094669E+02 -0.10505086570E+02  0.23361777263E+02  0.51100000000E-03 0.  1.
         12    1    3    3    0    0 -0.10187941167E+00  0.13109076947E+02  0.50470459020E+01  0.14047453511E+02  0.00000000000E+00 0. -1.
</event>
<event>
 7    1  0.4675811E-010  0.4778727E+02  0.7816164E-02  0.1312668E+00
        -11   -1    0    0    0    0  0.00000000000E+00  0.00000000000E+00  0.45593999997E+02  0.45594000000E+02  0.51100000000E-03 0.  1.
         11   -1    0    0    0    0 -0.00000000000E+00 -0.00000000000E+00 -0.45593999997E+02  0.45594000000E+02  0.51100000000E-03 0. -1.
    9900012    2    1    2    0    0 -0.23703966547E+02  0.16430616335E+02 -0.32431155941E+02  0.47787273521E+02  0.20000011292E+02 0.  0.
        -12    1    1    2    0    0  0.23703966547E+02 -0.16430616335E+02  0.32431155941E+02  0.43400726479E+02  0.00000000000E+00 0.  1.
         11    1    3    3    0    0 -0.14331424940E+02  0.58524558451E+01 -0.20598996015E+02  0.25767413865E+02  0.51100000000E-03 0. -1.
        -11    1    3    3    0    0 -0.11401290496E+02  0.69655317267E+01 -0.11876653561E+02  0.17876323930E+02  0.51100000000E-03 0.  1.
        -12    1    3    3    0    0  0.20287488877E+01  0.36126287629E+01  0.44493633940E-01  0.41435357258E+01  0.00000000000E+00 0.  1.
</event>
<event>
 7    1  0.4675811E-010  0.4778727E+02  0.7816164E-02  0.1312668E+00
        -11   -1    0    0    0    0  0.00000000000E+00  0.00000000000E+00  0.45593999997E+02  0.45594000000E+02  0.51100000000E-03 0. -1.
         11   -1    0    0    0    0 -0.00000000000E+00 -0.00000000000E+00 -0.45593999997E+02  0.45594000000E+02  0.51100000000E-03 0.  1.
    9900012    2    1    2    0    0 -0.33816506261E+02 -0.25305719908E+02  0.99843661735E+01  0.47787272775E+02  0.20000007890E+02 0.  0.
        -12    1    1    2    0    0  0.33816506261E+02  0.25305719908E+02 -0.99843661735E+01  0.43400727225E+02  0.00000000000E+00 0.  1.
         11    1    3    3    0    0 -0.52994295290E+01 -0.16867032815E+01 -0.18124193126E+01  0.58492551080E+01  0.51100000000E-03 0.  1.
        -11    1    3    3    0    0 -0.11054061827E+02 -0.76416698606E+01 -0.33341383493E+01  0.13845717025E+02  0.51100000000E-03 0. -1.
         12    1    3    3    0    0 -0.17463014905E+02 -0.15977346766E+02  0.15130923835E+02  0.28092300642E+02  0.00000000000E+00 0. -1.
</event>
<event>
 7    1  0.4675811E-010  0.4778727E+02  0.7816164E-02  0.1312668E+00
        -11   -1    0    0    0    0  0.00000000000E+00  0.00000000000E+00  0.45593999997E+02  0.45594000000E+02  0.51100000000E-03 0.  1.
         11   -1    0    0    0    0 -0.00000000000E+00 -0.00000000000E+00 -0.45593999997E+02  0.45594000000E+02  0.51100000000E-03 0. -1.
    9900012    2    1    2    0    0  0.24749284860E+02  0.35029564985E+02 -0.66352208369E+01  0.47787266369E+02  0.19999978683E+02 0.  0.
        -12    1    1    2    0    0 -0.24749284860E+02 -0.35029564985E+02  0.66352208369E+01  0.43400733631E+02  0.00000000000E+00 0.  1.
         11    1    3    3    0    0  0.17467917779E+02  0.13333637589E+02 -0.83612109128E+01  0.23512207277E+02  0.51100000000E-03 0. -1.
        -11    1    3    3    0    0  0.37993795373E+01  0.33331275997E+01 -0.15789209517E+01  0.52950935872E+01  0.51100000000E-03 0.  1.
        -12    1    3    3    0    0  0.34819875444E+01  0.18362799797E+02  0.33049110276E+01  0.18979965504E+02  0.00000000000E+00 0.  1.
</event>
<event>
 7    1  0.4675811E-010  0.4778727E+02  0.7816164E-02  0.1312668E+00
        -11   -1    0    0    0    0  0.00000000000E+00  0.00000000000E+00  0.45593999997E+02  0.45594000000E+02  0.51100000000E-03 0.  1.
         11   -1    0    0    0    0 -0.00000000000E+00 -0.00000000000E+00 -0.45593999997E+02  0.45594000000E+02  0.51100000000E-03 0. -1.
    9900012    2    1    2    0    0  0.13881673643E+02 -0.34011349769E+02 -0.23111699870E+02  0.47787269049E+02  0.19999990901E+02 0.  0.
        -12    1    1    2    0    0 -0.13881673643E+02  0.34011349769E+02  0.23111699870E+02  0.43400730951E+02  0.00000000000E+00 0.  1.
         11    1    3    3    0    0 -0.28544616305E+00 -0.70975477270E+01 -0.10785503040E+02  0.12914477896E+02  0.51100000000E-03 0. -1.
        -11    1    3    3    0    0  0.47710204497E+01 -0.11378900686E+01 -0.35971352023E+01  0.60825004615E+01  0.51100000000E-03 0.  1.
         12    1    3    3    0    0  0.93960993562E+01 -0.25775911973E+02 -0.87290616274E+01  0.28790290691E+02  0.00000000000E+00 0. -1.
</event>
<event>
 7    1  0.4675811E-010  0.4778727E+02  0.7816164E-02  0.1312668E+00
        -11   -1    0    0    0    0  0.00000000000E+00  0.00000000000E+00  0.45593999997E+02  0.45594000000E+02  0.51100000000E-03 0. -1.
         11   -1    0    0    0    0 -0.00000000000E+00 -0.00000000000E+00 -0.45593999997E+02  0.45594000000E+02  0.51100000000E-03 0.  1.
    9900012    2    1    2    0    0  0.12805064290E+02  0.36865895371E+02  0.18988403344E+02  0.47787269885E+02  0.19999994712E+02 0.  0.
        -12    1    1    2    0    0 -0.12805064290E+02 -0.36865895371E+02 -0.18988403344E+02  0.43400730115E+02  0.00000000000E+00 0.  1.
         11    1    3    3    0    0  0.22520436193E+01  0.85987535655E+01  0.11296055383E+02  0.14373974079E+02  0.51100000000E-03 0. -1.
        -11    1    3    3    0    0  0.15310973652E-01  0.11764465547E+02  0.72681774801E+01  0.13828567828E+02  0.51100000000E-03 0.  1.
         12    1    3    3    0    0  0.10537709697E+02  0.16502676259E+02  0.42417048069E+00  0.19584727978E+02  0.00000000000E+00 0. -1.
</event>
<event>
 7    1  0.4675811E-010  0.4778726E+02  0.7816164E-02  0.1312668E+00
        -11   -1    0    0    0    0  0.00000000000E+00  0.00000000000E+00  0.45593999997E+02  0.45594000000E+02  0.51100000000E-03 0.  1.
         11   -1    0    0    0    0 -0.00000000000E+00 -0.00000000000E+00 -0.45593999997E+02  0.45594000000E+02  0.51100000000E-03 0. -1.
    9900012    2    1    2    0    0  0.58467604226E+01 -0.31414009048E+02 -0.29370051832E+02  0.47787256729E+02  0.19999934728E+02 0.  0.
        -12    1    1    2    0    0 -0.58467604226E+01  0.31414009048E+02  0.29370051832E+02  0.43400743271E+02  0.00000000000E+00 0.  1.
         11    1    3    3    0    0  0.28898439731E+01 -0.12136450232E+01  0.32496654014E+00  0.31511483533E+01  0.51100000000E-03 0. -1.
        -11    1    3    3    0    0  0.69037951146E+01 -0.71877691892E+01 -0.83712621672E+01  0.13015546221E+02  0.51100000000E-03 0.  1.
        -12    1    3    3    0    0 -0.39468786651E+01 -0.23012594836E+02 -0.21323756204E+02  0.31620562154E+02  0.00000000000E+00 0.  1.
</event>
<event>
 7    1  0.4675811E-010  0.4778727E+02  0.7816164E-02  0.1312668E+00
        -11   -1    0    0    0    0  0.00000000000E+00  0.00000000000E+00  0.45593999997E+02  0.45594000000E+02  0.51100000000E-03 0. -1.
         11   -1    0    0    0    0 -0.00000000000E+00 -0.00000000000E+00 -0.45593999997E+02  0.45594000000E+02  0.51100000000E-03 0.  1.
    9900012    2    1    2    0    0 -0.25442962950E+02  0.20972738955E+02  0.28220973120E+02  0.47787268822E+02  0.19999989866E+02 0.  0.
        -12    1    1    2    0    0  0.25442962950E+02 -0.20972738955E+02 -0.28220973120E+02  0.43400731178E+02  0.00000000000E+00 0.  1.
         11    1    3    3    0    0 -0.11516091586E+02  0.49691863368E+01  0.52374066856E+01  0.13592042059E+02  0.51100000000E-03 0. -1.
        -11    1    3    3    0    0 -0.13267448747E+02  0.48328871978E+01  0.12369376138E+02  0.18771879533E+02  0.51100000000E-03 0.  1.
         12    1    3    3    0    0 -0.65942261731E+00  0.11170665421E+02  0.10614190296E+02  0.15423347230E+02  0.00000000000E+00 0. -1.
</event>
<event>
 7    1  0.4675811E-010  0.4778727E+02  0.7816164E-02  0.1312668E+00
        -11   -1    0    0    0    0  0.00000000000E+00  0.00000000000E+00  0.45593999997E+02  0.45594000000E+02  0.51100000000E-03 0.  1.
         11   -1    0    0    0    0 -0.00000000000E+00 -0.00000000000E+00 -0.45593999997E+02  0.45594000000E+02  0.51100000000E-03 0. -1.
    9900012    2    1    2    0    0  0.29407500549E+02  0.24350733826E+02 -0.20636475576E+02  0.47787269008E+02  0.19999990717E+02 0.  0.
        -12    1    1    2    0    0 -0.29407500549E+02 -0.24350733826E+02  0.20636475576E+02  0.43400730992E+02  0.00000000000E+00 0.  1.
         11    1    3    3    0    0  0.40894125859E+01  0.10870775972E+02 -0.41980894087E+01  0.12349940100E+02  0.51100000000E-03 0. -1.
        -11    1    3    3    0    0  0.25965763060E+01  0.74411480544E+01 -0.43228750143E+01  0.89888898942E+01  0.51100000000E-03 0.  1.
        -12    1    3    3    0    0  0.22721511657E+02  0.60388097996E+01 -0.12115511153E+02  0.26448439014E+02  0.00000000000E+00 0.  1.
</event>
<event>
 7    1  0.4675811E-010  0.4778727E+02  0.7816164E-02  0.1312668E+00
        -11   -1    0    0    0    0  0.00000000000E+00  0.00000000000E+00  0.45593999997E+02  0.45594000000E+02  0.51100000000E-03 0.  1.
         11   -1    0    0    0    0 -0.00000000000E+00 -0.00000000000E+00 -0.45593999997E+02  0.45594000000E+02  0.51100000000E-03 0. -1.
    9900012    2    1    2    0    0 -0.35909645046E+02  0.92857521364E+01 -0.22536536304E+02  0.47787271104E+02  0.20000000273E+02 0.  0.
        -12    1    1    2    0    0  0.35909645046E+02 -0.92857521364E+01  0.22536536304E+02  0.43400728896E+02  0.00000000000E+00 0.  1.
         11    1    3    3    0    0 -0.21158642052E+02  0.56862845491E+01 -0.11036072313E+02  0.24531955850E+02  0.51100000000E-03 0. -1.
        -11    1    3    3    0    0 -0.98278884779E+01 -0.35569481136E+01 -0.24993084015E+01  0.10746432644E+02  0.51100000000E-03 0.  1.
         12    1    3    3    0    0 -0.49231145164E+01  0.71564157010E+01 -0.90011555893E+01  0.12508882611E+02  0.00000000000E+00 0. -1.
</event>
<event>
 7    1  0.4675811E-010  0.4778727E+02  0.7816164E-02  0.1312668E+00
        -11   -1    0    0    0    0  0.00000000000E+00  0.00000000000E+00  0.45593999997E+02  0.45594000000E+02  0.51100000000E-03 0. -1.
         11   -1    0    0    0    0 -0.00000000000E+00 -0.00000000000E+00 -0.45593999997E+02  0.45594000000E+02  0.51100000000E-03 0.  1.
    9900012    2    1    2    0    0  0.30800316280E+02  0.18275689480E+02  0.24514543366E+02  0.47787272525E+02  0.20000006750E+02 0.  0.
        -12    1    1    2    0    0 -0.30800316280E+02 -0.18275689480E+02 -0.24514543366E+02  0.43400727475E+02  0.00000000000E+00 0.  1.
         11    1    3    3    0    0  0.21066434400E+02  0.13154863392E+02  0.73721405404E+01  0.25907403297E+02  0.51100000000E-03 0. -1.
        -11    1    3    3    0    0  0.20148329806E+01 -0.12924372597E+01  0.49938298054E+00  0.24452667814E+01  0.51100000000E-03 0.  1.
        -12    1    3    3    0    0  0.77190488990E+01  0.64132633483E+01  0.16643019845E+02  0.19434602446E+02  0.00000000000E+00 0.  1.
</event>
<event>
 7    1  0.4675811E-010  0.4778727E+02  0.7816164E-02  0.1312668E+00
        -11   -1    0    0    0    0  0.00000000000E+00  0.00000000000E+00  0.45593999997E+02  0.45594000000E+02  0.51100000000E-03 0.  1.
         11   -1    0    0    0    0 -0.00000000000E+00 -0.00000000000E+00 -0.45593999997E+02  0.45594000000E+02  0.51100000000E-03 0. -1.
    9900012    2    1    2    0    0  0.37711364010E+01 -0.10039220771E+02 -0.42054912015E+02  0.47787273646E+02  0.20000011863E+02 0.  0.
        -12    1    1    2    0    0 -0.37711364010E+01  0.10039220771E+02  0.42054912015E+02  0.43400726354E+02  0.00000000000E+00 0.  1.
         11    1    3    3    0    0  0.27076113607E+01 -0.66460256603E+01 -0.17220327044E+02  0.18655843056E+02  0.51100000000E-03 0. -1.
        -11    1    3    3    0    0 -0.65241288376E+01 -0.35553968585E+01 -0.14690074342E+02  0.16462180546E+02  0.51100000000E-03 0.  1.
        -12    1    3    3    0    0  0.75876538779E+01  0.16220174801E+00 -0.10144510629E+02  0.12669250044E+02  0.00000000000E+00 0.  1.
</event>
<event>
 7    1  0.4675811E-010  0.4778727E+02  0.7816164E-02  0.1312668E+00
        -11   -1    0    0    0    0  0.00000000000E+00  0.00000000000E+00  0.45593999997E+02  0.45594000000E+02  0.51100000000E-03 0.  1.
         11   -1    0    0    0    0 -0.00000000000E+00 -0.00000000000E+00 -0.45593999997E+02  0.45594000000E+02  0.51100000000E-03 0. -1.
    9900012    2    1    2    0    0 -0.12321735735E+02 -0.41298056132E+02  0.51252819500E+01  0.47787272738E+02  0.20000007723E+02 0.  0.
        -12    1    1    2    0    0  0.12321735735E+02  0.41298056132E+02 -0.51252819500E+01  0.43400727262E+02  0.00000000000E+00 0.  1.
         11    1    3    3    0    0 -0.49066442134E+01 -0.10591468085E+02 -0.44035396492E+01  0.12475797182E+02  0.51100000000E-03 0.  1.
        -11    1    3    3    0    0  0.42959671449E+00 -0.14397358287E+02 -0.88583136469E+00  0.14430979747E+02  0.51100000000E-03 0. -1.
         12    1    3    3    0    0 -0.78446882360E+01 -0.16309229760E+02  0.10414652964E+02  0.20880495809E+02  0.00000000000E+00 0. -1.
</event>
<event>
 7    1  0.4675811E-010  0.4778727E+02  0.7816164E-02  0.1312668E+00
        -11   -1    0    0    0    0  0.00000000000E+00  0.00000000000E+00  0.45593999997E+02  0.45594000000E+02  0.51100000000E-03 0.  1.
         11   -1    0    0    0    0 -0.00000000000E+00 -0.00000000000E+00 -0.45593999997E+02  0.45594000000E+02  0.51100000000E-03 0. -1.
    9900012    2    1    2    0    0 -0.24935934882E+02 -0.93978963121E+01 -0.34256415183E+02  0.47787270919E+02  0.19999999430E+02 0.  0.
        -12    1    1    2    0    0  0.24935934882E+02  0.93978963121E+01  0.34256415183E+02  0.43400729081E+02  0.00000000000E+00 0.  1.
         11    1    3    3    0    0 -0.22178957153E+01  0.25091220979E+01 -0.41283629714E+00  0.33741945966E+01  0.51100000000E-03 0.  1.
        -11    1    3    3    0    0 -0.20222435967E+02 -0.14325201993E+02 -0.26462898082E+02  0.36255252085E+02  0.51100000000E-03 0. -1.
         12    1    3    3    0    0 -0.24956032000E+01  0.24181835830E+01 -0.73806808035E+01  0.81578242379E+01  0.00000000000E+00 0. -1.
</event>
<event>
 7    1  0.4675811E-010  0.4778727E+02  0.7816164E-02  0.1312668E+00
        -11   -1    0    0    0    0  0.00000000000E+00  0.00000000000E+00  0.45593999997E+02  0.45594000000E+02  0.51100000000E-03 0. -1.
         11   -1    0    0    0    0 -0.00000000000E+00 -0.00000000000E+00 -0.45593999997E+02  0.45594000000E+02  0.51100000000E-03 0.  1.
    9900012    2    1    2    0    0  0.20560121773E+02 -0.18600647828E+02  0.33390426740E+02  0.47787270688E+02  0.19999998375E+02 0.  0.
        -12    1    1    2    0    0 -0.20560121773E+02  0.18600647828E+02 -0.33390426740E+02  0.43400729312E+02  0.00000000000E+00 0.  1.
         11    1    3    3    0    0  0.12354427371E+02 -0.75151637316E+01  0.16196615214E+02  0.21712666954E+02  0.51100000000E-03 0. -1.
        -11    1    3    3    0    0  0.95697538919E+01 -0.11307534893E+02  0.81138875035E+01  0.16890106737E+02  0.51100000000E-03 0.  1.
        -12    1    3    3    0    0 -0.13640594900E+01  0.22205079658E+00  0.90799240219E+01  0.91844969972E+01  0.00000000000E+00 0.  1.
</event>
<event>
 7    1  0.4675811E-010  0.4778726E+02  0.7816164E-02  0.1312668E+00
        -11   -1    0    0    0    0  0.00000000000E+00  0.00000000000E+00  0.45593999997E+02  0.45594000000E+02  0.51100000000E-03 0.  1.
         11   -1    0    0    0    0 -0.00000000000E+00 -0.00000000000E+00 -0.45593999997E+02  0.45594000000E+02  0.51100000000E-03 0. -1.
    9900012    2    1    2    0    0  0.20395278367E+02  0.72789343129E-01 -0.38309935788E+02  0.47787264314E+02  0.19999969314E+02 0.  0.
        -12    1    1    2    0    0 -0.20395278367E+02 -0.72789343129E-01  0.38309935788E+02  0.43400735686E+02  0.00000000000E+00 0.  1.
         11    1    3    3    0    0  0.29156004324E+01 -0.10768266440E+01 -0.84794732337E+00  0.32216915475E+01  0.51100000000E-03 0. -1.
        -11    1    3    3    0    0 -0.23350044886E+01 -0.81741071505E+00 -0.41789067002E+00  0.25089916525E+01  0.51100000000E-03 0.  1.
         12    1    3    3    0    0  0.19814682423E+02  0.19670267022E+01 -0.37044097795E+02  0.42056581114E+02  0.00000000000E+00 0. -1.
</event>
<event>
 7    1  0.4675811E-010  0.4778727E+02  0.7816164E-02  0.1312668E+00
        -11   -1    0    0    0    0  0.00000000000E+00  0.00000000000E+00  0.45593999997E+02  0.45594000000E+02  0.51100000000E-03 0.  1.
         11   -1    0    0    0    0 -0.00000000000E+00 -0.00000000000E+00 -0.45593999997E+02  0.45594000000E+02  0.51100000000E-03 0. -1.
    9900012    2    1    2    0    0 -0.42523873835E+02 -0.76248847626E+01 -0.41478646275E+01  0.47787268503E+02  0.19999988411E+02 0.  0.
        -12    1    1    2    0    0  0.42523873835E+02  0.76248847626E+01  0.41478646275E+01  0.43400731497E+02  0.00000000000E+00 0.  1.
         11    1    3    3    0    0 -0.19116445932E+01 -0.59848783639E+00 -0.14131056897E+01  0.24514160586E+01  0.51100000000E-03 0. -1.
        -11    1    3    3    0    0 -0.10705195869E+02 -0.81316523968E+01 -0.69154266372E+01  0.15117807881E+02  0.51100000000E-03 0.  1.
         12    1    3    3    0    0 -0.29907033372E+02  0.11052554705E+01  0.41806676994E+01  0.30218044563E+02  0.00000000000E+00 0. -1.
</event>
<event>
 7    1  0.4675811E-010  0.4778726E+02  0.7816164E-02  0.1312668E+00
        -11   -1    0    0    0    0  0.00000000000E+00  0.00000000000E+00  0.45593999997E+02  0.45594000000E+02  0.51100000000E-03 0.  1.
         11   -1    0    0    0    0 -0.00000000000E+00 -0.00000000000E+00 -0.45593999997E+02  0.45594000000E+02  0.51100000000E-03 0. -1.
    9900012    2    1    2    0    0  0.32469605738E+02 -0.27100188202E+02 -0.97431277828E+01  0.47787262260E+02  0.19999959948E+02 0.  0.
        -12    1    1    2    0    0 -0.32469605738E+02  0.27100188202E+02  0.97431277828E+01  0.43400737740E+02  0.00000000000E+00 0.  1.
         11    1    3    3    0    0  0.17209138368E+02 -0.10651406452E+02  0.80321586510E+00  0.20254679923E+02  0.51100000000E-03 0. -1.
        -11    1    3    3    0    0  0.74090097448E+01 -0.10408109415E+02  0.38327826651E+00  0.12781591038E+02  0.51100000000E-03 0.  1.
        -12    1    3    3    0    0  0.78514576252E+01 -0.60406723354E+01 -0.10929621914E+02  0.14750991299E+02  0.00000000000E+00 0.  1.
</event>
